ITEM: TIMESTEP
44550000
ITEM: NUMBER OF ATOMS
20892
ITEM: BOX BOUNDS ff ff ff
-0.01 0.45
-0.15 0.15
-0.08 0.1
ITEM: ATOMS id type x y z ix iy iz vx vy vz fx fy fz c_cc_1 c_cc_2 c_cc_3 c_cc_4 c_cc_5 c_cc_6 c_cc_7 c_cc_8 c_cc_9 c_cc_10 c_cc_11 c_cc_12 c_cc_13 c_cc_14 c_cc_15 c_cc_16 f_fppacc radius 
15490 4 0.00109767 -0.00982483 -0.0600896 0 0 0 -0.000140054 -0.000257597 6.1233e-05 -2.93336e-05 2.11298e-05 -1.83306e-06 0 0 0 2 0 0 0 0 0 0 0 0 0 0 0 0 351 0.001 
4335 5 0.00290904 -0.00899013 -0.0601669 0 0 0 -5.77528e-05 0.00113432 -0.000103106 5.51172e-07 -1.76528e-05 2.02047e-06 0 0 0 1 1 0 0 0 0 0 0 0 0 0 0 0 816 0.001 
5360 1 0.00478251 -0.00967131 -0.0601038 0 0 0 -0.000400736 -0.000739194 6.53716e-05 -2.19379e-06 -5.06654e-06 8.39872e-07 0 0 0 0 1 0 0 0 0 0 0 0 0 0 0 0 356 0.001 
4733 4 0.00828486 -0.00933295 -0.0601352 0 0 0 9.26173e-07 1.26012e-09 -1.12456e-10 2.09207e-11 2.46404e-10 -2.32005e-11 0 0 0 0 0 0 0 0 0 0 0 0 0 0 0 0 427 0.001 
23591 4 0.0113953 -0.00909086 -0.0601576 0 0 0 1.91948e-06 3.15353e-13 3.40322e-12 7.59328e-20 0 0 0 0 0 0 0 0 0 0 0 0 0 0 0 0 0 0 145 0.001 
24492 7 0.00655849 -0.00831935 -0.0602291 0 0 0 -1.00043e-06 -1.99705e-13 -2.15515e-12 -1.27109e-18 0 0 0 0 0 0 0 0 0 0 0 0 0 0 0 0 0 0 79 0.001 
8809 9 0.00121709 -0.00701931 -0.0603496 0 0 0 5.20404e-08 -3.38698e-13 -3.65515e-12 8.03275e-20 0 0 0 0 0 0 0 0 0 0 0 0 0 0 0 0 0 0 59 0.001 
3240 4 0.00412964 -0.00736851 -0.0603172 0 0 0 -1.11335e-07 -3.42078e-13 -3.69162e-12 -1.61236e-19 0 0 0 0 0 0 0 0 0 0 0 0 0 0 0 0 0 0 840 0.001 
28329 3 0.00893123 -0.00691301 -0.0603594 0 0 0 -8.69918e-08 2.33306e-10 -2.08247e-11 -1.31565e-17 3.40006e-16 1.40894e-14 0 0 1 0 0 0 0 0 0 0 0 0 0 0 0 0 141 0.001 
6944 2 0.000997225 -0.00503133 -0.0605338 0 0 0 -9.41408e-06 1.81688e-05 -1.70749e-06 -3.86116e-07 7.70637e-07 -7.02428e-08 0 0 0 0 0 0 0 0 0 0 0 0 0 0 0 0 22 0.001 
12748 2 0.00282744 -0.00582468 -0.0604603 0 0 0 -2.253e-06 1.81754e-06 -1.69531e-07 -1.306e-07 -2.65194e-08 2.69522e-09 0 0 0 0 0 0 0 0 0 0 0 0 0 0 0 0 152 0.001 
18855 3 0.00484046 -0.00548413 -0.0604918 0 0 0 -3.4345e-06 -5.96309e-06 5.55476e-07 -2.31443e-07 -4.03451e-07 3.63466e-08 0 0 2 0 0 0 0 0 0 0 0 0 0 0 0 0 153 0.001 
30990 3 0.00684 -0.00552801 -0.0604878 0 0 0 1.11607e-07 1.65995e-13 1.79136e-12 -2.68892e-21 0 0 0 0 0 0 0 0 0 0 0 0 0 0 0 0 0 0 73 0.001 
11712 6 0.00355614 -0.00396518 -0.0606326 0 0 0 1.3533e-05 1.74e-05 -1.5808e-06 8.65196e-07 1.15791e-06 -1.06456e-07 0 0 1 0 0 1 0 0 0 0 0 0 0 0 0 0 347 0.001 
33475 6 0.00895572 -0.00492378 -0.0605437 0 0 0 8.69919e-08 -2.33321e-10 2.08217e-11 1.48879e-17 2.26468e-15 1.53801e-14 0 0 1 0 0 0 0 0 0 0 0 0 0 0 0 0 19 0.001 
537 2 0.00172189 -0.00318296 -0.0607046 0 0 0 5.12572e-06 2.87853e-06 2.70014e-07 -1.14907e-07 -3.45371e-07 3.70455e-08 0 1 0 0 0 1 0 0 0 0 0 0 0 0 0 0 297 0.001 
20146 1 0.00562846 -0.00365737 -0.0606611 0 0 0 -5.28026e-06 9.50826e-07 -8.88601e-08 -3.52081e-07 7.23917e-08 -5.94344e-09 0 0 1 0 0 0 0 0 0 0 0 0 0 0 0 0 243 0.001 
3870 5 0.00774923 -0.00286841 -0.0607342 0 0 0 5.07011e-07 5.25651e-11 -7.6701e-12 -2.56958e-12 2.30887e-12 -1.40764e-12 0 0 0 0 0 0 0 0 0 0 0 0 0 0 0 0 860 0.001 
29577 4 0.0182759 -0.00328319 -0.0606958 0 0 0 1.37579e-07 1.41661e-13 1.52877e-12 -2.05668e-22 0 0 0 0 0 0 0 0 0 0 0 0 0 0 0 0 0 0 244 0.001 
6205 5 0.000993932 -0.00133871 -0.0608767 0 0 0 -2.95025e-05 5.98608e-05 4.4126e-07 -5.13957e-07 1.67833e-06 4.25764e-09 0 1 0 0 1 0 0 0 0 0 0 0 0 0 0 0 382 0.001 
2795 1 0.00300378 -0.00164585 -0.0608475 0 0 0 -4.97559e-09 3.60031e-13 3.95629e-12 7.27547e-16 4.58292e-16 -7.0239e-15 0 0 0 0 0 0 0 0 0 0 0 0 0 0 0 0 355 0.001 
25024 2 0.0050775 -0.00161376 -0.0608505 0 0 0 -1.4859e-07 -1.6624e-13 -1.79401e-12 -7.86953e-22 0 0 0 0 0 0 0 0 0 0 0 0 0 0 0 0 0 0 207 0.001 
7985 5 0.00100565 -0.0150766 -0.0588608 0 0 0 -1.11981e-07 -1.74802e-13 -6.14366e-13 -3.20962e-19 0 0 0 0 0 0 0 0 0 0 0 0 0 0 0 0 0 0 372 0.001 
25575 7 0.00614153 -0.0145041 -0.0590238 0 0 0 -7.30766e-07 6.58982e-13 2.31608e-12 3.75985e-22 0 0 0 0 0 0 0 0 0 0 0 0 0 0 0 0 0 0 429 0.001 
9939 2 0.0101445 -0.0146941 -0.0589697 0 0 0 -1.07384e-07 6.5846e-14 2.31427e-13 -1.2162e-20 0 0 0 0 0 0 0 0 0 0 0 0 0 0 0 0 0 0 953 0.001 
38015 6 0.0122502 -0.0149747 -0.0588898 0 0 0 -2.75631e-07 -1.51266e-13 -5.3165e-13 4.15908e-21 0 0 0 0 0 0 0 0 0 0 0 0 0 0 0 0 0 0 9 0.001 
28724 4 0.0164879 -0.0149709 -0.0588909 0 0 0 1.5483e-06 -6.48486e-15 -2.27955e-14 -2.57952e-18 0 0 0 0 0 0 0 0 0 0 0 0 0 0 0 0 0 0 272 0.001 
2652 4 0.00268316 -0.013688 -0.059256 0 0 0 5.85589e-08 -2.7885e-09 7.97953e-10 1.56341e-14 1.44854e-14 6.80879e-16 0 0 0 1 0 0 0 0 0 0 0 0 0 0 0 0 133 0.001 
3062 1 0.00467763 -0.0130256 -0.0594444 0 0 0 -3.06973e-07 5.65204e-15 1.98689e-14 -4.19954e-21 0 0 0 0 0 0 0 0 0 0 0 0 0 0 0 0 0 0 605 0.001 
4215 7 0.00822538 -0.0135567 -0.0592933 0 0 0 1.52124e-07 7.68303e-14 2.70027e-13 -3.2376e-19 0 0 0 0 0 0 0 0 0 0 0 0 0 0 0 0 0 0 829 0.001 
2996 9 0.00100034 -0.0117975 -0.0597939 0 0 0 0.000588398 -9.40573e-05 -3.39669e-05 3.02933e-05 3.90186e-06 -4.60624e-07 0 0 0 1 0 0 0 0 0 0 0 0 0 0 0 0 202 0.001 
28049 2 0.00303149 -0.0117978 -0.0597937 0 0 0 -5.85588e-08 2.78819e-09 -7.97949e-10 -1.56021e-14 -1.39977e-14 6.657e-16 0 0 0 1 0 0 0 0 0 0 0 0 0 0 0 0 188 0.001 
12953 3 0.00874205 -0.0114237 -0.0599092 0 0 0 0.317811 -0.0821008 0.0140728 0 -2.0546e-05 0 0 0 0 0 0 0 0 0 0 0 0 0 0 0 0 0 227 0.001 
928 3 0.00276392 -0.0193192 -0.0576538 0 0 0 2.72671e-17 5.36296e-18 1.0182e-18 0 0 0 0 0 1 0 0 0 0 0 0 0 0 0 0 0 0 0 441 0.001 
27503 1 0.00625803 -0.0197116 -0.0575421 0 0 0 -1.36837e-09 5.44658e-13 1.91428e-12 -1.2634e-23 0 0 0 0 0 0 0 0 0 0 0 0 0 0 0 0 0 0 197 0.001 
24954 11 0.0121336 -0.0196918 -0.0575477 0 0 0 -8.59079e-07 -4.73306e-13 -1.66349e-12 1.303e-18 0 0 0 0 0 0 0 0 0 0 0 0 0 0 0 0 0 0 736 0.001 
25276 4 0.00461932 -0.0185995 -0.0578585 0 0 0 -2.10283e-07 6.86279e-13 2.41201e-12 -3.12209e-21 0 0 0 0 0 0 0 0 0 0 0 0 0 0 0 0 0 0 211 0.001 
20131 4 0.0108844 -0.0180016 -0.0580286 0 0 0 0.000337058 0.000281056 -7.99755e-05 -2.06722e-05 -1.59792e-05 4.5471e-06 0 0 0 1 0 0 0 0 0 0 0 0 0 0 0 0 656 0.001 
1300 6 0.0155652 -0.0184852 -0.057891 0 0 0 6.52063e-07 6.00679e-13 2.11117e-12 -1.72759e-20 0 0 0 0 0 0 0 0 0 0 0 0 0 0 0 0 0 0 1051 0.001 
5836 3 0.0187244 -0.0178108 -0.0580829 0 0 0 -9.75419e-07 -1.61365e-13 -5.67135e-13 2.57789e-18 0 0 0 0 0 0 0 0 0 0 0 0 0 0 0 0 0 0 42 0.001 
18074 5 0.000996181 -0.0170446 -0.0583009 0 0 0 -4.75794e-18 3.28254e-17 1.11436e-16 0 -4.40457e-20 8.13152e-20 0 0 0 0 0 0 0 0 0 0 0 0 0 0 0 0 122 0.001 
25204 1 0.00301016 -0.0171529 -0.0582701 0 0 0 -6.83292e-08 -1.70717e-13 -6.00009e-13 1.60735e-19 0 0 0 0 0 0 0 0 0 0 0 0 0 0 0 0 0 0 188 0.001 
31205 3 0.00604282 -0.0169166 -0.0583373 0 0 0 8.71347e-05 0.000183706 0.000347078 -1.03918e-05 -1.17867e-05 -4.50166e-06 0 0 0 0 0 0 0 0 0 0 0 0 0 0 0 0 216 0.001 
26576 1 0.00951263 -0.0166068 -0.0584255 0 0 0 -0.000514146 -0.000626863 0.000178362 3.7301e-05 4.69986e-05 -1.33728e-05 1 0 0 1 0 0 0 0 0 0 0 0 0 0 0 0 312 0.001 
26668 1 0.0168884 -0.0170164 -0.0583089 0 0 0 -1.06353e-06 4.38908e-13 1.5426e-12 2.60352e-18 0 0 0 0 0 0 0 0 0 0 0 0 0 0 0 0 0 0 532 0.001 
13920 1 0.00448565 -0.0157002 -0.0586834 0 0 0 1.02768e-08 1.63817e-13 5.75753e-13 2.43392e-22 0 0 0 0 0 0 0 0 0 0 0 0 0 0 0 0 0 0 233 0.001 
38289 5 0.00777477 -0.0156618 -0.0586943 0 0 0 0.000177607 0.000345793 -9.83823e-05 -1.66284e-05 -3.10173e-05 8.82513e-06 1 0 0 0 0 0 0 0 0 0 0 0 0 0 0 0 41 0.001 
39584 11 0.00276289 -0.0140736 -0.05699 0 0 0 -0.374573 -5.79234 1.96156 0 -2.0546e-05 0 0 0 0 0 0 0 0 0 0 0 0 0 0 0 0 0 159 0.001 
27440 7 0.0113274 -0.0132535 -0.0573068 0 0 0 -0.490868 -7.61394 2.72494 0.00156647 0.00179062 -0.0108265 0 0 0 0 0 0 0 0 0 0 0 0 0 0 0 0 521 0.001 
780 2 0.008081 -0.00973262 -0.0581195 0 0 0 -0.232978 -3.70547 0.737042 -0.013177 0.0143776 -0.00698452 0 1 0 0 0 0 0 0 0 0 0 0 0 0 0 0 1047 0.001 
13787 5 0.00488872 -0.00739015 -0.0580924 0 0 0 -0.230159 -3.30977 0.541055 0 -2.0546e-05 0 0 0 0 0 0 0 0 0 0 0 0 0 0 0 0 0 817 0.001 
35799 6 0.0102236 -0.0100394 -0.0580067 0 0 0 2.06839 -9.69573 1.31135 0 -2.0546e-05 0 0 0 0 0 0 0 0 0 0 0 0 0 0 0 0 0 273 0.001 
10618 13 0.000998684 -0.0222859 -0.0567563 0 0 0 1.7852e-20 2.28035e-17 4.24334e-17 0 0 0 0 0 0 0 0 0 0 0 0 0 0 0 0 0 0 0 99 0.001 
4986 1 0.00099727 -0.0202099 -0.0574003 0 0 0 -2.14992e-18 4.02761e-17 -2.15111e-18 0 1.02067e-19 3.83812e-19 0 0 1 0 0 0 0 0 0 0 0 0 0 0 0 0 128 0.001 
15927 1 0.00404226 -0.0212447 -0.0571059 0 0 0 1.93783e-07 1.57552e-12 5.53736e-12 3.20597e-19 0 0 0 0 0 0 0 0 0 0 0 0 0 0 0 0 0 0 201 0.001 
28768 7 0.00817069 -0.0206692 -0.0572696 0 0 0 -3.17539e-07 -1.1593e-12 -4.0745e-12 -6.49331e-19 0 0 0 0 0 0 0 0 0 0 0 0 0 0 0 0 0 0 329 0.001 
26741 8 0.0173298 -0.0171573 -0.0560923 0 0 0 1.61963 -3.48842 1.15361 0 -2.0546e-05 0 0 0 0 0 0 0 0 0 0 0 0 0 0 0 0 0 553 0.001 
29489 8 0.0162075 -0.0120623 -0.0563637 0 0 0 4.05889 -3.63198 1.22323 0 -2.0546e-05 0 0 0 0 0 0 0 0 0 0 0 0 0 0 0 0 0 563 0.001 
41997 8 0.0165773 -0.00403796 -0.0564358 0 0 0 0.310174 -2.32026 0.408443 0 -2.0546e-05 0 0 0 0 0 0 0 0 0 0 0 0 0 0 0 0 0 89 0.001 
17646 11 0.0009966 -0.0257209 -0.0550458 0 0 0 3.47479e-17 2.25815e-17 -3.0973e-18 0 0 0 0 0 0 0 0 0 0 0 0 0 1 0 0 0 0 0 89 0.001 
8160 8 0.00556519 -0.0254572 -0.0551771 0 0 0 -1.65592e-06 -3.86867e-13 -7.7693e-13 2.92397e-20 0 0 0 0 0 0 0 0 0 0 0 0 0 0 0 0 0 0 545 0.001 
43122 9 0.0184831 -0.0251368 -0.0553367 0 0 0 -6.94596e-07 -1.0904e-12 -2.18983e-12 3.26141e-18 0 0 0 0 0 0 0 0 0 0 0 0 0 0 0 0 0 0 2 0.001 
26155 7 0.00172117 -0.0240577 -0.055874 0 0 0 4.1642e-17 -2.55583e-17 9.58448e-18 0 0 0 0 0 0 0 0 0 0 0 0 0 1 0 0 0 0 0 213 0.001 
28141 6 0.00365536 -0.0245187 -0.0556444 0 0 0 -2.98703e-07 -1.22929e-12 -2.46876e-12 2.88677e-20 0 0 0 0 0 0 0 0 0 0 0 0 0 0 0 0 0 0 202 0.001 
14657 4 0.00767382 -0.0246519 -0.0555781 0 0 0 6.30367e-07 -9.69337e-13 -1.9467e-12 2.24158e-22 0 0 0 0 0 0 0 0 0 0 0 0 0 0 0 0 0 0 424 0.001 
18297 4 0.0107628 -0.0239704 -0.0559174 0 0 0 3.66115e-07 1.5946e-12 3.2024e-12 -7.52033e-21 0 0 0 0 0 0 0 0 0 0 0 0 0 0 0 0 0 0 723 0.001 
34281 3 0.0156371 -0.0248312 -0.0554888 0 0 0 -4.24185e-07 -1.35819e-12 -2.72762e-12 3.41546e-20 0 0 0 0 0 0 0 0 0 0 0 0 0 0 0 0 0 0 219 0.001 
37151 3 0.00261066 -0.0199466 -0.0550598 0 0 0 0.445683 -3.29602 0.0526674 -0.000448323 -0.00183017 -0.00292558 0 0 1 0 0 0 0 0 0 0 0 0 0 0 0 0 267 0.001 
23638 7 0.00447958 -0.0189442 -0.0554207 0 0 0 0.412568 -2.26891 0.766006 0 -2.0546e-05 0 0 0 0 0 0 0 0 0 0 0 0 0 0 0 0 0 713 0.001 
42270 3 0.006883 -0.0204131 -0.0542581 0 0 0 1.34741 -5.72833 3.19622 0 -2.0546e-05 0 0 0 0 0 0 0 0 0 0 0 0 0 0 0 0 0 55 0.001 
30350 6 0.00300921 -0.0171494 -0.0547206 0 0 0 0.42129 -2.49306 1.80301 0 -2.0546e-05 0 0 0 0 0 0 0 0 0 0 0 0 0 0 0 0 0 445 0.001 
44173 3 0.00252163 -0.0147717 -0.0550382 0 0 0 0.235791 -3.70864 1.04744 0 -2.0546e-05 0 0 0 0 0 0 0 0 0 0 0 0 0 0 0 0 0 0 0.001 
43333 7 0.00719211 -0.0100102 -0.0563885 0 0 0 -1.09577 -4.58622 -0.350677 -0.000236043 -0.00478756 0.0363693 0 1 0 0 0 0 0 0 0 0 0 0 0 0 0 0 23 0.001 
1466 2 0.00180057 -0.0275214 -0.0541493 0 0 0 -2.36163e-07 -9.04328e-13 -1.81614e-12 -6.42671e-19 0 0 0 0 0 0 0 0 0 0 0 0 0 0 0 0 0 0 474 0.001 
14062 5 0.00474922 -0.028042 -0.0538901 0 0 0 1.69983e-07 -1.71756e-12 -3.44933e-12 1.2608e-20 0 0 0 0 0 0 0 0 0 0 0 0 0 0 0 0 0 0 515 0.001 
3560 2 0.00677414 -0.027877 -0.0539722 0 0 0 -1.14711e-07 -1.37958e-12 -2.77056e-12 9.76215e-21 0 0 0 0 0 0 0 0 0 0 0 0 0 0 0 0 0 0 940 0.001 
14623 6 0.015397 -0.0283028 -0.0537602 0 0 0 2.79685e-07 8.47671e-13 1.70235e-12 -1.27241e-18 0 0 0 0 0 0 0 0 0 0 0 0 0 0 0 0 0 0 898 0.001 
4279 2 0.00368514 -0.0263584 -0.0547284 0 0 0 -4.08312e-07 -1.8743e-12 -3.7641e-12 1.28147e-18 0 0 0 0 0 0 0 0 0 0 0 0 0 0 0 0 0 0 529 0.001 
6616 9 0.0182716 -0.0270505 -0.0543838 0 0 0 2.78052e-07 -1.1209e-12 -2.25108e-12 3.34788e-20 0 0 0 0 0 0 0 0 0 0 0 0 0 0 0 0 0 0 1195 0.001 
43973 5 0.0098888 -0.0234252 -0.053682 0 0 0 1.71661 -1.97971 2.337 0 -2.0546e-05 0 0 0 0 0 0 0 0 0 0 0 0 0 0 0 0 0 0 0.001 
44060 9 0.0180769 -0.0234132 -0.0535495 0 0 0 1.37152 -4.77708 1.61868 0 -2.0546e-05 0 0 0 0 0 0 0 0 0 0 0 0 0 0 0 0 0 1 0.001 
27532 1 0.00206893 -0.0186206 -0.0537083 0 0 0 0.935964 -3.13723 1.65047 0.000448323 0.00178907 0.00292558 0 0 1 0 0 0 0 0 0 0 0 0 0 0 0 0 508 0.001 
40609 10 0.0179724 -0.0150284 -0.0546325 0 0 0 1.49033 -3.38131 0.720263 0 -2.0546e-05 0 0 0 0 0 0 0 0 0 0 0 0 0 0 0 0 0 124 0.001 
36855 2 0.00535289 -0.0088112 -0.0534957 0 0 0 0.766355 -5.07088 1.25293 0 -2.0546e-05 0 0 0 0 0 0 0 0 0 0 0 0 0 0 0 0 0 222 0.001 
19959 5 0.00244126 -0.0306975 -0.0525673 0 0 0 2.42848e-17 -1.10233e-17 -2.86493e-17 -3.25261e-19 2.1684e-19 4.33681e-19 0 0 0 0 3 0 0 0 0 0 0 0 0 0 0 0 186 0.001 
21748 1 0.00458609 -0.0301126 -0.052859 0 0 0 -4.83784e-07 4.7613e-06 -2.37093e-06 5.35817e-09 -3.09301e-08 1.54017e-08 1 0 0 0 0 0 0 0 0 0 0 0 0 0 0 0 56 0.001 
31064 3 0.00963629 -0.0308146 -0.0525095 0 0 0 -5.28088e-07 -2.56769e-12 -5.15662e-12 1.77661e-19 0 0 0 0 0 0 0 0 0 0 0 0 0 0 0 0 0 0 372 0.001 
19140 2 0.0010391 -0.0294238 -0.053202 0 0 0 -1.0891e-17 -4.91561e-18 -7.48902e-18 5.42101e-20 4.33681e-19 4.33681e-19 0 0 0 0 1 0 0 0 0 0 0 0 0 0 0 0 321 0.001 
2728 13 0.00298845 -0.0289797 -0.0534233 0 0 0 -8.58239e-18 -5.31603e-18 -2.62301e-17 1.6263e-19 0 0 0 0 0 0 1 0 0 0 0 0 0 0 0 0 0 0 830 0.001 
23924 9 0.00655213 -0.0298044 -0.0530125 0 0 0 2.54566e-06 -1.15143e-05 5.73319e-06 -1.76903e-08 7.35315e-08 -3.66127e-08 1 0 0 0 0 0 0 0 1 0 0 0 0 0 0 0 520 0.001 
39259 13 0.00847384 -0.0293261 -0.0532507 0 0 0 -4.68832e-06 1.15793e-05 -5.76511e-06 2.98807e-08 -6.96356e-08 3.467e-08 0 0 0 0 0 0 0 0 1 0 0 0 1 0 0 0 85 0.001 
17565 1 0.0102473 -0.0285013 -0.0536613 0 0 0 2.62655e-06 -4.82634e-06 2.40285e-06 -1.7549e-08 2.70344e-08 -1.34591e-08 0 0 0 0 0 0 0 0 0 0 0 0 1 0 0 0 684 0.001 
18422 6 0.0121827 -0.0326572 -0.0514518 0 0 0 2.36381e-07 -1.00428e-12 -1.32988e-12 -1.94867e-23 0 0 0 0 0 0 0 0 0 0 0 0 0 0 0 0 0 0 949 0.001 
4222 1 0.00099806 -0.0319299 -0.0519544 0 0 0 -3.55749e-17 3.22567e-17 3.77189e-17 -6.77626e-20 -8.67362e-19 4.33681e-19 0 0 0 0 1 0 0 0 0 0 0 0 0 0 0 0 357 0.001 
15869 1 0.0034331 -0.032371 -0.051668 0 0 0 -9.00795e-07 5.38174e-07 -8.43403e-07 -1.03996e-06 -4.60157e-07 -2.63554e-07 0 0 0 0 0 0 0 0 0 0 0 0 0 0 0 0 118 0.001 
28047 1 0.00535927 -0.0319193 -0.0519552 0 0 0 -0.000205206 0.00104636 -0.000447278 -1.19496e-05 -3.3635e-06 2.89679e-06 0 0 0 0 0 0 0 0 0 0 0 0 0 0 0 0 509 0.001 
23139 5 0.00755374 -0.0320533 -0.0518925 0 0 0 -0.00397848 2.1636e-12 4.20453e-12 1.27478e-17 -2.68882e-17 1.38778e-17 0 0 0 0 0 0 0 0 0 0 0 0 0 0 0 0 120 0.001 
14967 7 0.00413433 -0.0268117 -0.0501685 0 0 0 -0.336654 -3.31746 2.97173 0 -2.0546e-05 0 0 0 0 0 0 0 0 0 0 0 0 0 0 0 0 0 1094 0.001 
41305 1 0.0154104 -0.0230357 -0.0523562 0 0 0 0.0248908 -2.2781 -0.74922 0 -2.0546e-05 0 0 0 0 0 0 0 0 0 0 0 0 0 0 0 0 0 66 0.001 
7050 6 0.00232705 -0.0337558 -0.0506222 0 0 0 -2.02154e-08 4.22301e-14 5.5922e-14 -8.0429e-20 0 0 0 0 0 0 0 0 0 0 0 0 0 0 0 0 0 0 278 0.001 
40706 3 0.0102977 -0.0344218 -0.0501193 0 0 0 -1.22147e-08 3.88973e-12 5.15084e-12 -7.83857e-22 -2.1684e-19 0 0 0 0 0 0 0 0 0 0 0 0 0 0 0 0 0 14 0.001 
15672 1 0.015012 -0.0338343 -0.0505629 0 0 0 2.10732e-06 -7.93957e-13 -1.05137e-12 1.03451e-17 0 0 0 0 0 0 0 0 0 0 0 0 0 0 0 0 0 0 819 0.001 
3837 9 0.00649196 -0.0334449 -0.050857 0 0 0 -3.91124e-08 -8.38917e-13 -1.1109e-12 4.43951e-21 0 0 0 0 0 0 0 0 0 0 0 0 0 0 0 0 0 0 328 0.001 
15419 9 0.00868758 -0.0334194 -0.0508762 0 0 0 -2.62464e-07 -2.3423e-12 -3.1017e-12 1.27797e-18 0 0 0 0 0 0 0 0 0 0 0 0 0 0 0 0 0 0 548 0.001 
10688 10 0.00261221 -0.0318864 -0.0488642 0 0 0 -3.66939 -6.68122 3.16038 0 -2.0546e-05 0 0 0 0 0 0 0 0 0 0 0 0 0 0 0 0 0 1019 0.001 
22597 8 0.00295776 -0.0356122 -0.0492203 0 0 0 -3.68119e-07 -5.31159e-13 -7.0337e-13 2.53352e-18 0 0 0 0 0 0 0 0 0 0 0 0 0 0 0 0 0 0 301 0.001 
30102 13 0.00570006 -0.0352859 -0.0494667 0 0 0 -6.85234e-08 1.53897e-12 2.03793e-12 6.74947e-23 0 0 0 0 0 0 0 0 0 0 0 0 0 0 0 0 0 0 116 0.001 
651 2 0.00918652 -0.0359933 -0.0489325 0 0 0 3.01868e-07 9.58842e-13 1.26971e-12 7.53329e-21 0 0 0 0 0 0 0 0 0 0 0 0 0 0 0 0 0 0 767 0.001 
24766 2 0.0187274 -0.0353528 -0.0494162 0 0 0 -3.6513e-07 -1.80173e-08 1.36072e-08 3.39993e-14 1.46129e-15 1.54269e-14 0 1 0 0 0 0 0 0 0 0 0 0 0 0 0 0 355 0.001 
10907 3 0.00104533 -0.0349824 -0.0496959 0 0 0 6.66118e-09 4.51659e-13 5.98095e-13 -4.01169e-20 0 0 0 0 0 0 0 0 0 0 0 0 0 0 0 0 0 0 372 0.001 
22014 2 0.00760204 -0.0347732 -0.0498539 0 0 0 4.29718e-08 9.21927e-13 1.22083e-12 4.84104e-21 0 0 0 0 0 0 0 0 0 0 0 0 0 0 0 0 0 0 398 0.001 
3957 3 0.0167846 -0.0349808 -0.0496971 0 0 0 3.65132e-07 1.80168e-08 -1.36072e-08 -3.40181e-14 1.44611e-15 -1.1637e-14 0 1 0 0 0 0 0 0 0 0 0 0 0 0 0 0 900 0.001 
23321 1 0.00705899 -0.0337451 -0.0477809 0 0 0 0.444322 -4.58874 5.67619 0 -2.0546e-05 0 0 0 0 0 0 0 0 0 0 0 0 0 0 0 0 0 632 0.001 
3887 1 0.0052743 -0.0219861 -0.0502124 0 0 0 -0.173296 -2.36636 -0.904713 0 -2.0546e-05 0 0 0 0 0 0 0 0 0 0 0 0 0 0 0 0 0 986 0.001 
36430 4 0.0153289 -0.0103267 -0.0492769 0 0 0 2.43037 -2.6731 0.903187 0 -2.0546e-05 0 0 0 0 0 0 0 0 0 0 0 0 0 0 0 0 0 237 0.001 
2254 1 0.00269774 -0.0375307 -0.0477715 0 0 0 4.00566e-08 -1.38799e-12 -1.838e-12 1.60513e-19 0 0 0 0 0 0 0 0 0 0 0 0 0 0 0 0 0 0 43 0.001 
22092 1 0.00445359 -0.0366799 -0.048414 0 0 0 3.76375e-07 -1.35354e-12 -1.79237e-12 -2.60272e-18 0 0 0 0 0 0 0 0 0 0 0 0 0 0 0 0 0 0 73 0.001 
28309 4 0.00650327 -0.0368728 -0.0482684 0 0 0 -3.69051e-07 1.39665e-12 1.84947e-12 -2.99188e-20 0 0 0 0 0 0 0 0 0 0 0 0 0 0 0 0 0 0 85 0.001 
36660 8 0.0110552 -0.0366317 -0.0484504 0 0 0 -1.35535e-07 9.29585e-13 1.23097e-12 6.42627e-19 0 0 0 0 0 0 0 0 0 0 0 0 0 0 0 0 0 0 174 0.001 
40529 4 0.0141762 -0.036809 -0.0483165 0 0 0 -1.02375e-07 -1.39594e-12 -1.84852e-12 -6.52417e-19 0 0 0 0 0 0 0 0 0 0 0 0 0 0 0 0 0 0 6 0.001 
17729 2 0.0166912 -0.0373072 -0.0479403 0 0 0 -1.42596e-07 -2.36853e-12 -3.13644e-12 5.42076e-23 0 0 0 0 0 0 0 0 0 0 0 0 0 0 0 0 0 0 634 0.001 
36760 1 0.00952436 -0.0169158 -0.0474083 0 0 0 -0.307141 -3.56586 1.66643 0 -2.0546e-05 0 0 0 0 0 0 0 0 0 0 0 0 0 0 0 0 0 142 0.001 
1105 6 0.0134788 -0.00929001 -0.0478886 0 0 0 1.78582 -1.9443 1.35314 0 -2.0546e-05 0 0 0 0 0 0 0 0 0 0 0 0 0 0 0 0 0 1085 0.001 
6347 2 0.0013555 -0.0390433 -0.0466292 0 0 0 1.31314e-07 -1.00967e-12 -1.33702e-12 -6.50056e-19 0 0 0 0 0 0 0 0 0 0 0 0 0 0 0 0 0 0 226 0.001 
30901 3 0.0181619 -0.0389435 -0.0467046 0 0 0 3.2818e-07 -4.79306e-12 -6.34703e-12 6.95553e-20 -2.1684e-19 -4.33681e-19 0 0 0 0 0 0 0 0 0 0 0 0 0 0 0 0 153 0.001 
7287 6 0.00430121 -0.0385026 -0.0470375 0 0 0 1.43828e-07 -9.78617e-13 -1.2959e-12 -3.28072e-21 0 0 0 0 0 0 0 0 0 0 0 0 0 0 0 0 0 0 223 0.001 
6628 3 0.00648538 -0.038708 -0.0468824 0 0 0 1.02711e-07 6.68507e-13 8.85244e-13 6.36382e-19 0 0 0 0 0 0 0 0 0 0 0 0 0 0 0 0 0 0 416 0.001 
36237 6 0.01021 -0.0383134 -0.0471804 0 0 0 -6.35286e-07 3.55623e-12 4.70921e-12 -2.52248e-18 0 0 0 0 0 0 0 0 0 0 0 0 0 0 0 0 0 0 138 0.001 
38755 1 0.00577567 -0.0362592 -0.0458018 0 0 0 3.82326 -1.68055 2.21084 0 -2.0546e-05 0 0 0 0 0 0 0 0 0 0 0 0 0 0 0 0 0 145 0.001 
32197 3 0.00473996 -0.0333045 -0.0462282 0 0 0 1.12137 -2.57102 2.47663 0 -2.0546e-05 0 0 0 0 0 0 0 0 0 0 0 0 0 0 0 0 0 356 0.001 
26763 2 0.00995892 -0.030874 -0.046442 0 0 0 2.88898 -6.35571 0.242737 0 -2.0546e-05 0 0 0 0 0 0 0 0 0 0 0 0 0 0 0 0 0 538 0.001 
7569 1 0.0128713 -0.0106387 -0.0464036 0 0 0 2.01736 -2.67854 -0.0814443 0 -2.0546e-05 0 0 0 0 0 0 0 0 0 0 0 0 0 0 0 0 0 1004 0.001 
12450 9 0.00104126 -0.0407774 -0.0453197 0 0 0 -1.72192e-07 4.08494e-09 -3.08666e-09 -6.89108e-15 -1.26266e-15 -6.76542e-17 0 0 0 0 0 0 0 0 1 0 0 0 0 0 0 0 123 0.001 
11827 10 0.00302046 -0.0405548 -0.0454879 0 0 0 1.72193e-07 -4.08495e-09 3.08656e-09 6.80105e-15 -2.6769e-15 -5.14996e-15 0 0 0 0 0 0 0 0 1 0 0 0 0 0 0 0 372 0.001 
8607 4 0.00571361 -0.0403775 -0.0456217 0 0 0 1.78712e-07 -3.89484e-12 -5.1576e-12 1.27189e-18 0 0 0 0 0 0 0 0 0 0 0 0 0 0 0 0 0 0 579 0.001 
895 3 0.00782057 -0.0409251 -0.0452037 0 0 0 0.00333971 2.29676e-13 3.44984e-13 -4.73643e-19 2.41235e-18 -1.5992e-18 0 0 0 0 0 0 0 0 0 0 0 0 0 0 0 0 577 0.001 
18217 1 0.0184983 -0.0411147 -0.0450569 0 0 0 -0.00544694 -8.15526e-13 -7.91745e-13 1.50438e-18 0 0 0 0 0 0 0 0 0 0 0 0 0 0 0 0 0 0 495 0.001 
18732 7 0.0113297 -0.039716 -0.0461187 0 0 0 -1.93209e-05 0.0295806 0.0387862 1.81925e-05 -0.004377 -0.00523075 0 0 0 0 0 0 0 0 0 0 0 0 0 0 0 0 801 0.001 
1595 1 0.000995616 -0.0422986 -0.0437615 0 0 0 -5.21344e-17 -1.04147e-16 -9.48493e-17 0 -4.33681e-19 -4.33681e-19 0 0 0 0 0 0 0 0 0 0 0 0 0 0 0 0 197 0.001 
17263 6 0.002974 -0.0420207 -0.0440645 0 0 0 7.25938e-09 6.73071e-10 -7.36706e-10 7.81168e-16 -8.75211e-15 -7.03387e-15 0 0 0 0 0 1 0 0 0 0 0 0 0 0 0 0 340 0.001 
29473 7 0.00620213 -0.0422016 -0.0438661 0 0 0 8.07467e-09 1.36015e-12 1.23994e-12 2.69308e-22 0 0 0 0 0 0 0 0 0 0 0 0 0 0 0 0 0 0 57 0.001 
19962 1 0.010685 -0.041716 -0.0443989 0 0 0 -7.37866e-08 -1.59729e-07 -1.53722e-08 -4.00754e-09 -2.8364e-08 3.64172e-08 0 0 0 0 0 0 0 0 0 0 0 0 0 0 0 0 576 0.001 
40028 8 0.0153201 -0.0419737 -0.0441161 0 0 0 -7.84417e-07 -2.80493e-14 -2.55688e-14 1.03845e-17 0 0 0 0 0 0 0 0 0 0 0 0 0 0 0 0 0 0 75 0.001 
18148 2 0.00235867 -0.037185 -0.0447786 0 0 0 0.725698 -0.0814394 0.325936 0 -2.0546e-05 0 0 0 0 0 0 0 0 0 0 0 0 0 0 0 0 0 757 0.001 
29616 3 0.00862949 -0.0388066 -0.0437772 0 0 0 0.450198 -2.71332 2.27407 0 -2.0546e-05 0 0 0 0 0 0 0 0 0 0 0 0 0 0 0 0 0 583 0.001 
16175 4 0.00314463 -0.0208207 -0.0402045 0 0 0 1.1389 -4.07291 9.28707 0 -2.0546e-05 0 0 0 0 0 0 0 0 0 0 0 0 0 0 0 0 0 953 0.001 
6624 9 0.00212341 -0.0434248 -0.0425244 0 0 0 -9.27824e-08 -1.83132e-12 -1.66947e-12 1.27887e-18 0 0 0 0 0 0 0 0 0 0 0 0 0 0 0 0 0 0 278 0.001 
21129 2 0.00448241 -0.0429028 -0.043097 0 0 0 -7.25936e-09 -6.73078e-10 7.36733e-10 -8.14561e-16 5.74801e-15 4.25679e-15 0 0 0 0 0 1 0 0 0 0 0 0 0 0 0 0 112 0.001 
25804 7 0.0104957 -0.0433837 -0.0425695 0 0 0 5.67848e-07 -5.96225e-09 6.52949e-09 4.67438e-09 9.49141e-09 -1.04102e-08 0 0 0 0 0 0 0 0 0 0 0 0 0 0 0 0 415 0.001 
32695 4 0.0121653 -0.0426404 -0.0433848 0 0 0 -1.72601e-07 3.7113e-07 -4.08989e-07 9.06525e-09 -1.61607e-08 1.78512e-08 0 0 0 1 0 0 0 0 0 0 0 0 0 0 0 0 285 0.001 
31688 3 0.0184144 -0.0429626 -0.0430314 0 0 0 -3.27532e-07 -7.63437e-13 -6.95967e-13 -2.54951e-18 0 0 0 0 0 0 0 0 0 0 0 0 0 0 0 0 0 0 803 0.001 
6267 5 0.00890821 -0.0424033 -0.0436449 0 0 0 3.80392e-07 -2.79628e-08 1.18568e-07 1.27297e-07 -1.80854e-08 7.48911e-09 0 0 0 0 0 0 0 0 0 0 0 0 0 0 0 0 876 0.001 
23083 9 0.0032782 -0.0404767 -0.0428204 0 0 0 0.161765 -1.33737 1.20539 -0.000974273 0.0317668 0.00901753 0 0 0 0 0 0 0 0 0 0 0 0 0 0 0 0 741 0.001 
20935 1 0.0048294 -0.0297634 -0.042764 0 0 0 0.392152 -3.08571 -0.107019 0 -2.0546e-05 0 0 0 0 0 0 0 0 0 0 0 0 0 0 0 0 0 896 0.001 
975 2 0.00789155 -0.0275577 -0.0389603 0 0 0 2.29221 -4.40512 7.08916 0 -2.0546e-05 0 0 0 0 0 0 0 0 0 0 0 0 0 0 0 0 0 1118 0.001 
40689 9 0.00394699 -0.0228453 -0.0423806 0 0 0 1.10224 -5.44238 2.45622 0 -2.0546e-05 0 0 0 0 0 0 0 0 0 0 0 0 0 0 0 0 0 66 0.001 
34046 4 0.00603094 -0.0437604 -0.0421562 0 0 0 -3.76105e-08 -9.19046e-13 -8.37821e-13 3.20061e-19 0 0 0 0 0 0 0 0 0 0 0 0 0 0 0 0 0 0 51 0.001 
4790 2 0.00836444 -0.0437003 -0.0422222 0 0 0 2.96481e-08 1.58595e-07 -2.04e-07 1.40264e-08 1.01758e-07 -1.03367e-07 0 0 0 0 0 0 0 0 0 0 0 0 0 0 0 0 544 0.001 
32923 1 0.0133602 -0.0437192 -0.0422014 0 0 0 3.49644e-07 3.23265e-07 -3.54476e-07 1.50743e-09 -1.91171e-08 2.09758e-08 0 0 0 1 0 0 0 0 0 0 0 0 0 0 0 0 325 0.001 
20568 5 0.00203806 -0.0412495 -0.0413439 0 0 0 0.637678 -1.15272 1.07503 0 -2.0546e-05 0 0 0 0 0 0 0 0 0 0 0 0 0 0 0 0 0 822 0.001 
20363 3 0.000999366 -0.0452137 -0.0405634 0 0 0 3.535e-18 7.57176e-18 6.0258e-18 0 0 0 0 0 0 0 0 0 0 0 0 0 0 0 0 0 0 0 16 0.001 
22463 3 0.00308797 -0.0450134 -0.0407817 0 0 0 1.20696e-07 -4.32039e-12 -3.93856e-12 -8.81534e-21 0 0 0 0 0 0 0 0 0 0 0 0 0 0 0 0 0 0 70 0.001 
5399 1 0.00917461 -0.0450098 -0.0407858 0 0 0 1.27819e-07 7.08536e-13 6.45914e-13 -1.27122e-18 0 0 0 0 0 0 0 0 0 0 0 0 0 0 0 0 0 0 709 0.001 
37010 1 0.0110778 -0.0457051 -0.040023 0 0 0 6.4951e-07 -2.28955e-13 -2.08719e-13 1.02542e-19 0 0 0 0 0 0 0 0 0 0 0 0 0 0 0 0 0 0 140 0.001 
27461 3 0.0171468 -0.0454132 -0.0403431 0 0 0 1.0045e-07 -6.54216e-13 -5.96399e-13 -2.92642e-20 0 0 0 0 0 0 0 0 0 0 0 0 0 0 0 0 0 0 426 0.001 
7451 3 0.00709329 -0.0449252 -0.0408785 0 0 0 2.43421e-08 -4.60333e-13 -4.19651e-13 3.23212e-19 0 0 0 0 0 0 0 0 0 0 0 0 0 0 0 0 0 0 574 0.001 
41000 5 0.00262731 -0.0432923 -0.0396962 0 0 0 0.194854 -0.52698 0.854732 0 -2.0546e-05 0 0 0 0 0 0 0 0 0 0 0 0 0 0 0 0 0 81 0.001 
1941 7 0.0117697 -0.0430577 -0.039816 0 0 0 0.919421 -1.43176 1.80199 0 -2.0546e-05 0 0 0 0 0 0 0 0 0 0 0 0 0 0 0 0 0 1090 0.001 
18007 3 0.00474349 -0.0415193 -0.0412392 0 0 0 -0.872751 -2.5817 -0.340303 0 -2.0546e-05 0 0 0 0 0 0 0 0 0 0 0 0 0 0 0 0 0 794 0.001 
33274 5 0.00343541 -0.0399482 -0.0394937 0 0 0 0.292832 -0.844259 2.14619 0 -2.0546e-05 0 0 0 0 0 0 0 0 0 0 0 0 0 0 0 0 0 437 0.001 
37719 2 0.00301724 -0.0361189 -0.0386491 0 0 0 0.86583 -0.68125 3.42231 0 -2.0546e-05 0 0 0 0 0 0 0 0 0 0 0 0 0 0 0 0 0 243 0.001 
41606 1 0.0122398 -0.0252323 -0.0408264 0 0 0 -0.227507 -2.73278 -0.467642 0 -2.0546e-05 0 0 0 0 0 0 0 0 0 0 0 0 0 0 0 0 0 65 0.001 
1857 3 0.0132855 -0.0599419 0.00989681 0 0 0 -6.28181e-07 1.16814e-12 -2.18363e-13 -2.61486e-20 0 0 0 0 0 0 0 0 0 0 0 0 0 0 0 0 0 0 435 0.001 
9373 5 0.00568903 -0.00543158 -0.0426376 0 0 0 -0.297183 -6.31959 -4.36575 0 -2.0546e-05 0 0 0 0 0 0 0 0 0 0 0 0 0 0 0 0 0 1064 0.001 
2640 9 0.00250752 -0.0466166 -0.0390231 0 0 0 9.82255e-08 2.94394e-12 2.68376e-12 1.29255e-18 0 0 0 0 0 0 0 0 0 0 0 0 0 0 0 0 0 0 623 0.001 
12343 5 0.00627388 -0.0467016 -0.0389299 0 0 0 1.58651e-08 1.94984e-09 -2.13651e-09 1.53122e-15 -1.0414e-14 -8.24102e-15 0 0 0 0 1 0 0 0 0 0 0 0 0 0 0 0 683 0.001 
10303 7 0.00823785 -0.0463734 -0.0392898 0 0 0 1.15807e-08 -2.74582e-13 -2.50314e-13 -1.61067e-19 0 0 0 0 0 0 0 0 0 0 0 0 0 0 0 0 0 0 830 0.001 
23793 2 0.00460315 -0.0459676 -0.039735 0 0 0 -1.58652e-08 -1.94983e-09 2.13642e-09 -1.50205e-15 8.35269e-15 6.37468e-15 0 0 0 0 1 0 0 0 0 0 0 0 0 0 0 0 225 0.001 
25958 7 0.0131641 -0.0459362 -0.0397695 0 0 0 8.20107e-07 -8.04936e-13 -7.33798e-13 -1.03135e-17 0 0 0 0 0 0 0 0 0 0 0 0 0 0 0 0 0 0 662 0.001 
43453 12 0.0019973 -0.0412849 -0.0389844 0 0 0 0.0563265 -0.976023 1.34762 0.000323854 0.000109575 -9.63797e-05 0 0 0 0 0 0 0 0 0 0 0 0 0 0 0 0 5 0.001 
27502 10 0.00595017 -0.0421476 -0.0391671 0 0 0 0.524543 -3.16736 0.186079 0 -2.0546e-05 0 0 0 0 0 0 0 0 0 0 0 0 0 0 0 0 0 520 0.001 
25375 2 0.00355113 -0.038131 -0.037962 0 0 0 0.215156 -2.64415 3.668 0 -2.0546e-05 0 0 0 0 0 0 0 0 0 0 0 0 0 0 0 0 0 581 0.001 
21417 2 0.00674844 -0.0389009 -0.0377787 0 0 0 1.59047 -1.17507 3.89938 0 -2.0546e-05 0 0 0 0 0 0 0 0 0 0 0 0 0 0 0 0 0 614 0.001 
15108 4 0.00321496 -0.0266395 -0.0323579 0 0 0 -2.32434 -12.9638 13.9188 0 -2.0546e-05 0 0 0 0 0 0 0 0 0 0 0 0 0 0 0 0 0 856 0.001 
2789 8 0.0109554 -0.0187083 -0.0393155 0 0 0 0.280329 -2.46529 0.697608 0 -2.0546e-05 0 0 0 0 0 0 0 0 0 0 0 0 0 0 0 0 0 1067 0.001 
11200 14 0.0102924 -0.047518 -0.0380344 0 0 0 -2.18608e-07 -1.18223e-12 -1.07775e-12 -8.84807e-21 0 0 0 0 0 0 0 0 0 0 0 0 0 0 0 0 0 0 808 0.001 
5976 14 0.00458096 -0.0474557 -0.0381027 0 0 0 -4.43629e-18 -4.30067e-18 -8.35934e-18 0 0 0 0 0 0 0 0 0 0 0 0 0 0 0 0 1 0 0 762 0.001 
23847 5 0.0175703 -0.0469405 -0.0386679 0 0 0 1.10016e-07 -9.45877e-13 -8.6228e-13 -4.45962e-21 0 0 0 0 0 0 0 0 0 0 0 0 0 0 0 0 0 0 43 0.001 
11862 4 0.00382807 -0.0457442 -0.0365197 0 0 0 -1.01858 -2.7797 3.61266 0 -2.0546e-05 0 0 0 0 0 0 0 0 0 0 0 0 0 0 0 0 0 947 0.001 
7403 2 0.0085365 -0.0459193 -0.0362864 0 0 0 0.0483573 -3.50578 4.65149 -0.0328495 -0.00510961 0.00402843 0 1 0 0 0 0 0 0 0 0 0 0 0 0 0 0 1258 0.001 
41831 2 0.0103864 -0.0438886 -0.0324289 0 0 0 -0.215288 -6.04733 12.3993 0 -2.0546e-05 0 0 0 0 0 0 0 0 0 0 0 0 0 0 0 0 0 72 0.001 
23146 4 0.00732873 -0.0309716 -0.0376211 0 0 0 -0.677412 -0.926521 1.91214 0 -2.0546e-05 0 0 0 0 0 0 0 0 0 0 0 0 0 0 0 0 0 649 0.001 
35778 2 0.00813054 -0.0198587 -0.0386129 0 0 0 0.408174 -2.20361 -0.178074 0 -2.0546e-05 0 0 0 0 0 0 0 0 0 0 0 0 0 0 0 0 0 282 0.001 
24097 8 0.00460469 -0.0488136 -0.0365434 0 0 0 7.11656e-18 3.71656e-17 1.80166e-17 0 0 0 0 0 0 0 0 0 0 1 0 0 0 0 0 0 0 0 58 0.001 
14800 6 0.000993925 -0.0485954 -0.0368551 0 0 0 -1.52779e-17 1.53482e-17 -5.61594e-18 -6.50521e-19 0 4.33681e-19 0 0 0 0 0 1 0 0 0 0 0 0 0 0 0 0 162 0.001 
21526 3 0.00288301 -0.0481653 -0.0373238 0 0 0 -2.46011e-17 -1.80578e-17 6.33926e-18 3.25261e-19 0 -4.33681e-19 0 0 0 0 0 1 0 1 0 0 0 0 0 1 0 0 111 0.001 
18520 9 0.00638176 -0.048063 -0.0374365 0 0 0 1.69504e-08 -3.47761e-12 -3.17026e-12 -1.62385e-19 0 0 0 0 0 0 0 0 0 0 0 0 0 0 0 0 0 0 440 0.001 
43040 4 0.00866406 -0.0485838 -0.0368644 0 0 0 -0.000844395 1.15051e-12 1.10133e-12 8.50782e-18 1.73472e-18 -1.95156e-18 0 0 0 0 0 0 0 0 0 0 0 0 0 0 0 0 7 0.001 
39185 1 0.00576211 -0.046331 -0.0360757 0 0 0 -0.217499 -2.23326 2.64307 0 -2.0546e-05 0 0 0 0 0 0 0 0 0 0 0 0 0 0 0 0 0 165 0.001 
37780 5 0.0104199 -0.0464718 -0.0362256 0 0 0 0.558131 -1.54772 1.75476 0.0328495 0.00506852 -0.00402843 0 1 0 0 0 0 0 0 0 0 0 0 0 0 0 0 123 0.001 
43189 6 0.00213492 -0.0413858 -0.0364176 0 0 0 0.0740825 -1.8012 1.67609 0 -2.0546e-05 0 0 0 0 0 0 0 0 0 0 0 0 0 0 0 0 0 5 0.001 
23011 1 0.0133981 -0.0421035 -0.0366539 0 0 0 0.844733 -4.71096 -0.385718 0 -2.0546e-05 0 0 0 0 0 0 0 0 0 0 0 0 0 0 0 0 0 556 0.001 
26321 3 0.0102078 -0.0493805 -0.0356279 0 0 0 4.8711e-07 -4.43579e-08 7.2002e-08 8.4597e-15 7.33962e-15 -6.31049e-15 0 0 1 0 0 0 0 0 0 0 0 0 0 0 0 0 70 0.001 
24414 8 0.0126649 -0.0494581 -0.0355024 0 0 0 -6.2184e-08 3.85872e-13 2.38921e-13 1.68987e-22 0 0 0 0 0 0 0 0 0 0 0 0 0 0 0 0 0 0 616 0.001 