ITEM: TIMESTEP
16600000
ITEM: NUMBER OF ATOMS
487
ITEM: BOX BOUNDS ff ff ff
-0.01 0.45
-0.15 0.15
-0.08 0.1
ITEM: ATOMS id type x y z ix iy iz vx vy vz fx fy fz c_cc_1 c_cc_2 c_cc_3 c_cc_4 c_cc_5 c_cc_6 c_cc_7 c_cc_8 c_cc_9 c_cc_10 c_cc_11 c_cc_12 c_cc_13 c_cc_14 c_cc_15 c_cc_16 f_fppacc radius 
8181 9 0.0260085 -0.0147966 -0.0537147 0 0 0 -1.14454 -5.53038 1.63129 0 -8.0262e-05 0 0 0 0 0 0 0 0 0 0 0 0 0 0 0 0 0 0 0.004 
8170 14 0.00787717 -0.0327576 -0.0450673 0 0 0 0.517528 -3.56369 2.7827 0 -8.0262e-05 0 0 0 0 0 0 0 0 0 0 0 0 0 0 0 0 0 0 0.004 
8095 16 0.0994193 -0.0315154 -0.0461745 0 0 0 0.740823 -11.7111 6.77812 0 -8.0262e-05 0 0 0 0 0 0 0 0 0 0 0 0 0 0 0 0 0 2 0.004 
8271 2 0.0922996 -0.0403636 -0.0385708 0 0 0 -1.50278 -8.19974 9.6164 0 -8.0262e-05 0 0 0 0 0 0 0 0 0 0 0 0 0 0 0 0 0 0 0.004 
8233 7 0.0343815 -0.0419724 -0.036598 0 0 0 3.36141 -4.16864 4.72218 0 -8.0262e-05 0 0 0 0 0 0 0 0 0 0 0 0 0 0 0 0 0 0 0.004 
8264 11 0.0151329 -0.0453481 -0.0326899 0 0 0 -0.0025584 -2.53362 4.46501 2.22657e-05 0.0189289 0.0117009 0 0 0 0 0 0 0 0 0 0 0 0 0 0 0 0 0 0.004 
8072 6 0.0908241 -0.0484088 -0.0273662 0 0 0 5.91907 -3.69492 12.6912 -1.0782 1.81679 -0.555358 0 0 0 0 0 1 0 0 0 0 0 0 0 0 0 0 1 0.004 
7932 3 0.0958979 -0.0508306 -0.0218624 0 0 0 -0.92469 0.441973 8.30109 0.949962 -1.59864 0.410184 0 0 1 0 0 1 0 0 0 0 0 0 0 0 0 0 2 0.004 
8232 7 0.0999224 -0.0537497 -0.0157608 0 0 0 -1.33869 -0.781918 8.90749 0.0882468 -0.0667918 0.17737 0 0 1 0 0 0 0 0 0 0 0 0 0 0 0 0 1 0.004 
8217 3 0.0713249 -0.0548206 -0.00223302 0 0 0 6.29405 7.3701 16.8011 0 -8.0262e-05 0 0 0 0 0 0 0 0 0 0 0 0 0 0 0 0 0 1 0.004 
8203 6 0.00532929 -0.0522893 0.0102859 0 0 0 0.0371154 0.100978 1.66167 0 -8.0262e-05 0 0 0 0 0 0 0 0 0 0 0 0 0 0 0 0 0 0 0.004 
8237 6 0.00502765 -0.0525267 0.0186134 0 0 0 -0.00615084 0.639903 1.60342 0 -8.0262e-05 0 0 0 0 0 0 0 0 0 0 0 0 0 0 0 0 0 0 0.004 
8165 14 0.102727 -0.0398624 0.020982 0 0 0 -3.13646 2.44756 10.8244 0 -8.0262e-05 0 0 0 0 0 0 0 0 0 0 0 0 0 0 0 0 0 1 0.004 
8080 15 0.0998511 -0.0507835 0.0231849 0 0 0 -0.559543 4.50762 8.60913 0 -8.0262e-05 0 0 0 0 0 0 0 0 0 0 0 0 0 0 0 0 0 1 0.004 
8067 7 0.103555 -0.0445067 0.0282013 0 0 0 -2.70157 3.7241 11.6301 0 -8.0262e-05 0 0 0 0 0 0 0 0 0 0 0 0 0 0 0 0 0 0 0.004 
7574 11 0.10258 -0.0427233 0.036058 0 0 0 6.48178 9.97466 13.3301 -0.000427702 -0.00151951 0.00269692 0 0 0 0 0 0 0 0 0 0 0 0 0 0 0 0 2 0.004 
8286 4 0.0969641 -0.0369134 0.0418175 0 0 0 5.62893 13.428 12.4819 0 -8.0262e-05 0 0 0 0 0 0 0 0 0 0 0 0 0 0 0 0 0 0 0.004 
8073 7 0.0550771 -0.03743 0.0414604 0 0 0 2.59895 9.02532 9.55428 0 -8.0262e-05 0 0 0 0 0 0 0 0 0 0 0 0 0 0 0 0 0 0 0.004 
8098 6 0.0919066 -0.0187535 0.0519599 0 0 0 11.1673 17.2897 11.279 0 -8.0262e-05 0 0 0 0 0 0 0 0 0 0 0 0 0 0 0 0 0 2 0.004 
8166 8 0.0866009 -0.0126405 0.0543001 0 0 0 6.13225 18.5967 4.51029 0 -8.0262e-05 0 0 0 0 0 0 0 0 0 0 0 0 0 0 0 0 0 2 0.004 
8133 9 0.00745803 -0.00600688 0.0548256 0 0 0 0.864745 1.12594 -0.129852 0 -8.0262e-05 0 0 0 0 0 0 0 0 0 0 0 0 0 0 0 0 0 0 0.004 
7211 5 0.0385862 -0.0705742 0.0928023 0 0 0 0.0444428 -1.91462 0.299589 0 -8.0262e-05 0 0 0 0 0 0 0 0 0 0 0 0 0 0 0 0 0 0 0.004 
8278 8 0.0214955 -0.00142537 0.0554768 0 0 0 3.90432 5.01861 0.843564 0 -8.0262e-05 0 0 0 0 0 0 0 0 0 0 0 0 0 0 0 0 0 0 0.004 
8041 5 0.00155354 0.11331 -0.0649315 0 0 0 -0.0787882 -0.572201 -0.388505 0 -8.0262e-05 0 0 0 0 0 0 0 0 0 0 0 0 0 0 0 0 0 0 0.004 
8272 3 0.00524391 0.00260405 -0.0550609 0 0 0 0.064978 -2.30061 -0.0919735 0 -8.0262e-05 0 0 0 0 0 0 0 0 0 0 0 0 0 0 0 0 0 0 0.004 
8193 10 0.0268043 0.00699553 -0.0553184 0 0 0 4.18504 -4.04834 -0.309557 0 -8.0262e-05 0 0 0 0 0 0 0 0 0 0 0 0 0 0 0 0 0 1 0.004 
8297 5 0.0602493 0.00661341 -0.0554329 0 0 0 7.90457 -19.5643 -2.81209 0.0999387 -0.069493 0.0677042 0 0 0 0 0 0 0 0 0 0 0 0 0 0 0 0 0 0.004 
8225 16 0.0608982 0.145078 -0.054265 0 0 0 0.287057 0.0183412 -0.29303 0 -8.0262e-05 0 0 0 0 0 0 0 0 0 0 0 0 0 0 0 0 0 0 0.004 
8281 2 0.0152469 0.00533427 -0.0465505 0 0 0 1.75739 -2.74306 0.643783 0 -8.0262e-05 0 0 0 0 0 0 0 0 0 0 0 0 0 0 0 0 0 0 0.004 
8221 2 0.104421 0.0200982 -0.0520751 0 0 0 -0.411748 -18.0921 -5.89562 0.000179183 0.0163445 -0.0554306 0 0 0 0 0 0 0 0 0 0 0 0 0 0 0 0 0 0.004 
8231 1 0.0826179 0.0309808 -0.0459016 0 0 0 -4.62995 -7.34547 -4.90944 0 -8.0262e-05 0 0 0 0 0 0 0 0 0 0 0 0 0 0 0 0 0 0 0.004 
8276 3 0.012356 0.0253351 -0.0352582 0 0 0 -0.335069 -0.732018 -4.36762 0 -8.0262e-05 0 0 0 0 0 0 0 0 0 0 0 0 0 0 0 0 0 0 0.004 
8293 9 0.0216772 0.0299076 -0.0317975 0 0 0 0 -1.0981 -0.0001 0 -8.0262e-05 0 0 0 0 0 0 0 0 0 0 0 0 0 0 0 0 0 0 0.004 
8294 11 0.0283083 0.0468589 -0.0304662 0 0 0 0 -1.0981 -0.0001 0 -8.0262e-05 0 0 0 0 0 0 0 0 0 0 0 0 0 0 0 0 0 0 0.004 
8296 3 0.0346083 0.0574792 -0.0303741 0 0 0 0 -1.04905 -0.0001 0 -8.0262e-05 0 0 0 0 0 0 0 0 0 0 0 0 0 0 0 0 0 0 0.004 
7859 11 0.0122824 0.0633145 -0.0309685 0 0 0 0.0703692 -0.185533 0.00241467 0 -8.0262e-05 0 0 0 0 0 0 0 0 0 0 0 0 0 0 0 0 0 1 0.004 
8295 12 0.0428738 0.0636869 -0.0309459 0 0 0 0.0418604 -0.627892 0.0203409 0 -8.0262e-05 0 0 0 0 0 0 0 0 0 0 0 0 0 0 0 0 0 0 0.004 
8292 9 0.0285375 0.0653594 -0.0305688 0 0 0 -0.480762 -1.57607 -0.0986598 0 -8.0262e-05 0 0 0 0 0 0 0 0 0 0 0 0 0 0 0 0 0 0 0.004 
8198 11 0.0120009 0.0734316 -0.0307513 0 0 0 0.202344 0.116325 0.0649444 0 -8.0262e-05 0 0 0 0 0 0 0 0 0 0 0 0 0 0 0 0 0 0 0.004 
8300 14 0.0453877 0.07599 -0.0300805 0 0 0 0 -1.04905 -0.0001 0 -8.0262e-05 0 0 0 0 0 0 0 0 0 0 0 0 0 0 0 0 0 0 0.004 
8258 10 0.0151141 0.0830569 -0.0309792 0 0 0 0.0221162 0.140587 0.00511523 0 -8.0262e-05 0 0 0 0 0 0 0 0 0 0 0 0 0 0 0 0 0 0 0.004 
8280 15 0.0232898 0.0849088 -0.0295602 0 0 0 0.0564744 -0.178061 0.105003 0 -8.0262e-05 0 0 0 0 0 0 0 0 0 0 0 0 0 0 0 0 0 0 0.004 
8298 11 0.0441956 0.0857929 -0.0305768 0 0 0 0 -1.04905 -0.0001 0 -8.0262e-05 0 0 0 0 0 0 0 0 0 0 0 0 0 0 0 0 0 0 0.004 
8269 11 0.0108978 0.0937925 -0.0308485 0 0 0 -0.0611313 0.165991 -0.0290443 0 -8.0262e-05 0 0 0 0 0 0 0 0 0 0 0 0 0 0 0 0 0 0 0.004 
8266 6 0.0188482 0.0947739 -0.030984 0 0 0 -0.0751723 0.412594 0.0165663 0 -8.0262e-05 0 0 0 0 0 0 0 0 0 0 0 0 0 0 0 0 0 1 0.004 
8060 16 0.00501232 0.10022 -0.0297573 0 0 0 0.0211132 0.857477 -1.00322 0 -8.0262e-05 0 0 0 0 0 0 0 0 0 0 0 0 0 0 0 0 0 2 0.004 
8034 10 0.0124477 0.106659 -0.029465 0 0 0 0.12522 -0.303277 0.0266322 0 -8.0262e-05 0 0 0 0 0 0 0 0 0 0 0 0 0 0 0 0 0 0 0.004 
8273 4 0.028313 0.105549 -0.0307779 0 0 0 -0.444514 0.547856 0.0182832 0 -8.0262e-05 0 0 0 0 0 0 0 0 0 0 0 0 0 0 0 0 0 0 0.004 
8235 12 0.0410839 0.109328 -0.030944 0 0 0 0.228621 1.79215 0.170485 0 -8.0262e-05 0 0 0 0 0 0 0 0 0 0 0 0 0 0 0 0 0 0 0.004 
8241 8 0.0214336 0.117299 -0.0308871 0 0 0 -0.63239 0.891486 0.00813872 0 -8.0262e-05 0 0 0 0 0 0 0 0 0 0 0 0 0 0 0 0 0 1 0.004 
8230 16 0.0351737 0.139574 -0.0322252 0 0 0 0.0627067 2.41549 -1.14586 0 -8.0262e-05 0 0 0 0 0 0 0 0 0 0 0 0 0 0 0 0 0 0 0.004 
8260 11 0.00934263 0.0376156 -0.0281075 0 0 0 -0.000683877 -1.9246 0.387591 0 -8.0262e-05 0 0 0 0 0 0 0 0 0 0 0 0 0 0 0 0 0 0 0.004 
8299 12 0.039932 0.0518949 -0.0270703 0 0 0 0 -0.761597 0.802046 0 -8.0262e-05 0 0 0 0 0 0 0 0 0 0 0 0 0 0 0 0 0 0 0.004 
7983 8 0.00606193 0.059286 -0.0265201 0 0 0 0.0768957 -0.40852 -0.0242499 0 -8.0262e-05 0 0 0 0 0 0 0 0 0 0 0 0 0 0 0 0 0 0 0.004 
8284 9 0.0468841 0.0588912 -0.0250125 0 0 0 0.0704698 -0.319434 0.386628 0 -8.0262e-05 0 0 0 0 0 0 0 0 0 0 0 0 0 0 0 0 0 0 0.004 
8267 8 0.0365567 0.0663729 -0.0243782 0 0 0 -0.515613 -1.71711 1.33127 0 -8.0262e-05 0 0 0 0 0 0 0 0 0 0 0 0 0 0 0 0 0 0 0.004 
8192 8 0.00511081 0.0751594 -0.0262227 0 0 0 0.03568 0.124095 0.0101007 0 -8.0262e-05 0 0 0 0 0 0 0 0 0 0 0 0 0 0 0 0 0 1 0.004 
8194 11 0.00507995 0.0878325 -0.0269403 0 0 0 0.0144581 0.0483314 -0.377481 0 -8.0262e-05 0 0 0 0 0 0 0 0 0 0 0 0 0 0 0 0 0 0 0.004 
8097 6 0.0162533 0.0893524 -0.024632 0 0 0 0.206947 0.199392 0.355674 0 -8.0262e-05 0 0 0 0 0 0 0 0 0 0 0 0 0 0 0 0 0 0 0.004 
8256 6 0.0257678 0.0960414 -0.0270731 0 0 0 -0.269282 0.529474 0.455463 0 -8.0262e-05 0 0 0 0 0 0 0 0 0 0 0 0 0 0 0 0 0 0 0.004 
7999 8 0.0469961 0.105361 -0.0272837 0 0 0 -0.0364031 0.912804 -0.25628 0 -8.0262e-05 0 0 0 0 0 0 0 0 0 0 0 0 0 0 0 0 0 1 0.004 
8277 7 0.0191238 0.0719144 -0.0231748 0 0 0 1.07872 0.404847 -1.43143 0 -8.0262e-05 0 0 0 0 0 0 0 0 0 0 0 0 0 0 0 0 0 0 0.004 
8291 6 0.0467712 0.0955105 -0.0230955 0 0 0 -0.222801 5.38782 -5.97049 0 -8.0262e-05 0 0 0 0 0 0 0 0 0 0 0 0 0 0 0 0 0 0 0.004 
8210 10 0.0109768 0.0986202 -0.0244028 0 0 0 0.17043 1.66026 -0.899679 0 -8.0262e-05 0 0 0 0 0 0 0 0 0 0 0 0 0 0 0 0 0 0 0.004 
8282 3 0.0420456 0.116372 -0.0224441 0 0 0 0.968944 3.13166 -0.702194 0 -8.0262e-05 0 0 0 0 0 0 0 0 0 0 0 0 0 0 0 0 0 0 0.004 
8228 5 0.0324706 0.12632 -0.022698 0 0 0 -0.561192 2.19779 0.204547 0 -8.0262e-05 0 0 0 0 0 0 0 0 0 0 0 0 0 0 0 0 0 0 0.004 
8270 14 0.00742956 0.0501192 -0.0161938 0 0 0 -0.265326 -1.36304 0.34221 0 -8.0262e-05 0 0 0 0 0 0 0 0 0 0 0 0 0 0 0 0 0 0 0.004 
8215 12 0.00500877 0.0758376 -0.0180398 0 0 0 0.000506638 0.811194 0.110469 0 -8.0262e-05 0 0 0 0 0 0 0 0 0 0 0 0 0 0 0 0 0 4 0.004 
8275 12 0.0156883 0.0781652 -0.0162306 0 0 0 1.49489 1.02922 -1.0216 0 -8.0262e-05 0 0 0 0 0 0 0 0 0 0 0 0 0 0 0 0 0 0 0.004 
8200 13 0.005127 0.0984709 -0.0188712 0 0 0 0.00412405 2.39361 -0.907796 0 -8.0262e-05 0 0 0 0 0 0 0 0 0 0 0 0 0 0 0 0 0 0 0.004 
8290 10 0.0185964 0.0994282 -0.0182782 0 0 0 -0.00120933 -0.543945 0.699987 0 -8.0262e-05 0 0 0 0 0 0 0 0 0 0 0 0 0 0 0 0 0 0 0.004 
8024 8 -0.0045304 0.113781 -0.0194455 0 0 0 -0.171357 -0.333088 0.0331879 0 -8.0262e-05 0 0 0 0 0 0 0 0 0 0 0 0 0 0 0 0 0 0 0.004 
8208 7 0.0415295 0.0984631 -0.0163065 0 0 0 -1.7855 8.7117 -6.31961 0 -8.0262e-05 0 0 0 0 0 0 0 0 0 0 0 0 0 0 0 0 0 0 0.004 
8285 12 0.0197047 0.113656 -0.0121146 0 0 0 -0.59652 0.223946 0.978581 0 -8.0262e-05 0 0 0 0 0 0 0 0 0 0 0 0 0 0 0 0 0 0 0.004 
8150 14 -0.00796968 0.131112 -0.0114022 0 0 0 -0.21461 -0.153441 0.0610174 0 -8.0262e-05 0 0 0 0 0 0 0 0 0 0 0 0 0 0 0 0 0 1 0.004 
8216 2 0.100845 0.0538328 -0.0145913 0 0 0 0.10252 -1.6977 -7.29913 0 -8.0262e-05 0 0 0 0 0 0 0 0 0 0 0 0 0 0 0 0 0 1 0.004 
8257 9 0.0121125 0.0898123 -0.0107611 0 0 0 -0.46357 1.45789 -0.562658 0.00654499 -0.0520668 -0.0177693 0 0 0 0 0 0 0 0 1 0 0 0 0 0 0 0 1 0.004 
8173 9 0.00957654 0.104708 -0.00893067 0 0 0 -0.568504 0.57742 0.307209 0.0354642 0.0152656 -0.0608653 0 0 0 0 0 0 0 0 1 0 0 0 0 0 0 0 1 0.004 
8086 5 0.00754224 0.113994 -0.00722732 0 0 0 0.0431559 1.02953 0.158683 0 -8.0262e-05 0 0 0 0 0 0 0 0 0 0 0 0 0 0 0 0 0 1 0.004 
8239 8 0.0251437 0.0642571 -0.00304453 0 0 0 0.53047 -0.0243078 0.65729 0 -8.0262e-05 0 0 0 0 0 0 0 0 0 0 0 0 0 0 0 0 0 0 0.004 
7760 15 0.0118147 0.0967119 -0.00681623 0 0 0 -0.217693 0.907759 0.885754 -0.00654499 0.0519063 0.0177693 0 0 0 0 0 0 0 0 1 0 0 0 0 0 0 0 2 0.004 
8006 3 0.0463578 0.098431 -0.00498746 0 0 0 0.591917 1.54169 1.92665 0 -8.0262e-05 0 0 0 0 0 0 0 0 0 0 0 0 0 0 0 0 0 1 0.004 
6791 3 0.00545081 0.10094 -0.00323605 0 0 0 -0.0919592 0.677309 0.0493619 -0.0354642 -0.0154261 0.0608653 0 0 0 0 0 0 0 0 1 0 0 0 0 0 0 0 5 0.004 
8132 8 -0.00495597 0.126721 -0.00481407 0 0 0 -0.208851 -0.119686 0.101744 0 -8.0262e-05 0 0 0 0 0 0 0 0 0 0 0 0 0 0 0 0 0 0 0.004 
8149 10 0.00832411 0.135915 -0.00311815 0 0 0 0.0110864 0.190316 -0.0464881 0 -8.0262e-05 0 0 0 0 0 0 0 0 0 0 0 0 0 0 0 0 0 0 0.004 
8265 12 0.00609022 0.0466417 -0.0019532 0 0 0 -0.849933 -1.10592 0.0810532 0 -8.0262e-05 0 0 0 0 0 0 0 0 0 0 0 0 0 0 0 0 0 0 0.004 
8242 9 0.0262687 0.105679 -0.00252263 0 0 0 0.524971 0.894831 0.168634 0 -8.0262e-05 0 0 0 0 0 0 0 0 0 0 0 0 0 0 0 0 0 0 0.004 
8238 7 0.00549523 0.0815329 0.00537793 0 0 0 0.0557543 1.01178 -0.338408 0 -8.0262e-05 0 0 0 0 0 0 0 0 0 0 0 0 0 0 0 0 0 0 0.004 
8247 8 0.0491676 0.118339 0.00337734 0 0 0 0.716616 0.774634 0.122911 0 -8.0262e-05 0 0 0 0 0 0 0 0 0 0 0 0 0 0 0 0 0 0 0.004 
8129 7 0.058963 0.140316 0.00514345 0 0 0 0.247303 -0.170732 0.533984 0 -8.0262e-05 0 0 0 0 0 0 0 0 0 0 0 0 0 0 0 0 0 0 0.004 
8128 6 0.0123619 0.0846271 0.00919708 0 0 0 0.259407 0.416334 -0.102382 0 -8.0262e-05 0 0 0 0 0 0 0 0 0 0 0 0 0 0 0 0 0 0 0.004 
8240 9 0.0340092 0.11017 0.00980567 0 0 0 -0.0108226 0.388775 0.609911 0 -8.0262e-05 0 0 0 0 0 0 0 0 0 0 0 0 0 0 0 0 0 0 0.004 
7851 8 0.0736188 0.0550473 0.0085062 0 0 0 1.6251 1.73543 -10.2532 0 -8.0262e-05 0 0 0 0 0 0 0 0 0 0 0 0 0 0 0 0 0 0 0.004 
7695 11 0.00503601 0.07402 0.0116215 0 0 0 0.0206113 0.625007 -0.472827 0 -8.0262e-05 0 0 0 0 0 0 0 0 0 0 0 0 0 0 0 0 0 1 0.004 
8136 3 0.0130867 0.0771081 0.0119493 0 0 0 0.266968 0.403908 -0.119843 0 -8.0262e-05 0 0 0 0 0 0 0 0 0 0 0 0 0 0 0 0 0 1 0.004 
8109 11 0.00596823 0.125439 0.0108734 0 0 0 0.0142207 0.107812 0.132559 0 -8.0262e-05 0 0 0 0 0 0 0 0 0 0 0 0 0 0 0 0 0 0 0.004 
7982 5 0.00674515 0.137427 0.0107956 0 0 0 -0.366658 0.370422 0.437739 0 -8.0262e-05 0 0 0 0 0 0 0 0 0 0 0 0 0 0 0 0 0 0 0.004 
8249 12 0.0479482 0.148708 0.0115073 0 0 0 0.303154 2.43745 -0.14308 0 -8.0262e-05 0 0 0 0 0 0 0 0 0 0 0 0 0 0 0 0 0 0 0.004 
8035 13 0.0289205 0.0662091 0.0152004 0 0 0 0.8137 -0.136637 -0.578302 0 -8.0262e-05 0 0 0 0 0 0 0 0 0 0 0 0 0 0 0 0 0 0 0.004 
7969 8 0.0400378 0.0694876 0.0176543 0 0 0 0.661921 0.338519 -0.81401 -0.0368855 -0.0243378 -0.0140909 0 0 0 0 0 0 0 1 0 0 0 0 0 0 0 0 2 0.004 
8055 11 0.0197145 0.0769388 0.0169999 0 0 0 0.533061 0.364583 -0.704819 0 -8.0262e-05 0 0 0 0 0 0 0 0 0 0 0 0 0 0 0 0 0 0 0.004 
7973 8 0.0151069 0.0867088 0.0166796 0 0 0 0.0385457 0.876299 -0.00962733 0 -8.0262e-05 0 0 0 0 0 0 0 0 0 0 0 0 0 0 0 0 0 1 0.004 
8262 6 0.0364195 0.0921284 0.016618 0 0 0 0.287731 0.226359 -0.397825 0 -8.0262e-05 0 0 0 0 0 0 0 0 0 0 0 0 0 0 0 0 0 0 0.004 
8255 11 0.0434939 0.102936 0.0163581 0 0 0 -0.14351 1.72821 1.6876 0 -8.0262e-05 0 0 0 0 0 0 0 0 0 0 0 0 0 0 0 0 0 0 0.004 
8056 1 0.0085428 0.104873 0.0187455 0 0 0 0.277962 -0.206286 0.862826 0 -8.0262e-05 0 0 0 0 0 0 0 0 0 0 0 0 0 0 0 0 0 1 0.004 
8005 9 0.00211446 0.136371 0.0173786 0 0 0 -0.260252 -0.0899232 0.543939 0 -8.0262e-05 0 0 0 0 0 0 0 0 0 0 0 0 0 0 0 0 0 1 0.004 
7891 4 0.0231364 0.064295 0.0204805 0 0 0 0.788142 0.205633 -0.261405 0 -8.0262e-05 0 0 0 0 0 0 0 0 0 0 0 0 0 0 0 0 0 1 0.004 
7913 3 0.00592334 0.0741576 0.0205188 0 0 0 0.17579 0.130806 -0.244654 0 -8.0262e-05 0 0 0 0 0 0 0 0 0 0 0 0 0 0 0 0 0 2 0.004 
8054 11 0.0466981 0.0732594 0.0198393 0 0 0 0.861921 -0.092754 -0.0886825 0.0368855 0.0241772 0.0140909 0 0 0 0 0 0 0 1 0 0 0 0 0 0 0 0 2 0.004 
8094 12 0.00505197 0.0823233 0.019871 0 0 0 0.012912 0.194451 -0.0680429 0 -8.0262e-05 0 0 0 0 0 0 0 0 0 0 0 0 0 0 0 0 0 0 0.004 
8246 1 0.0464195 0.0822425 0.0198725 0 0 0 -0.0104447 -0.264103 -0.0751855 0 -8.0262e-05 0 0 0 0 0 0 0 0 0 0 0 0 0 0 0 0 0 0 0.004 
8185 15 0.00500199 0.0915591 0.0189964 0 0 0 0.00032084 0.282443 0.348535 0 -8.0262e-05 0 0 0 0 0 0 0 0 0 0 0 0 0 0 0 0 0 0 0.004 
8190 9 0.0178575 0.09415 0.0217852 0 0 0 0.287101 0.39369 0.492231 0 -8.0262e-05 0 0 0 0 0 0 0 0 0 0 0 0 0 0 0 0 0 0 0.004 
7831 3 0.00581646 0.115579 0.020795 0 0 0 -0.0941221 0.23283 0.580745 0 -8.0262e-05 0 0 0 0 0 0 0 0 0 0 0 0 0 0 0 0 0 1 0.004 
8019 10 0.011719 0.124005 0.0213605 0 0 0 -0.404449 0.0997161 1.22317 0 -8.0262e-05 0 0 0 0 0 0 0 0 0 0 0 0 0 0 0 0 0 0 0.004 
8105 16 0.0789125 0.134563 0.0194805 0 0 0 0.445553 -0.178488 0.218217 0 -8.0262e-05 0 0 0 0 0 0 0 0 0 0 0 0 0 0 0 0 0 0 0.004 
8287 6 0.0397142 0.143619 0.020328 0 0 0 -0.336351 3.14363 2.83924 0 -8.0262e-05 0 0 0 0 0 0 0 0 0 0 0 0 0 0 0 0 0 0 0.004 
8092 3 0.050482 0.0527878 0.0177334 0 0 0 3.43939 5.52207 -18.3459 0 -8.0262e-05 0 0 0 0 0 0 0 0 0 0 0 0 0 0 0 0 0 0 0.004 
8251 1 0.0843021 0.0521817 0.0201484 0 0 0 -2.87795 6.0509 -12.9457 0.255148 -0.352789 -0.134488 0 0 0 0 0 0 0 0 0 0 0 0 0 0 0 0 0 0.004 
8244 15 0.0185135 0.0869278 0.025176 0 0 0 0.133103 0.171021 0.116959 0 -8.0262e-05 0 0 0 0 0 0 0 0 0 0 0 0 0 0 0 0 0 0 0.004 
8164 12 0.00505548 0.0970377 0.0254445 0 0 0 0.0358943 -0.148038 0.474333 0 -8.0262e-05 0 0 0 0 0 0 0 0 0 0 0 0 0 0 0 0 0 0 0.004 
8183 12 0.0429054 0.0573095 0.0290429 0 0 0 0.154841 -0.768796 -0.340108 0 -8.0262e-05 0 0 0 0 0 0 0 0 0 0 0 0 0 0 0 0 0 0 0.004 
7802 8 0.0050684 0.0644868 0.0305443 0 0 0 0.0117147 -0.034816 -0.0498415 0 -8.0262e-05 0 0 0 0 0 0 0 0 0 0 0 0 0 0 0 0 0 1 0.004 
7951 2 0.0279089 0.0683198 0.0299017 0 0 0 0.870539 0.110778 -0.141623 0 -8.0262e-05 0 0 0 0 0 0 0 0 0 0 0 0 0 0 0 0 0 1 0.004 
7985 13 0.0241779 0.0766001 0.0298445 0 0 0 -0.0617824 0.023406 0.0809558 0 -8.0262e-05 0 0 0 0 0 0 0 0 0 0 0 0 0 0 0 0 0 0 0.004 
8289 10 0.0350098 0.0735651 0.0301146 0 0 0 -0.296534 -0.044863 -0.0532064 0 -8.0262e-05 0 0 0 0 0 0 0 0 0 0 0 0 0 0 0 0 0 0 0.004 
8143 13 0.00528709 0.079299 0.0308321 0 0 0 -0.103981 -0.304936 -0.00912916 0 -8.0262e-05 0 0 0 0 0 0 0 0 0 0 0 0 0 0 0 0 0 0 0.004 
7924 11 0.0312633 0.0806481 0.0299672 0 0 0 0.00254102 0.0980465 0.0722673 0 -8.0262e-05 0 0 0 0 0 0 0 0 0 0 0 0 0 0 0 0 0 0 0.004 
8254 10 0.0462067 0.0780501 0.0298818 0 0 0 0.189468 -0.13876 -0.0728799 0 -8.0262e-05 0 0 0 0 0 0 0 0 0 0 0 0 0 0 0 0 0 0 0.004 
8226 2 0.0139431 0.0836877 0.0309844 0 0 0 -0.0785318 0.0630069 -0.0128329 0 -8.0262e-05 0 0 0 0 0 0 0 0 0 0 0 0 0 0 0 0 0 2 0.004 
8146 8 0.0252732 0.0859236 0.029346 0 0 0 0.331169 0.507969 -0.0617526 0 -8.0262e-05 0 0 0 0 0 0 0 0 0 0 0 0 0 0 0 0 0 0 0.004 
8075 10 0.00500002 0.087293 0.0306614 0 0 0 0.00256553 -0.294144 -0.0791247 0 -8.0262e-05 0 0 0 0 0 0 0 0 0 0 0 0 0 0 0 0 0 0 0.004 
8084 14 0.046968 0.0860838 0.030923 0 0 0 -0.00602383 -0.0886511 -0.00026875 0 -8.0262e-05 0 0 0 0 0 0 0 0 0 0 0 0 0 0 0 0 0 1 0.004 
8043 7 0.00500605 0.10298 0.0309062 0 0 0 -0.0423626 0.273183 0.151365 0 -8.0262e-05 0 0 0 0 0 0 0 0 0 0 0 0 0 0 0 0 0 0 0.004 
8259 11 0.0313508 0.100794 0.0294273 0 0 0 -0.0477304 0.138246 -0.173724 0 -8.0262e-05 0 0 0 0 0 0 0 0 0 0 0 0 0 0 0 0 0 0 0.004 
8196 4 0.0460093 0.101926 0.0299958 0 0 0 0.651258 0.378403 -0.238779 0 -8.0262e-05 0 0 0 0 0 0 0 0 0 0 0 0 0 0 0 0 0 0 0.004 
8283 4 0.016575 0.103821 0.0291784 0 0 0 0.218187 -0.132195 -0.12772 0 -8.0262e-05 0 0 0 0 0 0 0 0 0 0 0 0 0 0 0 0 0 0 0.004 
8116 4 0.0223041 0.109686 0.02871 0 0 0 0.151421 0.0263592 -0.0729484 0 -8.0262e-05 0 0 0 0 0 0 0 0 0 0 0 0 0 0 0 0 0 2 0.004 
7669 11 0.0420646 0.121288 0.0300135 0 0 0 0.500028 0.398705 -0.0354484 0 -8.0262e-05 0 0 0 0 0 0 0 0 0 0 0 0 0 0 0 0 0 3 0.004 
8112 7 0.054695 0.0497855 0.0254374 0 0 0 3.35627 8.01128 -13.4766 0 -8.0262e-05 0 0 0 0 0 0 0 0 0 0 0 0 0 0 0 0 0 1 0.004 
7687 7 0.061747 0.0461829 0.0279211 0 0 0 3.3358 6.04233 -13.5794 0 -8.0262e-05 0 0 0 0 0 0 0 0 0 0 0 0 0 0 0 0 0 3 0.004 
8135 12 0.019814 0.141535 0.032128 0 0 0 -0.168802 -0.193578 0.467496 0 -8.0262e-05 0 0 0 0 0 0 0 0 0 0 0 0 0 0 0 0 0 1 0.004 
7728 10 0.0713465 0.0435421 0.0348263 0 0 0 -3.77762 8.59364 -9.75723 0 -8.0262e-05 0 0 0 0 0 0 0 0 0 0 0 0 0 0 0 0 0 4 0.004 
7998 7 0.00600717 0.0395904 0.0393202 0 0 0 1.34618 7.5559 -8.63451 0.00146501 0.0204507 0.0175598 0 0 0 0 0 0 0 0 0 0 0 0 0 0 0 0 0 0.004 
8288 6 0.0622624 0.0400313 0.0388237 0 0 0 1.56274 13.1712 -14.945 0 -8.0262e-05 0 0 0 0 0 0 0 0 0 0 0 0 0 0 0 0 0 0 0.004 
7877 8 0.0198841 0.145031 0.0468088 0 0 0 -0.248759 0.0444596 0.65564 0 -8.0262e-05 0 0 0 0 0 0 0 0 0 0 0 0 0 0 0 0 0 0 0.004 
8197 8 0.0770059 0.00815076 0.0552042 0 0 0 0.485319 9.35626 -0.941959 0 -8.0262e-05 0 0 0 0 0 0 0 0 0 0 0 0 0 0 0 0 0 0 0.004 
7813 10 0.0984001 0.0068575 0.0553263 0 0 0 -3.81828 6.06235 -0.61094 0 -8.0262e-05 0 0 0 0 0 0 0 0 0 0 0 0 0 0 0 0 0 1 0.004 
8180 16 0.0286727 0.117413 0.0542688 0 0 0 0.123999 -0.212948 0.41483 0 -8.0262e-05 0 0 0 0 0 0 0 0 0 0 0 0 0 0 0 0 0 0 0.004 
7971 3 0.0685787 0.0942674 0.0599285 0 0 0 0.283644 -0.977367 0.391898 0 -8.0262e-05 0 0 0 0 0 0 0 0 0 0 0 0 0 0 0 0 0 0 0.004 
8044 11 0.009651 0.111718 0.0635455 0 0 0 -0.0338765 -0.34109 0.549625 0 -8.0262e-05 0 0 0 0 0 0 0 0 0 0 0 0 0 0 0 0 0 1 0.004 
8252 2 0.0667857 0.126988 0.0665048 0 0 0 1.15609 0.391225 1.75598 0 -8.0262e-05 0 0 0 0 0 0 0 0 0 0 0 0 0 0 0 0 0 0 0.004 
8263 7 0.0385818 0.123934 0.0701395 0 0 0 -0.0751393 0.00402596 2.39253 0 -8.0262e-05 0 0 0 0 0 0 0 0 0 0 0 0 0 0 0 0 0 0 0.004 
8036 7 -3.41088e-05 0.103765 0.0727447 0 0 0 -0.0618731 -0.62487 0.629695 0 -8.0262e-05 0 0 0 0 0 0 0 0 0 0 0 0 0 0 0 0 0 0 0.004 
8220 12 0.0118011 0.118983 0.0990387 0 0 0 -0.107639 -0.330557 1.41577 0 -8.0262e-05 0 0 0 0 0 0 0 0 0 0 0 0 0 0 0 0 0 0 0.004 
8125 15 0.103664 0.0528766 0.00666852 0 0 0 -6.81127 -2.48686 -18.2327 0 -8.0262e-05 0 0 0 0 0 0 0 0 0 0 0 0 0 0 0 0 0 0 0.004 
8188 7 0.0624135 0.00427586 0.0556854 0 0 0 5.27103 23.0036 -4.74302 -0.291601 -0.0987035 0.740127 0 0 0 0 0 0 0 0 0 0 0 0 0 0 0 0 0 0.004 
8028 9 0.217107 -0.0196986 -0.0521586 0 0 0 4.58581 -15.0434 5.58255 0 -8.0262e-05 0 0 0 0 0 0 0 0 0 0 0 0 0 0 0 0 0 0 0.004 
7878 9 0.109048 -0.00932268 -0.054969 0 0 0 -0.542106 -7.54935 1.34891 0.000103966 -0.000205856 -0.000150587 0 0 0 0 0 0 0 0 0 0 0 0 0 0 0 0 0 0.004 
7992 2 0.119647 -0.00890617 -0.0550798 0 0 0 5.45526 -11.4269 1.21471 1.16188 -1.72981 0.0431634 0 2 0 0 0 0 0 0 0 0 0 0 0 0 0 0 2 0.004 
8184 12 0.133742 -0.00826071 -0.0551212 0 0 0 0.231741 -6.2162 1.2489 0 -8.0262e-05 0 0 0 0 0 0 0 0 0 0 0 0 0 0 0 0 0 0 0.004 
8123 7 0.205846 -0.0134409 -0.0542095 0 0 0 1.79824 -10.1202 1.86116 0 -8.0262e-05 0 0 0 0 0 0 0 0 0 0 0 0 0 0 0 0 0 0 0.004 
7986 4 0.129437 -0.0279246 -0.0482533 0 0 0 -0.86227 -6.84551 3.94249 0 -8.0262e-05 0 0 0 0 0 0 0 0 0 0 0 0 0 0 0 0 0 0 0.004 
8199 13 0.154543 -0.0244016 -0.0503021 0 0 0 -0.332855 -8.29053 5.02267 0.00354107 0.0182454 0.0335572 0 0 0 0 0 0 0 0 0 0 0 0 0 0 0 0 0 0.004 
7915 6 0.13173 -0.0204507 -0.0519178 0 0 0 0.823277 -7.66453 2.75232 0 -8.0262e-05 0 0 0 0 0 0 0 0 0 0 0 0 0 0 0 0 0 0 0.004 
7949 10 0.204243 -0.0203962 -0.04942 0 0 0 -4.4124 -7.07742 1.83987 0 -8.0262e-05 0 0 0 0 0 0 0 0 0 0 0 0 0 0 0 0 0 0 0.004 
8078 9 0.127544 -0.0135972 -0.0527981 0 0 0 0.810443 -7.58504 1.36086 0 -8.0262e-05 0 0 0 0 0 0 0 0 0 0 0 0 0 0 0 0 0 0 0.004 
8229 11 0.125344 -0.00466955 -0.0514366 0 0 0 2.07267 -6.81177 0.12983 0.0659762 0.00905465 0.0270351 0 1 0 0 0 0 0 0 0 0 0 0 0 0 0 0 1 0.004 
8202 3 0.116286 -0.0319242 -0.0429181 0 0 0 -2.36147 -7.32781 6.64775 0 -8.0262e-05 0 0 0 0 0 0 0 0 0 0 0 0 0 0 0 0 0 0 0.004 
7724 5 0.135665 -0.010121 -0.0473941 0 0 0 1.07929 -9.29483 1.07475 0 -8.0262e-05 0 0 0 0 0 0 0 0 0 0 0 0 0 0 0 0 0 3 0.004 
8261 4 0.134388 -0.0406389 -0.0382276 0 0 0 -0.108077 -5.86807 7.01601 0 -8.0262e-05 0 0 0 0 0 0 0 0 0 0 0 0 0 0 0 0 0 0 0.004 
8101 4 0.169268 -0.0415411 -0.0372045 0 0 0 4.57069 -8.22286 9.63566 0 -8.0262e-05 0 0 0 0 0 0 0 0 0 0 0 0 0 0 0 0 0 0 0.004 
8175 15 0.114046 -0.0390602 -0.0400721 0 0 0 6.98774 -10.307 8.16737 0.101838 0.473376 0.160053 0 0 0 0 0 0 0 0 0 0 0 0 0 0 0 0 0 0.004 
8245 15 0.123847 -0.0357732 -0.0427402 0 0 0 -2.02416 -6.41559 5.34558 0 -8.0262e-05 0 0 0 0 0 0 0 0 0 0 0 0 0 0 0 0 0 0 0.004 
7796 1 0.21015 -0.0379047 -0.0408649 0 0 0 3.88999 -10.0254 8.57914 0 -8.0262e-05 0 0 0 0 0 0 0 0 0 0 0 0 0 0 0 0 0 0 0.004 
8187 7 0.160301 -0.0427808 -0.0344563 0 0 0 1.54891 -3.53808 5.55188 0 -8.0262e-05 0 0 0 0 0 0 0 0 0 0 0 0 0 0 0 0 0 0 0.004 
7637 4 0.121036 -0.0498821 -0.0252179 0 0 0 2.66742 -9.86721 16.5844 0 -8.0262e-05 0 0 0 0 0 0 0 0 0 0 0 0 0 0 0 0 0 0 0.004 
8127 4 0.173927 -0.0460658 -0.0316271 0 0 0 4.85802 -5.77002 10.2281 -0.00171532 -0.0135109 -0.00683813 0 0 0 0 0 0 0 0 0 0 0 0 0 0 0 0 0 0.004 
8051 4 0.185294 -0.0192903 -0.0309471 0 0 0 7.62727 -9.98627 5.26068 0 -8.0262e-05 0 0 0 0 0 0 0 0 0 0 0 0 0 0 0 0 0 0 0.004 
8130 7 0.108268 -0.0486335 -0.0272783 0 0 0 -3.12243 -4.7364 7.95646 0 -8.0262e-05 0 0 0 0 0 0 0 0 0 0 0 0 0 0 0 0 0 2 0.004 
8218 5 0.154336 -0.0510262 -0.022606 0 0 0 -0.12821 -2.76487 7.19723 0 -8.0262e-05 0 0 0 0 0 0 0 0 0 0 0 0 0 0 0 0 0 0 0.004 
7904 12 0.207932 -0.0528099 -0.0180063 0 0 0 2.64299 -5.30335 13.7987 0 -8.0262e-05 0 0 0 0 0 0 0 0 0 0 0 0 0 0 0 0 0 0 0.004 
7793 5 0.165635 -0.0534856 -0.0165308 0 0 0 -1.08013 -2.84832 7.49016 0.00302973 -0.00853896 -0.00379873 0 0 0 0 1 0 0 0 0 0 0 0 0 0 0 0 2 0.004 
7463 12 0.173578 -0.0528727 -0.0171935 0 0 0 -0.966722 -2.47692 8.79802 0.0012498 0.000546508 0.000244774 0 0 0 0 1 0 0 0 0 0 0 0 0 0 0 0 2 0.004 
8212 9 0.132743 -0.0550101 -0.00937172 0 0 0 -0.297414 -3.2666 16.1458 0 -8.0262e-05 0 0 0 0 0 0 0 0 0 0 0 0 0 0 0 0 0 0 0.004 
8100 9 0.170116 -0.0536589 -0.0051302 0 0 0 0.692402 -0.330144 9.32608 0 -8.0262e-05 0 0 0 0 0 0 0 0 0 0 0 0 0 0 0 0 0 0 0.004 
7769 13 0.134947 -0.0513921 -0.00193901 0 0 0 -4.27506 -1.4276 18.0042 0 -8.0262e-05 0 0 0 0 0 0 0 0 0 0 0 0 0 0 0 0 0 2 0.004 
7628 7 0.14021 -0.0558805 0.00283236 0 0 0 -1.99555 -0.44449 15.9036 -0.0390999 0.344284 -0.0194002 0 0 0 0 0 0 0 0 0 0 0 0 0 0 0 0 0 0.004 
8124 9 0.151445 -0.0557464 0.00394634 0 0 0 5.50927 2.00474 12.4739 0.000721641 -0.0450646 0.00750617 0 0 0 0 0 0 0 0 0 0 0 0 0 0 0 0 0 0.004 
8008 9 0.165913 -0.0558734 0.00137453 0 0 0 1.47904 -0.378959 10.0143 0 -8.0262e-05 0 0 0 0 0 0 0 0 0 0 0 0 0 0 0 0 0 1 0.004 
7994 9 0.213285 -0.0555295 0.00546411 0 0 0 1.29882 1.29577 9.02117 0 -8.0262e-05 0 0 0 0 0 0 0 0 0 0 0 0 0 0 0 0 0 1 0.004 
7610 11 0.192623 -0.0554079 0.00624796 0 0 0 -2.63173 1.23174 8.55989 0 -8.0262e-05 0 0 0 0 0 0 0 0 0 0 0 0 0 0 0 0 0 3 0.004 
8207 6 0.117809 -0.0539355 0.0144111 0 0 0 0.830819 4.40591 13.311 0.000513132 -0.0356734 0.0124304 0 0 0 0 0 0 0 0 0 0 0 0 0 0 0 0 0 0.004 
8152 7 0.133497 -0.0464667 0.0110298 0 0 0 -1.15979 2.32184 10.2429 0 -8.0262e-05 0 0 0 0 0 0 0 0 0 0 0 0 0 0 0 0 0 0 0.004 
7715 11 0.13176 -0.0538654 0.0145818 0 0 0 -1.82764 2.6601 8.23203 0 -8.0262e-05 0 0 0 0 0 0 0 0 0 0 0 0 0 0 0 0 0 0 0.004 
7750 13 0.213058 -0.045768 0.0194347 0 0 0 1.30812 -1.89354 12.9693 0 -8.0262e-05 0 0 0 0 0 0 0 0 0 0 0 0 0 0 0 0 0 3 0.004 
7970 12 0.18705 -0.0517088 0.0212815 0 0 0 -1.20877 3.19851 9.92013 0 -8.0262e-05 0 0 0 0 0 0 0 0 0 0 0 0 0 0 0 0 0 0 0.004 
7764 11 0.204995 -0.0486716 0.0272202 0 0 0 0.223619 4.73065 9.04251 0 -8.0262e-05 0 0 0 0 0 0 0 0 0 0 0 0 0 0 0 0 0 2 0.004 
7922 8 0.194839 -0.0471722 0.0286707 0 0 0 2.81486 3.5857 5.67146 0 -8.0262e-05 0 0 0 0 0 0 0 0 0 0 0 0 0 0 0 0 0 1 0.004 
8030 13 0.139069 -0.0425915 0.0360873 0 0 0 -5.02658 7.58994 9.94652 0 -8.0262e-05 0 0 0 0 0 0 0 0 0 0 0 0 0 0 0 0 0 0 0.004 
8151 5 0.171869 -0.0400498 0.0332043 0 0 0 -2.90602 5.32056 11.3673 0 -8.0262e-05 0 0 0 0 0 0 0 0 0 0 0 0 0 0 0 0 0 0 0.004 
7660 14 0.191066 -0.0361719 0.0383761 0 0 0 -3.37648 6.94125 12.807 0 -8.0262e-05 0 0 0 0 0 0 0 0 0 0 0 0 0 0 0 0 0 1 0.004 
8222 7 0.152147 -0.035847 0.0428834 0 0 0 -1.96658 6.25744 5.931 0 -8.0262e-05 0 0 0 0 0 0 0 0 0 0 0 0 0 0 0 0 0 1 0.004 
8046 4 0.161985 -0.0336586 0.0446178 0 0 0 2.09756 14.0728 8.72475 -0.00885157 -0.0180643 0.0328654 0 0 0 0 0 0 0 0 0 0 0 0 0 0 0 0 0 0.004 
8011 4 0.198336 -0.0351031 0.0434894 0 0 0 -1.68942 10.2965 9.57329 0 -8.0262e-05 0 0 0 0 0 0 0 0 0 0 0 0 0 0 0 0 0 3 0.004 
7919 13 0.138109 -0.0318161 0.045795 0 0 0 -2.81822 6.85769 4.48429 0 -8.0262e-05 0 0 0 0 0 0 0 0 0 0 0 0 0 0 0 0 0 0 0.004 
7068 14 0.106964 -0.0253188 0.0497822 0 0 0 -2.56894 7.76945 3.26569 -0.000168428 -0.00854801 0.0203432 0 0 0 0 0 0 0 0 0 0 0 0 0 0 0 0 2 0.004 
8209 8 0.145381 -0.00755504 0.0496089 0 0 0 8.64361 19.35 1.86159 0.0271215 -0.0128668 -0.0508004 0 0 0 0 0 0 0 0 0 0 0 0 0 0 0 0 0 0.004 
7947 5 0.156555 -0.0219427 0.0512381 0 0 0 -0.648898 6.6606 2.89018 0 -8.0262e-05 0 0 0 0 0 0 0 0 0 0 0 0 0 0 0 0 0 1 0.004 
7735 13 0.198896 -0.0208704 0.0517108 0 0 0 -2.39616 9.5553 4.14549 0 -8.0262e-05 0 0 0 0 0 0 0 0 0 0 0 0 0 0 0 0 0 1 0.004 
8219 11 0.1063 -0.0157419 0.0535386 0 0 0 -0.690263 9.91129 2.41875 0 -8.0262e-05 0 0 0 0 0 0 0 0 0 0 0 0 0 0 0 0 0 0 0.004 
7988 10 0.120301 -0.009941 0.0549398 0 0 0 -0.869789 22.9745 5.42893 0 -8.0262e-05 0 0 0 0 0 0 0 0 0 0 0 0 0 0 0 0 0 1 0.004 
7930 15 0.111063 -0.00907581 0.0551622 0 0 0 0.938799 7.96514 1.94593 0 -8.0262e-05 0 0 0 0 0 0 0 0 0 0 0 0 0 0 0 0 0 0 0.004 
7638 8 0.140755 -0.00508091 0.0555815 0 0 0 6.40872 17.0283 1.45029 -0.0141798 0.0128388 -0.0517562 0 0 0 0 0 0 0 0 0 0 0 0 0 0 0 0 3 0.004 
8155 11 0.206892 -0.00503555 0.0555733 0 0 0 -1.62627 22.3385 1.35435 -0.000286356 -0.00131098 0.0636678 0 0 0 0 0 0 0 0 0 0 0 0 0 0 0 0 0 0.004 
7449 12 0.14061 -0.00152462 -0.0524456 0 0 0 4.31577 -7.92059 0.399076 0 -8.0262e-05 0 0 0 0 0 0 0 0 0 0 0 0 0 0 0 0 0 2 0.004 
8009 10 0.20397 -0.00484496 -0.0557743 0 0 0 -0.0383397 -9.9499 0.60841 -0.11176 0.0240086 0.184448 0 0 0 0 0 0 0 0 0 0 0 0 0 0 0 0 0 0.004 
8234 9 0.105105 -0.00277801 -0.0526071 0 0 0 -1.75253 -8.45576 1.88999 -0.000103966 4.53319e-05 0.000150587 0 0 0 0 0 0 0 0 0 0 0 0 0 0 0 0 0 0.004 
8157 8 0.156406 -0.00466613 -0.0558488 0 0 0 -1.34087 -17.1038 2.40972 -0.0456573 0.0871183 0.0389253 0 0 0 0 0 0 0 1 0 0 0 0 0 0 0 0 1 0.004 
8153 8 0.117794 -0.00133546 -0.0550402 0 0 0 4.8768 -20.0694 3.0109 0.633324 -0.71622 0.208667 0 1 0 0 0 0 0 0 0 0 0 0 0 0 0 0 1 0.004 
6677 5 0.214917 0.0316712 0.0458836 0 0 0 0.65201 10.8082 -7.54962 0 -8.0262e-05 0 0 0 0 0 0 0 0 0 0 0 0 0 0 0 0 0 4 0.004 
7964 7 0.19637 0.0212731 0.051606 0 0 0 -3.02327 12.2549 -5.81417 -0.00178586 0.0129198 0.0262354 0 0 0 0 0 0 0 0 0 0 0 0 0 0 0 0 0 0.004 
8131 3 0.212192 0.00350972 0.0557371 0 0 0 -4.59435 25.8845 -3.29753 0.0864902 -0.125207 0.127416 0 0 0 0 0 0 0 0 0 0 0 0 0 0 0 0 1 0.004 
7869 13 0.215388 0.000103547 -0.0557491 0 0 0 -0.311786 -12.5459 0.675115 0 -8.0262e-05 0 0 0 0 0 0 0 0 0 0 0 0 0 0 0 0 0 1 0.004 
8214 10 0.15057 0.000597 -0.0558581 0 0 0 -5.19789 -19.4591 1.46584 0.439802 -0.580599 -0.09276 0 0 0 0 0 0 0 0 0 1 0 0 0 0 0 0 1 0.004 
8045 13 0.179337 0.0232278 0.0506943 0 0 0 2.43518 15.8936 -7.48085 0 -8.0262e-05 0 0 0 0 0 0 0 0 0 0 0 0 0 0 0 0 0 0 0.004 
8103 8 0.147154 0.0325128 0.045242 0 0 0 -3.4162 9.41305 -6.74786 0 -8.0262e-05 0 0 0 0 0 0 0 0 0 0 0 0 0 0 0 0 0 0 0.004 
8182 10 0.163409 0.00168561 -0.0536068 0 0 0 6.14066 -19.103 -5.47381 0 -8.0262e-05 0 0 0 0 0 0 0 0 0 0 0 0 0 0 0 0 0 0 0.004 