ITEM: TIMESTEP
44600000
ITEM: NUMBER OF ATOMS
20895
ITEM: BOX BOUNDS ff ff ff
-0.01 0.45
-0.15 0.15
-0.08 0.1
ITEM: ATOMS id type x y z ix iy iz vx vy vz fx fy fz c_cc_1 c_cc_2 c_cc_3 c_cc_4 c_cc_5 c_cc_6 c_cc_7 c_cc_8 c_cc_9 c_cc_10 c_cc_11 c_cc_12 c_cc_13 c_cc_14 c_cc_15 c_cc_16 f_fppacc radius 
5360 1 0.00460955 -0.0101848 -0.0600562 0 0 0 4.49764e-07 -1.77239e-13 -1.91271e-12 -7.99469e-21 0 0 0 0 0 0 0 0 0 0 0 0 0 0 0 0 0 0 356 0.001 
15490 4 0.00109766 -0.00982474 -0.0600895 0 0 0 -3.0688e-09 3.29599e-10 -6.05958e-11 4.73668e-13 -4.8657e-14 4.41162e-14 0 0 0 2 0 0 0 0 0 0 0 0 0 0 0 0 353 0.001 
4335 5 0.00290976 -0.0089905 -0.0601669 0 0 0 3.06635e-09 -4.04886e-10 3.46949e-11 -4.72352e-13 6.4551e-14 -7.09242e-15 0 0 0 1 0 0 0 0 0 0 0 0 0 0 0 0 817 0.001 
4733 4 0.00828489 -0.00933295 -0.0601352 0 0 0 9.25492e-07 1.93815e-14 2.09152e-13 2.33677e-20 0 0 0 0 0 0 0 0 0 0 0 0 0 0 0 0 0 0 427 0.001 
23591 4 0.0112702 -0.00886686 -0.0601784 0 0 0 1.69359e-06 -9.15508e-15 -9.87941e-14 2.54873e-18 0 0 0 0 0 0 0 0 0 0 0 0 0 0 0 0 0 0 145 0.001 
24492 7 0.00627864 -0.00850383 -0.060212 0 0 0 -1.26693e-06 -2.79153e-15 -3.01136e-14 -1.28941e-18 0 0 0 0 0 0 0 0 0 0 0 0 0 0 0 0 0 0 79 0.001 
8809 9 0.00121709 -0.00701931 -0.0603496 0 0 0 5.20404e-08 -3.38698e-13 -3.65515e-12 7.97624e-20 0 0 0 0 0 0 0 0 0 0 0 0 0 0 0 0 0 0 59 0.001 
3240 4 0.00412964 -0.00736851 -0.0603172 0 0 0 -1.11335e-07 -3.42078e-13 -3.69162e-12 1.61493e-19 0 0 0 0 0 0 0 0 0 0 0 0 0 0 0 0 0 0 840 0.001 
28329 3 0.00895697 -0.00698647 -0.0603526 0 0 0 1.13995e-06 -3.48191e-06 1.19099e-06 3.39844e-08 -1.08842e-07 -2.83479e-08 0 0 0 0 0 0 0 0 0 0 0 0 0 0 0 0 141 0.001 
6944 2 0.000997234 -0.00503135 -0.0605338 0 0 0 -2.03951e-05 2.31604e-06 2.60406e-07 -4.13979e-07 6.1425e-07 -5.15724e-08 0 0 0 0 0 0 0 0 0 0 0 0 0 0 0 0 22 0.001 
12748 2 0.00282744 -0.00582468 -0.0604603 0 0 0 -3.00584e-06 1.94067e-06 -1.20056e-07 -1.37766e-07 -6.20648e-08 6.51613e-09 0 0 0 0 0 0 0 0 0 0 0 0 0 0 0 0 152 0.001 
18855 3 0.00484046 -0.00548413 -0.0604918 0 0 0 -2.27884e-05 -4.14774e-05 3.77055e-06 -3.50566e-07 -5.64106e-07 5.04316e-08 0 0 2 0 0 0 0 0 0 0 0 0 0 0 0 0 155 0.001 
30990 3 0.00684 -0.00552801 -0.0604878 0 0 0 1.11607e-07 1.65995e-13 1.79136e-12 -3.35476e-21 0 0 0 0 0 0 0 0 0 0 0 0 0 0 0 0 0 0 73 0.001 
11712 6 0.00355613 -0.00396519 -0.0606326 0 0 0 8.70144e-05 0.000117391 -1.09542e-05 1.24367e-06 1.70826e-06 -1.58441e-07 0 0 1 0 0 1 0 0 0 0 0 0 0 0 0 0 349 0.001 
33475 6 0.00895572 -0.00492398 -0.0605437 0 0 0 8.4803e-08 -2.24047e-08 -1.12742e-08 -1.28358e-09 1.36856e-09 4.69641e-10 0 0 0 0 0 0 0 0 0 0 0 0 0 0 0 0 19 0.001 
537 2 0.00172188 -0.00318298 -0.0607046 0 0 0 -5.06875e-05 -0.00010749 8.06379e-06 -4.84863e-07 -1.04325e-06 8.70291e-08 0 1 0 0 0 1 0 0 0 0 0 0 0 0 0 0 299 0.001 
20146 1 0.00562847 -0.00365737 -0.0606611 0 0 0 -3.74496e-05 7.7209e-06 -6.5894e-07 -4.78351e-07 1.00812e-07 -8.07663e-09 0 0 1 0 0 0 0 0 0 0 0 0 0 0 0 0 244 0.001 
3870 5 0.00774702 -0.00286153 -0.0607348 0 0 0 4.90135e-07 -1.4873e-13 -1.60506e-12 -1.41621e-20 0 0 0 0 0 0 0 0 0 0 0 0 0 0 0 0 0 0 860 0.001 
29577 4 0.018269 -0.0032848 -0.0606956 0 0 0 1.60733e-07 1.69397e-13 1.8281e-12 3.2591e-21 0 0 0 0 0 0 0 0 0 0 0 0 0 0 0 0 0 0 244 0.001 
6205 5 0.000993939 -0.00133881 -0.0608767 0 0 0 0.000113702 -0.000107368 -3.62015e-06 3.75436e-07 4.824e-07 -1.38193e-08 0 1 0 0 1 0 0 0 0 0 0 0 0 0 0 0 384 0.001 
2795 1 0.00300378 -0.00164585 -0.0608475 0 0 0 -4.97559e-09 1.97018e-13 2.12616e-12 -5.04028e-21 0 0 0 0 0 0 0 0 0 0 0 0 0 0 0 0 0 0 355 0.001 
25024 2 0.0050775 -0.00161376 -0.0608505 0 0 0 -1.4859e-07 -1.6624e-13 -1.79401e-12 -7.86953e-22 0 0 0 0 0 0 0 0 0 0 0 0 0 0 0 0 0 0 207 0.001 
36746 2 0.0164144 -0.0024755 -0.0607706 0 0 0 -5.28708e-07 -1.42409e-14 -1.53689e-13 5.00082e-21 0 0 0 0 0 0 0 0 0 0 0 0 0 0 0 0 0 0 137 0.001 
7985 5 0.00100565 -0.0150766 -0.0588608 0 0 0 -1.11981e-07 -1.74802e-13 -6.14366e-13 3.25048e-19 0 0 0 0 0 0 0 0 0 0 0 0 0 0 0 0 0 0 372 0.001 
25575 7 0.00609745 -0.0144493 -0.0590393 0 0 0 -5.60828e-07 -1.54955e-13 -5.44605e-13 1.2957e-18 0 0 0 0 0 0 0 0 0 0 0 0 0 0 0 0 0 0 429 0.001 
9939 2 0.0101445 -0.0146941 -0.0589697 0 0 0 -1.07384e-07 6.5846e-14 2.31427e-13 4.41242e-21 0 0 0 0 0 0 0 0 0 0 0 0 0 0 0 0 0 0 953 0.001 
38015 6 0.0122502 -0.0149747 -0.0588898 0 0 0 -2.75631e-07 -1.51266e-13 -5.3165e-13 -2.39184e-21 0 0 0 0 0 0 0 0 0 0 0 0 0 0 0 0 0 0 9 0.001 
2652 4 0.00267389 -0.0137088 -0.05925 0 0 0 1.31224e-07 2.14778e-13 7.54861e-13 -3.07565e-21 0 0 0 0 0 0 0 0 0 0 0 0 0 0 0 0 0 0 133 0.001 
3062 1 0.00467763 -0.0130256 -0.0594444 0 0 0 -3.06973e-07 5.65204e-15 1.98689e-14 -4.19954e-21 0 0 0 0 0 0 0 0 0 0 0 0 0 0 0 0 0 0 605 0.001 
4215 7 0.00822539 -0.0135567 -0.0592933 0 0 0 1.52124e-07 7.68303e-14 2.70027e-13 -3.20509e-19 0 0 0 0 0 0 0 0 0 0 0 0 0 0 0 0 0 0 829 0.001 
12953 3 0.0124197 -0.0129497 -0.059466 0 0 0 4.06423e-07 6.27748e-13 2.20631e-12 -1.55968e-21 0 0 0 0 0 0 0 0 0 0 0 0 0 0 0 0 0 0 227 0.001 
2996 9 0.00100041 -0.0117975 -0.059794 0 0 0 -6.61384e-09 7.36874e-11 2.08179e-11 1.02593e-12 -1.61438e-14 -1.53029e-14 0 0 0 1 0 0 0 0 0 0 0 0 0 0 0 0 203 0.001 
28049 2 0.00304772 -0.0118154 -0.0597888 0 0 0 -1.61268e-07 1.01914e-12 3.58192e-12 -3.1719e-19 0 0 0 0 0 0 0 0 0 0 0 0 0 0 0 0 0 0 188 0.001 
26615 7 0.0164934 -0.0038117 -0.0585217 0 0 0 -0.47521 -5.4559 0.692434 0 -2.0546e-05 0 0 0 0 0 0 0 0 0 0 0 0 0 0 0 0 0 612 0.001 
928 3 0.00276392 -0.0193192 -0.0576537 0 0 0 -9.89901e-10 1.28424e-09 -3.6627e-10 -9.84815e-11 1.3078e-10 -3.72412e-11 0 0 1 0 0 0 0 0 0 0 0 0 0 0 0 0 442 0.001 
27503 1 0.00623641 -0.019762 -0.0575277 0 0 0 -3.81621e-08 -5.49837e-09 1.65836e-09 5.89752e-16 -1.78178e-15 -5.30218e-15 1 0 0 0 0 0 0 0 0 0 0 0 0 0 0 0 198 0.001 
24954 11 0.0121336 -0.0196918 -0.0575477 0 0 0 -8.59079e-07 -4.73306e-13 -1.66349e-12 1.27554e-18 0 0 0 0 0 0 0 0 0 0 0 0 0 0 0 0 0 0 736 0.001 
26668 1 0.0168889 -0.0192077 -0.0576855 0 0 0 8.49905e-07 -2.14457e-13 -7.5374e-13 1.2829e-18 0 0 0 0 0 0 0 0 0 0 0 0 0 0 0 0 0 0 532 0.001 
25276 4 0.00466388 -0.0185785 -0.0578645 0 0 0 3.81626e-08 5.49796e-09 -1.65839e-09 -6.26018e-16 -9.13007e-16 -4.22102e-15 1 0 0 0 0 0 0 0 0 0 0 0 0 0 0 0 212 0.001 
20131 4 0.0109491 -0.0178439 -0.0580735 0 0 0 4.82236e-07 7.38468e-09 -2.10248e-09 -1.54619e-11 -4.27401e-14 -4.71389e-14 0 0 0 1 0 0 0 0 0 0 0 0 0 0 0 0 657 0.001 
18074 5 0.000996181 -0.0170446 -0.0583009 0 0 0 -4.75794e-18 3.28254e-17 1.11436e-16 0 6.43745e-20 8.13152e-20 0 0 0 0 0 0 0 0 0 0 0 0 0 0 0 0 122 0.001 
25204 1 0.00301016 -0.0171529 -0.0582701 0 0 0 -6.83292e-08 -1.70717e-13 -6.00009e-13 1.59897e-19 0 0 0 0 0 0 0 0 0 0 0 0 0 0 0 0 0 0 188 0.001 
31205 3 0.00604281 -0.0169166 -0.0583373 0 0 0 -5.82513e-09 -6.8885e-13 -2.42105e-12 1.81447e-22 0 0 0 0 0 0 0 0 0 0 0 0 0 0 0 0 0 0 216 0.001 
26576 1 0.00935435 -0.0166835 -0.0584036 0 0 0 -3.45714e-07 -2.85945e-08 8.13991e-09 -9.31033e-12 -1.15926e-13 9.58816e-14 1 0 0 1 0 0 0 0 0 0 0 0 0 0 0 0 314 0.001 
28724 4 0.013747 -0.0165669 -0.0584368 0 0 0 9.23151e-07 5.01674e-13 1.76332e-12 -2.29951e-18 -2.05998e-18 4.33681e-19 0 0 0 0 0 0 0 0 0 0 0 0 0 0 0 0 272 0.001 
13920 1 0.0044891 -0.0156923 -0.0586857 0 0 0 2.86418e-08 -4.65257e-15 -1.63558e-14 -7.92571e-22 0 0 0 0 0 0 0 0 0 0 0 0 0 0 0 0 0 0 233 0.001 
38289 5 0.00765678 -0.0156668 -0.0586929 0 0 0 3.1096e-07 2.1208e-08 -6.0343e-09 5.8475e-12 7.80558e-13 -1.14665e-14 1 0 0 0 0 0 0 0 0 0 0 0 0 0 0 0 42 0.001 
35242 1 0.0175027 -0.015955 -0.0586109 0 0 0 -2.27126e-07 -1.83337e-13 -6.44373e-13 6.36049e-19 1.0842e-19 0 0 0 0 0 0 0 0 0 0 0 0 0 0 0 0 0 199 0.001 
15966 3 0.00285957 -0.013185 -0.0571364 0 0 0 0.620723 -3.49164 1.37252 0 -2.0546e-05 0 0 0 0 0 0 0 0 0 0 0 0 0 0 0 0 0 993 0.001 
28768 7 0.0070501 -0.0229601 -0.0564205 0 0 0 -2.68999e-07 -1.62335e-08 8.08381e-09 -9.27603e-16 1.0651e-14 1.52335e-14 0 0 0 0 0 0 1 0 0 0 0 0 0 0 0 0 330 0.001 
10618 13 0.000998684 -0.0222859 -0.0567563 0 0 0 1.7852e-20 2.28035e-17 4.24334e-17 0 0 0 0 0 0 0 0 0 0 0 0 0 0 0 0 0 0 0 99 0.001 
4986 1 0.000997269 -0.0202099 -0.0574003 0 0 0 6.24247e-10 -3.4963e-09 9.9577e-10 6.41706e-11 -3.54058e-10 1.00738e-10 0 0 1 0 0 0 0 0 0 0 0 0 0 0 0 0 129 0.001 
15927 1 0.00404226 -0.0212447 -0.0571059 0 0 0 1.93783e-07 1.57552e-12 5.53736e-12 -3.18742e-19 0 0 0 0 0 0 0 0 0 0 0 0 0 0 0 0 0 0 201 0.001 
42709 4 0.0152887 -0.0126397 -0.0567965 0 0 0 2.73471 -6.59146 0.405583 0 -2.0546e-05 0 0 0 0 0 0 0 0 0 0 0 0 0 0 0 0 0 57 0.001 
31365 6 0.00931717 -0.00562055 -0.056555 0 0 0 -0.00767625 0.810386 1.70256 0 -2.0546e-05 0 0 0 0 0 0 0 0 0 0 0 0 0 0 0 0 0 496 0.001 
17646 11 0.000996599 -0.0257209 -0.0550458 0 0 0 5.63069e-10 -9.0804e-10 4.52225e-10 -4.30164e-11 6.95249e-11 -3.46386e-11 0 0 0 0 0 0 0 0 0 0 1 0 0 0 0 0 90 0.001 
8160 8 0.00556515 -0.0254572 -0.0551771 0 0 0 -1.65592e-06 -3.86867e-13 -7.7693e-13 2.92397e-20 0 0 0 0 0 0 0 0 0 0 0 0 0 0 0 0 0 0 545 0.001 
43122 9 0.0184891 -0.0251069 -0.0553516 0 0 0 -7.58697e-07 1.67818e-12 3.37025e-12 -5.43822e-20 0 0 0 0 0 0 0 0 0 0 0 0 0 0 0 0 0 0 2 0.001 
26155 7 0.00172085 -0.0240576 -0.055874 0 0 0 -6.36308e-10 4.75761e-10 -2.37554e-10 4.77804e-11 -3.49225e-11 1.74302e-11 0 0 0 0 0 0 1 0 0 0 1 0 0 0 0 0 215 0.001 
28141 6 0.00364102 -0.0245488 -0.0556294 0 0 0 -2.34794e-10 -4.12176e-10 2.04798e-10 1.89813e-11 3.04468e-11 -1.51338e-11 0 0 0 0 0 0 1 0 0 0 0 0 0 0 0 0 203 0.001 
14657 4 0.00767361 -0.0246592 -0.0555745 0 0 0 2.69e-07 1.62317e-08 -8.08381e-09 8.66305e-16 -1.42421e-15 3.14852e-15 0 0 0 0 0 0 1 0 0 0 0 0 0 0 0 0 425 0.001 
18297 4 0.0107628 -0.0239704 -0.0559174 0 0 0 3.66115e-07 1.5946e-12 3.2024e-12 1.91068e-20 0 0 0 0 0 0 0 0 0 0 0 0 0 0 0 0 0 0 723 0.001 
1300 6 0.0131762 -0.0238964 -0.0559543 0 0 0 8.70847e-07 9.17167e-13 1.84191e-12 6.59105e-19 4.33681e-19 -4.33681e-19 0 0 0 0 0 0 0 0 0 0 0 0 0 0 0 0 1051 0.001 
34281 3 0.0156358 -0.0248353 -0.0554868 0 0 0 -3.97575e-07 -1.49431e-12 -3.00098e-12 -1.28166e-18 0 0 0 0 0 0 0 0 0 0 0 0 0 0 0 0 0 0 219 0.001 
9498 1 0.00810759 -0.0168463 -0.0556219 0 0 0 0.102989 -0.907591 0.58655 0 -2.0546e-05 0 0 0 0 0 0 0 0 0 0 0 0 0 0 0 0 0 1065 0.001 
1466 2 0.00180056 -0.0275214 -0.0541493 0 0 0 -2.36163e-07 -9.04328e-13 -1.81614e-12 6.53555e-19 0 0 0 0 0 0 0 0 0 0 0 0 0 0 0 0 0 0 474 0.001 
14062 5 0.00475452 -0.0280544 -0.0538839 0 0 0 1.78451e-07 1.11805e-12 2.24535e-12 6.45018e-19 0 0 0 0 0 0 0 0 0 0 0 0 0 0 0 0 0 0 515 0.001 
3560 2 0.00677414 -0.027877 -0.0539722 0 0 0 -1.14711e-07 -1.37958e-12 -2.77056e-12 -3.56083e-21 0 0 0 0 0 0 0 0 0 0 0 0 0 0 0 0 0 0 940 0.001 
4279 2 0.00368513 -0.0263584 -0.0547284 0 0 0 -4.08312e-07 -1.8743e-12 -3.7641e-12 1.28606e-18 0 0 0 0 0 0 0 0 0 0 0 0 0 0 0 0 0 0 529 0.001 
14623 6 0.0155292 -0.0274601 -0.0541798 0 0 0 -8.56725e-09 -7.03911e-13 -1.41364e-12 -2.56131e-21 0 0 0 0 0 0 0 0 0 0 0 0 0 0 0 0 0 0 898 0.001 
6616 9 0.0182021 -0.0270822 -0.054368 0 0 0 4.74452e-07 -4.67876e-13 -9.39618e-13 -1.80002e-20 0 0 0 0 0 0 0 0 0 0 0 0 0 0 0 0 0 0 1195 0.001 
19959 5 0.00244126 -0.0306975 -0.0525673 0 0 0 -4.38921e-17 6.00797e-18 -2.81834e-17 1.0842e-19 2.1684e-19 0 0 0 0 0 3 0 0 0 0 0 0 0 0 0 0 0 189 0.001 
21748 1 0.00458677 -0.0301784 -0.0528262 0 0 0 3.85956e-07 -1.26732e-12 -2.54513e-12 1.59774e-20 0 0 0 0 0 0 0 0 0 0 0 0 0 0 0 0 0 0 56 0.001 
31064 3 0.00963625 -0.0308143 -0.0525096 0 0 0 -5.30066e-07 1.78745e-13 3.58966e-13 2.53971e-18 0 0 0 0 0 0 0 0 0 0 0 0 0 0 0 0 0 0 372 0.001 
19140 2 0.0010391 -0.0294238 -0.053202 0 0 0 5.88269e-19 8.28493e-18 -1.38563e-17 0 0 0 0 0 0 0 1 0 0 0 0 0 0 0 0 0 0 0 322 0.001 
2728 13 0.00298845 -0.0289797 -0.0534233 0 0 0 1.29397e-17 -1.48411e-17 -2.19335e-17 0 0 4.33681e-19 0 0 0 0 1 0 0 0 0 0 0 0 0 0 0 0 831 0.001 
23924 9 0.00655169 -0.0298044 -0.0530124 0 0 0 -3.45698e-07 3.01764e-08 -1.58831e-08 -5.36626e-15 7.08808e-15 1.6996e-14 0 0 0 0 0 0 0 0 1 0 0 0 0 0 0 0 521 0.001 
39259 13 0.00847377 -0.0293261 -0.0532506 0 0 0 2.86975e-07 -5.752e-08 2.9469e-08 -1.81117e-14 -3.5989e-15 1.82285e-14 0 0 0 0 0 0 0 0 1 0 0 0 1 0 0 0 87 0.001 
17565 1 0.0102473 -0.0285013 -0.0536613 0 0 0 -4.09258e-07 2.7347e-08 -1.35794e-08 2.32701e-14 1.21975e-14 -3.7791e-15 0 0 0 0 0 0 0 0 0 0 0 0 1 0 0 0 685 0.001 
18422 6 0.0121827 -0.0326572 -0.0514518 0 0 0 2.36381e-07 -1.00428e-12 -1.32988e-12 -1.94867e-23 0 0 0 0 0 0 0 0 0 0 0 0 0 0 0 0 0 0 949 0.001 
4222 1 0.00099806 -0.0319299 -0.0519544 0 0 0 -1.63313e-17 -6.10789e-17 6.17388e-17 -1.55854e-19 -4.33681e-19 4.33681e-19 0 0 0 0 1 0 0 0 0 0 0 0 0 0 0 0 358 0.001 
15869 1 0.00343314 -0.0323709 -0.051668 0 0 0 1.28849e-07 1.96477e-07 2.87036e-07 -7.74864e-10 -1.19956e-09 -1.75574e-09 0 0 0 0 0 0 0 0 0 0 0 0 0 0 0 0 118 0.001 
28047 1 0.00535892 -0.0319157 -0.0519568 0 0 0 3.72701e-06 -8.20114e-07 -1.08071e-06 -1.9975e-08 4.64464e-09 6.18543e-09 0 0 0 0 0 0 0 0 0 0 0 0 0 0 0 0 509 0.001 
23139 5 0.00754775 -0.0320051 -0.0519164 0 0 0 -0.00534027 -1.65281e-08 3.80412e-09 -1.16305e-10 2.47121e-10 8.69543e-11 0 0 0 0 0 0 0 0 0 0 0 0 0 0 0 0 120 0.001 
8198 5 0.0104243 -0.0287014 -0.0499162 0 0 0 0.812852 -3.18439 2.96925 0 -2.0546e-05 0 0 0 0 0 0 0 0 0 0 0 0 0 0 0 0 0 1113 0.001 
425 4 0.00304404 -0.025735 -0.051091 0 0 0 0.501957 -3.06724 1.05751 0 -2.0546e-05 0 0 0 0 0 0 0 0 0 0 0 0 0 0 0 0 0 1103 0.001 
7050 6 0.00232705 -0.0337558 -0.0506222 0 0 0 -2.02154e-08 4.22301e-14 5.5922e-14 -8.23616e-20 0 0 0 0 0 0 0 0 0 0 0 0 0 0 0 0 0 0 278 0.001 
40706 3 0.0102951 -0.0344251 -0.0501168 0 0 0 -7.8314e-09 1.03221e-12 1.36686e-12 2.74249e-22 -2.1684e-19 0 0 0 0 0 0 0 0 0 0 0 0 0 0 0 0 0 14 0.001 
3837 9 0.00649196 -0.0334449 -0.050857 0 0 0 -3.91124e-08 -8.38917e-13 -1.1109e-12 6.93219e-22 0 0 0 0 0 0 0 0 0 0 0 0 0 0 0 0 0 0 328 0.001 
15419 9 0.00869138 -0.0333303 -0.0509435 0 0 0 -1.27838e-07 1.26218e-08 -6.08272e-09 3.13239e-10 -5.56083e-10 2.87643e-11 0 0 0 0 0 0 0 0 0 0 0 0 0 0 0 0 548 0.001 
15672 1 0.0150635 -0.0337308 -0.050641 0 0 0 2.03342e-06 4.03336e-13 5.34105e-13 -2.27647e-20 0 0 0 0 0 0 0 0 0 0 0 0 0 0 0 0 0 0 819 0.001 
22597 8 0.00295775 -0.0356122 -0.0492203 0 0 0 -3.68119e-07 -5.31159e-13 -7.0337e-13 -2.55746e-18 0 0 0 0 0 0 0 0 0 0 0 0 0 0 0 0 0 0 301 0.001 
30102 13 0.00566138 -0.0353211 -0.0494401 0 0 0 -7.13533e-08 1.53796e-12 2.03659e-12 -4.89112e-21 0 0 0 0 0 0 0 0 0 0 0 0 0 0 0 0 0 0 116 0.001 
651 2 0.00918653 -0.0359933 -0.0489325 0 0 0 3.01868e-07 9.58842e-13 1.26971e-12 -1.01671e-20 0 0 0 0 0 0 0 0 0 0 0 0 0 0 0 0 0 0 767 0.001 
24766 2 0.0185218 -0.035954 -0.0489621 0 0 0 -4.64859e-07 1.59765e-15 1.99011e-15 -1.63113e-18 2.32019e-17 -1.73472e-17 0 0 0 0 0 0 0 0 0 0 0 0 0 0 0 0 355 0.001 
10907 3 0.00104533 -0.0349824 -0.0496959 0 0 0 6.66118e-09 4.51659e-13 5.98095e-13 4.01314e-20 0 0 0 0 0 0 0 0 0 0 0 0 0 0 0 0 0 0 372 0.001 
22014 2 0.00760204 -0.0347732 -0.0498539 0 0 0 4.29718e-08 9.21927e-13 1.22083e-12 4.84104e-21 0 0 0 0 0 0 0 0 0 0 0 0 0 0 0 0 0 0 398 0.001 
3957 3 0.0167848 -0.0349808 -0.0496971 0 0 0 4.537e-07 -4.63934e-12 -6.14348e-12 8.95235e-20 2.1684e-19 4.33681e-19 0 0 0 0 0 0 0 0 0 0 0 0 0 0 0 0 900 0.001 
19508 1 0.00409483 -0.0312553 -0.049456 0 0 0 0.37118 -0.737488 0.953039 0 -2.0546e-05 0 0 0 0 0 0 0 0 0 0 0 0 0 0 0 0 0 649 0.001 
28499 4 0.010702 -0.00559446 -0.0544047 0 0 0 0.330026 -8.16319 -9.50264 0 -2.0546e-05 0 0 0 0 0 0 0 0 0 0 0 0 0 0 0 0 0 484 0.001 
2254 1 0.00270494 -0.0375272 -0.0477742 0 0 0 2.7565e-08 -8.31278e-13 -1.10079e-12 1.52415e-21 0 0 0 0 0 0 0 0 0 0 0 0 0 0 0 0 0 0 43 0.001 
22092 1 0.00445359 -0.0366799 -0.048414 0 0 0 3.76375e-07 -1.35354e-12 -1.79237e-12 -2.60406e-18 0 0 0 0 0 0 0 0 0 0 0 0 0 0 0 0 0 0 73 0.001 
28309 4 0.00642919 -0.0373067 -0.0479407 0 0 0 -2.60989e-07 -1.55643e-12 -2.06105e-12 4.53052e-20 0 0 0 0 0 0 0 0 0 0 0 0 0 0 0 0 0 0 85 0.001 
36660 8 0.0110552 -0.0366317 -0.0484504 0 0 0 -1.35535e-07 9.29585e-13 1.23097e-12 -6.45656e-19 0 0 0 0 0 0 0 0 0 0 0 0 0 0 0 0 0 0 174 0.001 
40529 4 0.0141762 -0.036809 -0.0483165 0 0 0 -1.02375e-07 -1.39594e-12 -1.84852e-12 6.36441e-19 0 0 0 0 0 0 0 0 0 0 0 0 0 0 0 0 0 0 6 0.001 
17729 2 0.0166912 -0.0373072 -0.0479403 0 0 0 -1.42596e-07 -2.36853e-12 -3.13644e-12 5.42076e-23 0 0 0 0 0 0 0 0 0 0 0 0 0 0 0 0 0 0 634 0.001 
44154 3 0.00484164 -0.0288776 -0.0475426 0 0 0 1.12254 -6.76952 2.30755 0 -2.0546e-05 0 0 0 0 0 0 0 0 0 0 0 0 0 0 0 0 0 0 0.001 
6347 2 0.00135551 -0.0390433 -0.0466292 0 0 0 1.31314e-07 -1.00967e-12 -1.33702e-12 6.49353e-19 0 0 0 0 0 0 0 0 0 0 0 0 0 0 0 0 0 0 226 0.001 
6628 3 0.00648579 -0.038912 -0.0467284 0 0 0 -4.44866e-09 4.25072e-10 -3.26126e-10 8.45786e-16 -4.08831e-15 -8.08294e-15 0 0 1 0 0 0 0 0 0 0 0 0 0 0 0 0 417 0.001 
7287 6 0.00430122 -0.0385026 -0.0470375 0 0 0 1.43828e-07 -9.78617e-13 -1.2959e-12 -6.43607e-19 0 0 0 0 0 0 0 0 0 0 0 0 0 0 0 0 0 0 223 0.001 
36237 6 0.0102053 -0.0383301 -0.0471678 0 0 0 -5.9159e-07 -1.24953e-08 2.31944e-08 2.00966e-09 8.50099e-09 -6.6891e-09 0 0 0 0 0 0 0 0 0 0 0 0 0 0 0 0 138 0.001 
12450 9 0.00104113 -0.0407774 -0.0453197 0 0 0 -1.93292e-08 6.37725e-10 -5.81867e-10 -7.12196e-15 4.20358e-14 -4.75227e-14 0 0 0 0 0 0 0 0 1 0 0 0 0 0 0 0 124 0.001 
11827 10 0.00301497 -0.0405317 -0.0455053 0 0 0 1.93293e-08 -6.37676e-10 5.81895e-10 7.26827e-15 -4.57895e-14 4.25025e-14 0 0 0 0 0 0 0 0 1 0 0 0 0 0 0 0 373 0.001 
8607 4 0.00571331 -0.040379 -0.0456206 0 0 0 4.44865e-09 -4.25112e-10 3.26131e-10 -7.49238e-16 1.27502e-16 2.45854e-15 0 0 1 0 0 0 0 0 0 0 0 0 0 0 0 0 580 0.001 
895 3 0.00790406 -0.0409251 -0.0452037 0 0 0 0.00333971 2.29676e-13 3.44984e-13 -4.73643e-19 2.41235e-18 -1.5992e-18 0 0 0 0 0 0 0 0 0 0 0 0 0 0 0 0 577 0.001 
18732 7 0.0112601 -0.0397621 -0.0460864 0 0 0 6.1038e-07 2.45936e-12 3.25672e-12 2.72583e-19 0 0 0 0 0 0 0 0 0 0 0 0 0 0 0 0 0 0 801 0.001 
1595 1 0.000997152 -0.0422981 -0.0437619 0 0 0 -2.61307e-17 -6.1527e-17 -5.69042e-17 0 0 0 0 0 0 0 0 0 0 0 0 0 0 0 0 0 0 0 197 0.001 
17263 6 0.00299886 -0.0419966 -0.0440911 0 0 0 -1.25699e-08 -1.08152e-09 1.18648e-09 1.11157e-12 7.82474e-13 -9.58295e-13 0 0 0 0 0 1 0 0 0 0 0 0 0 0 0 0 341 0.001 
29473 7 0.00619847 -0.0421819 -0.0438878 0 0 0 -2.28104e-08 -1.08711e-13 -9.91047e-14 -3.25091e-19 0 0 0 0 0 0 0 0 0 0 0 0 0 0 0 0 0 0 57 0.001 
19962 1 0.0106419 -0.0413103 -0.0448438 0 0 0 -8.31575e-08 1.71717e-12 1.56541e-12 -6.45037e-19 0 0 0 0 0 0 0 0 0 0 0 0 0 0 0 0 0 0 576 0.001 
40028 8 0.0153201 -0.0419737 -0.0441161 0 0 0 -7.84417e-07 -2.80493e-14 -2.55688e-14 -6.08716e-21 0 0 0 0 0 0 0 0 0 0 0 0 0 0 0 0 0 0 75 0.001 
18217 1 0.018476 -0.0412478 -0.0449124 0 0 0 -3.05132e-08 -4.57793e-13 -4.17333e-13 3.25437e-19 0 0 0 0 0 0 0 0 0 0 0 0 0 0 0 0 0 0 495 0.001 
6624 9 0.00212341 -0.0434248 -0.0425244 0 0 0 -9.27824e-08 -1.83132e-12 -1.66947e-12 1.29433e-18 0 0 0 0 0 0 0 0 0 0 0 0 0 0 0 0 0 0 278 0.001 
21129 2 0.00447994 -0.0428996 -0.0431005 0 0 0 1.25699e-08 1.08149e-09 -1.18656e-09 -1.11155e-12 -7.84569e-13 9.566e-13 0 0 0 0 0 1 0 0 0 0 0 0 0 0 0 0 113 0.001 
25804 7 0.0104414 -0.0434291 -0.0425196 0 0 0 4.78955e-07 -3.29401e-13 -3.0029e-13 -3.47536e-20 0 0 0 0 0 0 0 0 0 0 0 0 0 0 0 0 0 0 415 0.001 
32695 4 0.0121749 -0.042611 -0.043417 0 0 0 -4.38679e-07 5.8037e-13 5.29059e-13 -5.04802e-18 4.33681e-19 -4.33681e-19 0 0 0 0 0 0 0 0 0 0 0 0 0 0 0 0 285 0.001 
31688 3 0.0184144 -0.0429626 -0.0430314 0 0 0 -3.27529e-07 -4.06599e-12 -3.70664e-12 -2.55642e-18 0 0 0 0 0 0 0 0 0 0 0 0 0 0 0 0 0 0 803 0.001 
6267 5 0.00885592 -0.0424508 -0.0435928 0 0 0 -1.78058e-06 -5.76899e-06 1.00622e-06 2.9248e-08 2.06863e-07 9.61529e-08 0 0 0 0 0 0 0 0 0 0 0 0 0 0 0 0 876 0.001 
366 3 0.0116358 -0.0290848 -0.041105 0 0 0 0.0354238 -4.19472 3.35652 0 -2.0546e-05 0 0 0 0 0 0 0 0 0 0 0 0 0 0 0 0 0 1093 0.001 
34046 4 0.00602675 -0.0437834 -0.042131 0 0 0 -4.77036e-08 -2.12994e-12 -1.9417e-12 2.52189e-21 0 0 0 0 0 0 0 0 0 0 0 0 0 0 0 0 0 0 51 0.001 
4790 2 0.00836761 -0.0437968 -0.0421163 0 0 0 -9.72545e-08 -3.90944e-12 -3.56402e-12 -1.04497e-17 -5.63785e-18 6.50521e-18 0 0 0 0 0 0 0 0 0 0 0 0 0 0 0 0 544 0.001 
32923 1 0.0133058 -0.0443088 -0.0415546 0 0 0 3.55213e-07 2.45916e-14 2.24168e-14 2.56881e-18 0 0 0 0 0 0 0 0 0 0 0 0 0 0 0 0 0 0 325 0.001 
12915 3 0.0144329 -0.031881 -0.0393704 0 0 0 0.866864 -3.32022 4.88493 0 -2.0546e-05 0 0 0 0 0 0 0 0 0 0 0 0 0 0 0 0 0 1039 0.001 
42440 2 0.0122298 -0.031223 -0.040549 0 0 0 1.6817 -4.27859 2.83034 0 -2.0546e-05 0 0 0 0 0 0 0 0 0 0 0 0 0 0 0 0 0 78 0.001 
44192 7 0.00349063 -0.0288239 -0.0425713 0 0 0 0.131293 -6.62104 -1.10281 0 -2.0546e-05 0 0 0 0 0 0 0 0 0 0 0 0 0 0 0 0 0 0 0.001 
42666 9 0.0131558 -0.0186892 -0.0424698 0 0 0 0.0445003 -1.45158 -0.37948 0 -2.0546e-05 0 0 0 0 0 0 0 0 0 0 0 0 0 0 0 0 0 42 0.001 
14362 9 0.00201181 -0.0022296 -0.0418157 0 0 0 0.0153776 -1.37717 -0.319549 0 -2.0546e-05 0 0 0 0 0 0 0 0 0 0 0 0 0 0 0 0 0 1049 0.001 
20363 3 0.000999366 -0.0452137 -0.0405634 0 0 0 3.535e-18 7.57176e-18 6.0258e-18 0 0 0 0 0 0 0 0 0 0 0 0 0 0 0 0 0 0 0 16 0.001 
22463 3 0.00308798 -0.0450134 -0.0407817 0 0 0 1.20696e-07 -4.32039e-12 -3.93856e-12 -8.81534e-21 0 0 0 0 0 0 0 0 0 0 0 0 0 0 0 0 0 0 70 0.001 
5399 1 0.00919165 -0.0450305 -0.040763 0 0 0 1.09537e-07 -1.49429e-12 -1.36209e-12 -1.89453e-17 2.25514e-17 -2.47198e-17 0 0 0 0 0 0 0 0 0 0 0 0 0 0 0 0 709 0.001 
37010 1 0.0110779 -0.0457066 -0.0400213 0 0 0 6.57233e-07 6.63196e-14 6.04598e-14 5.14836e-18 0 0 0 0 0 0 0 0 0 0 0 0 0 0 0 0 0 0 140 0.001 
27461 3 0.0171468 -0.0454132 -0.0403431 0 0 0 1.0045e-07 -6.54216e-13 -5.96399e-13 -5.60464e-20 0 0 0 0 0 0 0 0 0 0 0 0 0 0 0 0 0 0 426 0.001 
7451 3 0.00709451 -0.0449273 -0.0408762 0 0 0 4.05359e-08 -2.23418e-12 -2.03672e-12 5.86701e-21 0 0 0 0 0 0 0 0 0 0 0 0 0 0 0 0 0 0 574 0.001 
18554 5 0.00597145 -0.043338 -0.0384136 0 0 0 -0.605939 -2.06381 3.57027 0 -2.0546e-05 0 0 0 0 0 0 0 0 0 0 0 0 0 0 0 0 0 859 0.001 
2640 9 0.00250753 -0.0466166 -0.0390231 0 0 0 9.82255e-08 2.94394e-12 2.68376e-12 -1.29785e-18 0 0 0 0 0 0 0 0 0 0 0 0 0 0 0 0 0 0 623 0.001 
12343 5 0.00631236 -0.0467194 -0.0389105 0 0 0 -3.39143e-06 8.88056e-06 -9.58767e-06 -5.93851e-07 6.24871e-07 -7.14156e-07 0 0 0 0 1 0 0 0 0 0 0 0 0 0 0 0 684 0.001 
10303 7 0.00823888 -0.0463732 -0.03929 0 0 0 4.79812e-06 -1.18509e-05 1.3183e-05 2.54303e-07 -1.54496e-06 1.67151e-06 0 0 0 0 1 0 0 0 0 0 0 0 0 0 0 0 831 0.001 
23793 2 0.00462706 -0.04598 -0.0397215 0 0 0 -2.55793e-08 -5.51797e-12 -5.03029e-12 -5.99901e-21 0 0 0 0 0 0 0 0 0 0 0 0 0 0 0 0 0 0 225 0.001 
25958 7 0.0131641 -0.0459362 -0.0397695 0 0 0 8.20107e-07 -8.04936e-13 -7.33798e-13 -1.04087e-17 0 0 0 0 0 0 0 0 0 0 0 0 0 0 0 0 0 0 662 0.001 
39044 3 0.00865287 -0.0445522 -0.0360875 0 0 0 0.111438 -3.39337 6.00167 0 -2.0546e-05 0 0 0 0 0 0 0 0 0 0 0 0 0 0 0 0 0 150 0.001 
11200 14 0.0108707 -0.0475309 -0.0380202 0 0 0 1.79563e-05 0.00156507 0.00134662 3.05666e-07 -3.89264e-05 -3.63959e-05 0 0 0 0 0 0 0 0 0 0 0 0 0 0 0 0 808 0.001 
5976 14 0.00457552 -0.0474517 -0.0381071 0 0 0 0.000177926 0.000247549 -0.000271448 1.58546e-07 3.76898e-06 -4.18133e-06 0 0 0 0 0 0 0 0 0 0 0 0 0 2 0 0 764 0.001 
23847 5 0.0175703 -0.0469405 -0.0386679 0 0 0 1.10016e-07 -9.45877e-13 -8.6228e-13 -4.45962e-21 0 0 0 0 0 0 0 0 0 0 0 0 0 0 0 0 0 0 43 0.001 
24097 8 0.00463968 -0.0488163 -0.036539 0 0 0 -1.05106e-07 -2.56606e-12 -1.58866e-12 -2.57384e-17 6.07153e-18 -9.75782e-18 0 0 0 0 0 0 0 0 0 0 0 0 0 0 0 0 58 0.001 
43040 4 0.00764462 -0.0490214 -0.0362077 0 0 0 -0.0546797 -0.0334874 0.0540854 0.00142439 0.000867579 -0.0014014 0 0 0 0 0 0 0 0 0 0 0 0 0 0 0 0 7 0.001 
14800 6 0.000993888 -0.0485952 -0.0368552 0 0 0 1.63441e-05 -2.04109e-05 2.44186e-05 1.31218e-06 -8.97479e-06 1.00306e-05 0 0 0 0 0 1 0 0 0 0 0 0 0 0 0 0 163 0.001 
21526 3 0.00288313 -0.0481656 -0.0373235 0 0 0 5.29552e-06 0.000122136 -0.000132912 -4.05967e-06 4.17962e-06 -5.05848e-06 0 0 0 0 0 1 0 0 0 0 0 0 0 1 0 0 113 0.001 
18520 9 0.0063478 -0.0480689 -0.03743 0 0 0 -0.000253357 -0.00032844 0.000358976 -6.07781e-06 -5.01912e-06 5.51335e-06 0 0 0 0 0 0 0 0 0 0 0 0 0 1 0 0 441 0.001 
35959 3 0.00709651 -0.0472565 -0.0340819 0 0 0 1.08023 -3.4091 4.56958 0 -2.0546e-05 0 0 0 0 0 0 0 0 0 0 0 0 0 0 0 0 0 259 0.001 
41840 8 0.00342388 -0.0269432 -0.0366689 0 0 0 0.50105 -4.22892 -0.757353 0 -2.0546e-05 0 0 0 0 0 0 0 0 0 0 0 0 0 0 0 0 0 6 0.001 
26321 3 0.0102317 -0.0493877 -0.0356162 0 0 0 1.0626e-06 6.7052e-08 -1.00309e-07 -1.17188e-08 -6.60256e-09 1.0469e-09 0 0 0 0 0 0 0 0 0 0 0 0 0 0 0 0 70 0.001 
24414 8 0.0126765 -0.0494203 -0.0355636 0 0 0 2.29199e-07 -3.82027e-12 -2.36541e-12 -1.27393e-18 0 0 0 0 0 0 0 0 0 0 0 0 0 0 0 0 0 0 616 0.001 
3408 4 0.0172822 -0.04942 -0.035564 0 0 0 -9.20232e-08 1.21583e-12 7.52811e-13 2.57043e-20 0 0 0 0 0 0 0 0 0 0 0 0 0 0 0 0 0 0 1189 0.001 
6685 12 0.00102713 -0.0502771 -0.0341798 0 0 0 -1.09591e-07 1.34216e-12 8.31032e-13 -3.86493e-21 0 0 0 0 0 0 0 0 0 0 0 0 0 0 0 0 0 0 540 0.001 
10319 4 0.0053235 -0.0500136 -0.0346054 0 0 0 -4.01107e-07 5.17258e-13 3.20272e-13 -1.61432e-21 0 -2.1684e-19 0 0 0 0 0 0 0 0 0 0 0 0 0 0 0 0 663 0.001 
6905 4 0.00886201 -0.0501845 -0.0343293 0 0 0 -4.69241e-07 1.02446e-07 -1.59965e-07 -3.938e-10 4.20852e-10 -6.78187e-10 0 0 0 0 0 0 0 0 0 0 0 0 0 0 0 0 131 0.001 
30465 4 0.0113801 -0.0502767 -0.0341805 0 0 0 -6.67888e-07 1.34049e-07 -2.80512e-07 -3.58044e-08 5.58635e-08 -8.30075e-08 0 0 0 0 0 0 0 0 0 0 0 0 0 0 0 0 213 0.001 
3066 8 0.0156681 -0.05011 -0.0344496 0 0 0 2.65363e-07 5.77884e-13 3.57811e-13 2.87597e-20 0 0 0 0 0 0 0 0 0 0 0 0 0 0 0 0 0 0 387 0.001 
10520 1 0.0185617 -0.0601039 0.00902996 0 0 0 -8.05693e-07 -1.56274e-12 2.92126e-13 -2.54953e-18 0 0 0 0 0 0 0 0 0 0 0 0 0 0 0 0 0 0 27 0.001 
43799 2 0.00884975 -0.0179927 -0.0346938 0 0 0 0.124392 -2.44674 -0.282985 0 -2.0546e-05 0 0 0 0 0 0 0 0 0 0 0 0 0 0 0 0 0 2 0.001 
41239 6 0.00614816 -0.0162198 -0.0344957 0 0 0 -0.148134 -1.77043 -0.0756424 0 -2.0546e-05 0 0 0 0 0 0 0 0 0 0 0 0 0 0 0 0 0 106 0.001 
16136 11 0.00366543 -0.050647 -0.0335825 0 0 0 3.07526e-07 -2.22848e-08 3.16893e-08 -6.07747e-10 -3.44001e-10 5.48862e-10 0 0 0 0 0 0 0 0 0 0 1 0 0 0 0 0 317 0.001 
8474 1 0.00536662 -0.0511956 -0.0326962 0 0 0 -3.2977e-07 1.35316e-07 -2.18831e-07 -1.30721e-10 8.69307e-10 -1.38967e-09 1 0 0 0 0 0 0 0 0 0 1 0 0 0 0 0 470 0.001 
14631 4 0.00710462 -0.0506812 -0.0335274 0 0 0 4.91536e-07 -2.1555e-07 3.47225e-07 1.13355e-09 -9.4674e-10 1.52015e-09 1 0 0 0 0 0 0 0 0 0 0 0 0 0 0 0 544 0.001 
14832 12 0.0137369 -0.0508361 -0.033277 0 0 0 -1.75025e-07 1.86741e-12 1.15625e-12 6.50211e-19 0 0 0 0 0 0 0 0 0 0 0 0 0 0 0 0 0 0 852 0.001 
17 7 0.00231656 -0.0516518 -0.0319596 0 0 0 -2.63803e-07 -3.02327e-12 -1.87193e-12 1.28942e-18 0 0 0 0 0 0 0 0 0 0 0 0 0 0 0 0 0 0 466 0.001 
21830 10 0.00418022 -0.0520474 -0.0313206 0 0 0 3.34294e-07 -3.07613e-12 -1.90466e-12 1.29721e-18 0 0 0 0 0 0 0 0 0 0 0 0 0 0 0 0 0 0 183 0.001 
21169 5 0.0100377 -0.0520879 -0.0312552 0 0 0 5.15806e-07 1.32063e-12 8.17698e-13 2.60832e-18 0 0 0 0 0 0 0 0 0 0 0 0 0 0 0 0 0 0 367 0.001 
33877 7 0.0127174 -0.0518662 -0.0316133 0 0 0 -4.25898e-07 -6.34627e-12 -3.92945e-12 -1.6931e-20 0 0 0 0 0 0 0 0 0 0 0 0 0 0 0 0 0 0 426 0.001 
32338 2 0.0150762 -0.0516237 -0.0320049 0 0 0 1.38799e-07 -3.77306e-12 -2.33618e-12 2.6261e-20 0 0 0 0 0 0 0 0 0 0 0 0 0 0 0 0 0 0 383 0.001 
31787 7 0.0177912 -0.0515728 -0.0320871 0 0 0 -1.13616e-06 4.90311e-12 3.03629e-12 -1.4016e-17 1.43115e-17 -2.34188e-17 0 0 0 0 0 0 0 0 0 0 0 0 0 0 0 0 14 0.001 
44064 5 0.0125198 -0.0452735 -0.0236774 0 0 0 2.57781 -5.87577 17.144 0 -2.0546e-05 0 0 0 0 0 0 0 0 0 0 0 0 0 0 0 0 0 0 0.001 
22605 6 0.00662674 -0.0525949 -0.0304365 0 0 0 -1.1277e-06 6.08077e-13 3.76504e-13 -5.08908e-18 0 0 0 0 0 0 0 0 0 0 0 0 0 0 0 0 0 0 351 0.001 
513 8 0.00125596 -0.0533402 -0.0292327 0 0 0 1.72365e-07 -1.13942e-08 1.83924e-08 -4.78328e-15 -1.29801e-15 1.31405e-15 0 0 0 0 0 0 0 1 0 0 0 0 0 0 0 0 202 0.001 
6681 1 0.0031087 -0.0529491 -0.0298643 0 0 0 -1.72364e-07 1.13956e-08 -1.83925e-08 4.65112e-15 4.09828e-16 -1.79631e-15 0 0 0 0 0 0 0 1 0 0 0 0 0 0 0 0 435 0.001 
18218 2 0.00749897 -0.0536054 -0.0288044 0 0 0 -6.5125e-08 5.48676e-09 -8.85209e-09 2.19714e-16 -4.91013e-15 -2.48065e-15 0 2 0 0 0 0 0 0 0 0 0 0 0 0 0 0 438 0.001 
26400 5 0.00924935 -0.0530977 -0.0296244 0 0 0 9.15711e-08 -3.85108e-09 6.2141e-09 8.49933e-16 -2.84321e-15 -2.4555e-15 0 1 0 0 0 0 0 0 0 0 0 0 0 0 0 0 253 0.001 
2594 1 0.0160737 -0.0447691 -0.0233184 0 0 0 0.353786 -9.0779 12.2913 0 -2.0546e-05 0 0 0 0 0 0 0 0 0 0 0 0 0 0 0 0 0 1035 0.001 
11695 9 0.00605683 -0.0386378 -0.0281875 0 0 0 -0.0486084 -1.22502 2.17172 0 -2.0546e-05 0 0 0 0 0 0 0 0 0 0 0 0 0 0 0 0 0 1013 0.001 
16481 7 0.00323686 -0.0543739 -0.0275632 0 0 0 7.01586e-07 -3.60587e-12 -2.23266e-12 7.98559e-20 0 0 0 0 0 0 0 0 0 0 0 0 0 0 0 0 0 0 176 0.001 
14053 7 0.00551631 -0.0537277 -0.028607 0 0 0 7.83808e-08 -1.63065e-09 2.64146e-09 -1.43288e-15 -1.72128e-15 -8.99237e-16 0 1 0 0 0 0 0 0 0 0 0 0 0 0 0 0 247 0.001 
17560 4 0.000997348 -0.0544298 -0.0274729 0 0 0 -3.02236e-20 8.36415e-17 5.07881e-17 0 0 0 0 0 0 0 0 0 0 0 0 0 0 0 0 0 0 0 158 0.001 
26567 4 0.00647417 -0.0546887 -0.0269739 0 0 0 7.76665e-08 -8.93013e-13 -3.45955e-13 -2.83724e-21 0 0 0 0 0 0 0 0 0 0 0 0 0 0 0 0 0 0 430 0.001 
13766 11 0.0135184 -0.0549611 -0.0262712 0 0 0 1.85789e-09 -3.39184e-11 -6.29993e-11 -4.27176e-16 -4.04754e-15 -1.59508e-15 0 0 0 0 0 0 0 0 0 0 1 0 0 0 0 0 48 0.001 
12294 1 0.00271474 -0.0551737 -0.0257219 0 0 0 1.3253e-07 1.46817e-12 5.68771e-13 2.55153e-18 0 0 0 0 0 0 0 0 0 0 0 0 0 0 0 0 0 0 108 0.001 
23879 4 0.0155102 -0.0550042 -0.0261589 0 0 0 -1.85791e-09 3.37093e-11 6.29204e-11 2.42319e-16 -3.322e-15 -1.27762e-15 0 0 0 0 0 0 0 0 0 0 1 0 0 0 0 0 469 0.001 
11282 6 0.0184511 -0.0553078 -0.0253758 0 0 0 -9.21196e-08 3.58193e-13 1.38745e-13 1.04142e-18 0 0 0 0 0 0 0 0 0 0 0 0 0 0 0 0 0 0 895 0.001 
32511 4 0.00919539 -0.0522634 -0.0224375 0 0 0 0.129507 -3.02034 5.65281 0 -2.0546e-05 0 0 0 0 0 0 0 0 0 0 0 0 0 0 0 0 0 345 0.001 
41137 9 0.0171583 -0.0509508 -0.0221613 0 0 0 0.947715 -8.55307 6.20697 0 -2.0546e-05 0 0 0 0 0 0 0 0 0 0 0 0 0 0 0 0 0 100 0.001 