ITEM: TIMESTEP
16500000
ITEM: NUMBER OF ENTRIES
61
ITEM: BOX BOUNDS ff ff ff
-0.01 0.45
-0.15 0.15
-0.08 0.1
ITEM: ENTRIES c_pwc[1] c_pwc[2] c_pwc[3] 
0 1187 8133 
0 1169 8243 
1 1322 7919 
1 1721 7932 
1 1714 7932 
1 1320 7919
