ITEM: TIMESTEP
16600000
ITEM: NUMBER OF ENTRIES
82
ITEM: BOX BOUNDS ff ff ff
-0.01 0.45
-0.15 0.15
-0.08 0.1
ITEM: ENTRIES c_pwc[1] c_pwc[2] c_pwc[3] 
0 1176 8264 
0 597 8232 
0 608 7574 
0 1208 7998 
0 1201 8188 
0 1165 8297 
0 651 8221 
0 633 8251 
1 1901 8297 
1 2282 8188 
1 2281 8188 
1 2284 8188 
1 2286 8188 
1 2285 8188 
0 922 8155 
0 915 8046 
0 905 8124 
0 900 7793 
0 897 8127 
0 891 8199 
0 887 8157 
0 887 8009 
0 886 8157 
0 618 7638 
0 584 7992 
0 613 7068 
0 603 8207 
0 601 7628 
0 591 8175 
1 1712 8153 
1 1717 8153 
0 957 8236 
0 949 8139 
0 941 7658 
0 931 7758 
0 927 7964 
0 924 8131 
0 638 8274 
0 637 8274 
1 1740 8214 
1 1726 8214 
1 1727 8214 
1 2161 8131 
1 2175 8131 
0 1810 7382 
0 1527 7641 
0 1523 7722 
0 1521 7765 
0 1517 8117 
0 1510 7893 
0 1509 8120 
0 1494 8177 
0 1842 7841 
0 1841 7841 
0 1567 7425 
0 1562 7313 
0 1561 7313 
0 1551 7910 
0 1551 7945 
0 1536 6185 
0 1531 8077 
0 1531 8074 
0 1531 8018 
1 2777 7841 
0 1924 6826 
0 1904 7514 
0 80 7789 
0 81 7582 
0 89 7483 
0 96 7016 
0 122 7701 
0 125 7768 
0 126 7002 
0 143 7700 
0 150 7483 
0 154 7615 
0 210 7852 
1 1599 7002 
1 1579 7002 
1 1579 8053 
0 183 6611 
0 171 7262 
