ITEM: TIMESTEP
16550000
ITEM: NUMBER OF ENTRIES
73
ITEM: BOX BOUNDS ff ff ff
-0.01 0.45
-0.15 0.15
-0.08 0.1
ITEM: ENTRIES c_pwc[1] c_pwc[2] c_pwc[3] 
0 1175 8214 
0 1166 8275 
0 609 7992 
0 582 8236 
0 1137 8235 
0 1131 8256 
0 1131 8250 
0 647 8234 
1 2690 8271 
0 919 8045 
0 917 8120 
0 911 7994 
0 905 7986 
0 905 7581 
0 903 8187 
0 897 7769 
0 891 8081 
0 891 7796 
0 886 8182 
0 618 8227 
0 612 7728 
0 609 8124 
0 591 7932 
0 582 8051 
1 1713 8051 
1 1715 8202 
1 1717 8051 
0 951 8047 
0 950 8177 
0 945 7739 
0 942 8050 
0 941 7964 
0 939 8018 
0 935 8218 
0 935 8030 
0 642 8231 
0 620 8188 
0 629 7952 
1 2623 8050 
0 1527 7879 
0 1510 7385 
0 1496 7520 
0 1492 7936 
0 1850 7402 
0 1839 7863 
0 1547 7400 
0 1542 7788 
1 2791 7863 
1 2183 8062 
0 1917 6873 
0 102 7507 
0 126 6256 
0 142 6106 
0 154 7883 
0 194 7507 
0 205 6956 
0 211 6747 
0 221 7514 
0 223 7514 
0 1809 7565 
1 1579 7073 
1 1579 6256 
1 1599 7073 
1 1599 6256 
0 85 7254 
0 187 7647 
0 186 7254 
0 164 7803 
0 165 7594 
0 169 7884 
0 175 7768 
0 1851 7700 
0 1829 7336 
