ITEM: TIMESTEP
9600000
ITEM: NUMBER OF ATOMS
1177
ITEM: BOX BOUNDS ff ff ff
-0.01 0.45
-0.15 0.15
-0.08 0.1
ITEM: ATOMS id type x y z ix iy iz vx vy vz fx fy fz c_cc_1 c_cc_2 c_cc_3 c_cc_4 c_cc_5 c_cc_6 c_cc_7 c_cc_8 c_cc_9 c_cc_10 c_cc_11 c_cc_12 c_cc_13 c_cc_14 c_cc_15 c_cc_16 f_fppacc radius 
339 4 0.00523483 -0.0405872 0.0409839 0 0 0 0.0569397 13.1802 13.006 0 -0.000164368 0 0 0 0 0 0 0 0 0 0 0 0 0 0 0 0 0 30 0.002 
891 2 0.0123239 -0.0320685 -0.0480653 0 0 0 1.54217 -8.20424 4.65806 0 -0.000164368 0 0 0 0 0 0 0 0 0 0 0 0 0 0 0 0 0 11 0.002 
317 11 0.0117184 0.0321115 -0.0162539 0 0 0 0.83063 -3.40297 0.0879888 0 -0.000164368 0 0 0 0 0 0 0 0 0 0 0 0 0 0 0 0 0 28 0.002 
156 4 0.00962319 0.0323015 0.0247534 0 0 0 0.0143108 0.817674 -1.29947 0 -0.000164368 0 0 0 0 0 0 0 0 0 0 0 0 0 0 0 0 0 31 0.002 
547 4 0.0054614 0.00612276 0.0570068 0 0 0 0.778218 -2.08122 -1.61416 0 -0.000164368 0 0 0 0 0 0 0 0 0 0 0 0 0 0 0 0 0 46 0.002 
41 1 0.0151244 0.0528567 -0.0355 0 0 0 -2.22652e-308 -2.03637e-20 1.11885e-12 -1.24137e-306 -1.35525e-20 0 0 0 0 0 0 0 0 0 0 0 0 0 0 0 0 0 2 0.002 
813 6 0.0051587 0.0418387 -0.0357169 0 0 0 0.727846 -0.588865 -5.75688 0 -0.000164368 0 0 0 0 0 0 0 0 0 0 0 0 0 0 0 0 0 21 0.002 
1115 2 0.0107866 0.0747121 -0.0314626 0 0 0 -0.261688 -0.0108504 1.23253 0 -0.000164368 0 0 0 0 0 0 0 0 0 0 0 0 0 0 0 0 0 0 0.002 
457 6 0.00605046 0.0561412 -0.0286101 0 0 0 1.00303 -0.346363 1.11331 0 -0.000164368 0 0 0 0 0 0 0 0 0 0 0 0 0 0 0 0 0 25 0.002 
313 1 0.0161159 0.0480522 -0.0121982 0 0 0 1.78764 -1.70362 -0.524015 0 -0.000164368 0 0 0 0 0 0 0 0 0 0 0 0 0 0 0 0 0 29 0.002 
122 5 0.00925966 0.043721 -0.011213 0 0 0 -0.845794 -2.98001 -1.30361 0 -0.000164368 0 0 0 0 0 0 0 0 0 0 0 0 0 0 0 0 0 49 0.002 
886 5 0.00545438 0.0637662 0.00091337 0 0 0 0.643984 0.168239 -0.761845 0 -0.000164368 0 0 0 0 0 0 0 0 0 0 0 0 0 0 0 0 0 18 0.002 
519 1 0.0152105 0.0649592 -0.00177353 0 0 0 -0.834315 1.74144 -6.95284 0 -0.000164368 0 0 0 0 0 0 0 0 0 0 0 0 0 0 0 0 0 30 0.002 
1181 6 0.00271784 0.0721971 -0.00199518 0 0 0 0.359826 7.44392 -15.7189 2.26036 -0.954856 0.60487 0 0 0 0 0 0 0 0 0 0 0 0 0 0 0 0 0 0.002 
536 2 0.0105407 0.0720613 0.0055948 0 0 0 3.60253 5.63457 -1.99 -0.763542 0.53307 -0.703495 0 1 0 0 0 0 0 0 0 0 0 0 0 0 0 0 29 0.002 
465 4 0.00413515 0.0709652 0.00810488 0 0 0 0.578746 0.761839 -0.927065 0 -0.000164368 0 0 0 0 0 0 0 0 0 0 0 0 0 0 0 0 0 37 0.002 
283 10 0.00970309 0.0693841 0.0084143 0 0 0 4.09038 12.4052 -13.5997 0.763542 -0.533399 0.703495 0 1 0 0 0 0 0 0 0 0 0 0 0 0 0 0 21 0.002 
695 2 0.0148468 0.0382241 0.0110746 0 0 0 -0.281276 -1.61842 -0.374658 0 -0.000164368 0 0 0 0 0 0 0 0 0 0 0 0 0 0 0 0 0 19 0.002 
527 8 0.00734548 0.072048 0.0110139 0 0 0 -0.447353 0.257155 -0.82937 0 -0.000164368 0 0 0 0 0 0 0 0 0 0 0 0 0 0 0 0 0 28 0.002 
480 3 0.0177785 0.0642774 0.0161887 0 0 0 0.0678356 -0.513643 4.38259 0 -0.000164368 0 0 0 0 0 0 0 0 0 0 0 0 0 0 0 0 0 31 0.002 
175 5 0.0170955 0.073082 0.0160603 0 0 0 -1.09488 -0.47114 1.34396 0 -0.000164368 0 0 0 0 0 0 0 0 0 0 0 0 0 0 0 0 0 17 0.002 
1121 3 0.0141445 0.0623066 0.0106508 0 0 0 -4.9861 -2.87774 1.75585 0 -0.000164368 0 0 0 0 0 0 0 0 0 0 0 0 0 0 0 0 0 0 0.002 
1082 1 0.00299303 0.072111 0.0147278 0 0 0 1.27821 1.82579 -2.2871 -0.109267 0.000673453 -0.00203426 0 0 0 0 0 0 0 0 0 0 0 0 0 0 0 0 13 0.002 
324 5 0.00651125 0.0709476 0.018111 0 0 0 -0.699496 1.78295 0.014096 0.117295 -0.321629 -0.0961994 0 0 0 0 1 0 0 0 0 0 0 0 0 0 0 0 35 0.002 
650 3 0.0095306 0.0735574 0.0176544 0 0 0 0.568959 1.47733 -1.25476 0 -0.000164368 0 0 0 0 0 0 0 0 0 0 0 0 0 0 0 0 0 27 0.002 
1199 14 0.0140403 0.0545691 0.0285465 0 0 0 -8.52604 -3.59457 17.6876 0 -0.000164368 0 0 0 0 0 0 0 0 0 0 0 0 0 0 0 0 0 0 0.002 
726 1 0.00310958 0.0699087 0.0211225 0 0 0 0.0354963 0.0684741 -0.209783 0 -0.000164368 0 0 0 0 0 0 0 0 0 0 0 0 0 0 0 0 0 22 0.002 
235 3 0.0152879 0.0685791 0.0195235 0 0 0 0.090558 -0.183367 -0.312975 0 -0.000164368 0 0 0 0 0 0 0 0 0 0 0 0 0 0 0 0 0 44 0.002 
922 5 0.0173353 0.072105 0.0200177 0 0 0 0.350115 -1.48427 2.42922 0.0503407 -0.0874856 -0.117997 0 0 0 0 1 0 0 0 0 0 0 0 0 0 0 0 7 0.002 
1031 3 0.0050276 0.0734764 0.020633 0 0 0 -0.330081 1.28039 -0.185667 -0.0824931 0.275175 0.0117696 0 0 1 0 1 0 0 0 0 0 0 0 0 0 0 0 11 0.002 
540 4 0.00546306 0.0658491 0.0225285 0 0 0 0.461952 0.532391 -0.994125 0 -0.000164368 0 0 0 0 0 0 0 0 0 0 0 0 0 0 0 0 0 31 0.002 
1065 3 0.0086493 0.0689626 0.022525 0 0 0 0.595107 0.698089 -0.31645 0 -0.000164368 0 0 0 0 0 0 0 0 0 0 0 0 0 0 0 0 0 10 0.002 
278 11 0.0115697 0.0744469 0.0225761 0 0 0 0.261714 0.302207 -0.209384 0 -0.000164368 0 0 0 0 0 0 0 0 0 0 0 0 0 0 0 0 0 36 0.002 
9 6 0.0159321 0.0747003 0.0225799 0 0 0 0.00514654 -0.0802737 0.876374 -0.0529603 0.0760139 0.122653 0 0 0 0 1 1 0 0 0 0 0 0 0 0 0 0 47 0.002 
713 7 0.0088414 0.0583914 0.0254707 0 0 0 -0.124031 -0.287909 -0.184478 0 -0.000164368 0 0 0 0 0 0 0 0 0 0 0 0 0 0 0 0 0 29 0.002 
300 1 0.0102461 0.0631078 0.023945 0 0 0 -0.389891 -0.236078 -0.434403 0 -0.000164368 0 0 0 0 0 0 0 0 0 0 0 0 0 0 0 0 0 33 0.002 
797 6 0.0153612 0.0656922 0.0235072 0 0 0 0.0500862 -0.177045 -0.105373 0 -0.000164368 0 0 0 0 0 0 0 0 0 0 0 0 0 0 0 0 0 26 0.002 
674 10 0.00313317 0.0680825 0.0254463 0 0 0 0.0852228 -0.0804206 -0.23262 0 -0.000164368 0 0 0 0 0 0 0 0 0 0 0 0 0 0 0 0 0 26 0.002 
261 1 0.0167858 0.0696614 0.0254808 0 0 0 -0.0370606 -0.190063 0.0105497 0 -0.000164368 0 0 0 0 0 0 0 0 0 0 0 0 0 0 0 0 0 33 0.002 
827 2 0.00654071 0.0707417 0.0255771 0 0 0 -0.0772465 0.24437 -0.0964395 -0.00145411 -0.00248034 -0.00167056 0 0 0 0 0 0 0 0 0 0 0 0 0 0 0 0 21 0.002 
653 9 0.0139469 0.0724713 0.0252556 0 0 0 -0.0308755 -0.154324 -0.0478271 0 -0.000164368 0 0 0 0 0 0 0 0 0 0 0 0 0 0 0 0 0 19 0.002 
907 8 0.00301242 0.0736512 0.0255508 0 0 0 -0.000509005 0.082964 -0.163365 0 -0.000164368 0 0 0 0 0 0 0 0 0 0 0 0 0 0 0 0 0 20 0.002 
1196 5 0.0114462 0.0443832 0.0365904 0 0 0 1.04814 13.1472 -12.4044 0 -0.000164368 0 0 0 0 0 0 0 0 0 0 0 0 0 0 0 0 0 0 0.002 
1066 1 0.00480118 0.0638653 0.0265317 0 0 0 0.0634034 0.269219 -0.867977 0 -0.000164368 0 0 0 0 0 0 0 0 0 0 0 0 0 0 0 0 0 21 0.002 
516 2 0.012147 0.0681321 0.0258032 0 0 0 -0.0465548 -0.138642 -0.151077 0 -0.000164368 0 0 0 0 0 0 0 0 0 0 0 0 0 0 0 0 0 34 0.002 
854 2 0.00975735 0.0726786 0.0269532 0 0 0 0.0430361 -0.174112 -0.11108 0.00145411 0.00215161 0.00167056 0 0 0 0 0 0 0 0 0 0 0 0 0 0 0 0 24 0.002 
976 5 0.0174869 0.0733244 0.026935 0 0 0 0.0176856 -0.142671 -0.0936878 -9.22687e-05 7.4863e-05 8.26999e-05 0 0 0 0 2 0 0 0 0 0 0 0 0 0 0 0 7 0.002 
72 3 0.00930844 0.0650079 0.0284965 0 0 0 -0.140003 -0.0711587 -0.198069 0 -0.000164368 0 0 0 0 0 0 0 0 0 0 0 0 0 0 0 0 0 44 0.002 
123 8 0.00302019 0.0670225 0.029318 0 0 0 -0.0101516 0.0589264 -0.169733 -0.00638337 -0.000428876 0.000472735 0 0 0 0 0 0 0 1 0 0 0 0 0 0 0 0 41 0.002 
350 8 0.0144974 0.0674668 0.0289709 0 0 0 -0.0824163 -0.0424615 -0.0689993 0.00166199 0.00233675 -0.00275821 0 0 0 0 0 0 0 1 0 0 0 0 0 0 0 0 33 0.002 
1058 2 0.0184237 0.0661312 0.0295706 0 0 0 -0.229221 -0.313498 0.0696295 0 -0.000164368 0 0 0 0 0 0 0 0 0 0 0 0 0 0 0 0 0 16 0.002 
593 1 0.00684142 0.0681689 0.0294408 0 0 0 -0.0130457 -0.0803635 -0.13599 0.00674226 6.04771e-05 -0.000538216 1 0 0 0 0 0 0 1 0 0 0 0 0 0 0 0 32 0.002 
526 2 0.0106092 0.0694912 0.0292532 0 0 0 0.0386621 -0.121419 -0.106198 0.000533895 0.000107401 -6.66677e-05 1 1 0 0 0 0 0 0 0 0 0 0 0 0 0 0 18 0.002 
199 4 0.0030119 0.0709606 0.0285483 0 0 0 -0.02003 -0.0282283 -0.150611 6.47908e-05 -0.00262538 -0.000714119 0 0 0 1 0 0 0 0 0 0 0 0 0 0 0 0 42 0.002 
308 1 0.00672463 0.0723856 0.029569 0 0 0 0.0684114 -0.183798 -0.0662081 -0.000106565 -0.00119851 0.000359155 0 0 0 0 0 0 0 0 0 0 0 0 0 0 0 0 48 0.002 
377 4 0.0139792 0.0716426 0.0293099 0 0 0 -0.0568649 0.110566 -0.0676716 -0.00148999 0.000417999 0.000177261 0 1 0 1 0 0 0 0 0 0 0 0 0 0 0 0 46 0.002 
1103 1 0.0177582 0.0703612 0.0296066 0 0 0 -0.0959627 -0.112681 -0.0304695 -3.98362e-05 1.82037e-05 0.00043573 1 0 0 0 1 0 0 0 0 0 0 0 0 0 0 0 10 0.002 
895 10 0.00317532 0.0748451 0.0294619 0 0 0 -0.0222786 -0.0659564 0.0233016 -0.000376884 0.000992031 0.000874255 0 0 0 1 0 0 0 0 0 1 0 0 0 0 0 0 37 0.002 
399 3 0.0116972 0.0748906 0.0297886 0 0 0 -0.156625 0.105081 -0.0782219 0.000597203 -0.000978842 -4.51131e-05 0 0 0 1 0 0 0 0 0 0 0 0 0 0 0 0 35 0.002 
814 13 0.0030732 0.0573758 0.0318622 0 0 0 0.505614 -1.42085 -0.770846 0 -0.000164368 0 0 0 0 0 0 0 0 0 0 0 0 0 0 0 0 0 35 0.002 
126 2 0.0162735 0.0620622 0.0320822 0 0 0 0.0168184 -0.00253346 -0.321624 0 -0.000164368 0 0 0 0 0 0 0 0 0 0 0 0 0 0 0 0 0 24 0.002 
471 5 0.0124863 0.0651854 0.0315468 0 0 0 -0.133441 -0.158865 -0.0261221 0.00327794 -0.00358802 -0.000484575 0 0 0 0 1 0 0 1 0 0 0 0 0 0 0 0 39 0.002 
727 2 0.0115179 0.060064 0.0326854 0 0 0 -0.138129 -0.377948 -0.130605 0 -0.000164368 0 0 0 0 0 0 0 0 0 0 0 0 0 0 0 0 0 25 0.002 
796 15 0.00307561 0.0625067 0.0329998 0 0 0 0.0126274 -0.238856 -0.00376408 0 -0.000164368 0 0 0 0 0 0 0 0 0 0 0 0 0 0 0 0 0 30 0.002 
1012 7 0.00844106 0.062785 0.0327547 0 0 0 -0.11467 -0.274515 -0.0421414 0 -0.000164368 0 0 0 0 0 0 0 0 0 0 0 0 0 0 0 0 0 24 0.002 
961 1 0.00560868 0.0658218 0.0328913 0 0 0 -0.046294 -0.144291 -0.0539328 0 -0.000164368 0 0 0 0 0 0 0 0 0 0 0 0 0 0 0 0 0 10 0.002 
297 3 0.00954793 0.0674549 0.0330051 0 0 0 -0.108296 -0.106007 0.0110717 -0.00438718 0.00406373 -0.00346014 0 0 0 0 1 0 0 0 0 0 0 0 0 0 0 0 42 0.002 
1052 1 0.0161529 0.0660081 0.0329703 0 0 0 -0.067682 -0.0213425 -0.0241059 0 -0.000164368 0 0 0 0 0 0 0 0 0 0 0 0 0 0 0 0 0 12 0.002 
438 2 0.00299701 0.0689008 0.0329832 0 0 0 0.00161825 -0.0619084 -0.00010404 0.000653338 -0.00373473 3.07882e-05 0 1 0 0 0 0 0 0 0 0 0 0 0 0 0 0 36 0.002 
768 6 0.0146969 0.0697341 0.0329657 0 0 0 -0.133739 -0.0642676 -0.0123574 0 -0.000164368 0 0 0 0 0 0 0 0 0 0 0 0 0 0 0 0 0 18 0.002 
662 1 0.0067272 0.0703346 0.0330008 0 0 0 0.0194945 -0.0817585 -0.00521915 0.00103485 -0.000769483 0.000166582 0 1 0 0 0 0 0 0 0 0 0 0 0 0 0 0 30 0.002 
945 9 0.0106208 0.071325 0.0329165 0 0 0 0.0490976 -0.101071 0.0284084 0 -0.000164368 0 0 0 0 0 0 0 0 0 0 0 0 0 0 0 0 0 11 0.002 
821 3 0.0179482 0.0725901 0.0329179 0 0 0 -0.0736346 -0.0980878 0.0215219 -0.000120938 -0.00261693 -0.00171469 1 0 1 0 0 0 0 0 0 0 0 0 0 0 0 0 16 0.002 
263 2 0.00299867 0.0728929 0.0329844 0 0 0 -0.000537834 -0.0858019 -0.00960009 0.00141447 0.0043263 0.000154101 0 1 0 0 0 0 0 0 0 0 0 0 0 0 0 0 29 0.002 
463 9 0.0074882 0.0748234 0.032898 0 0 0 -0.0980964 -0.100707 0.113017 0 -0.000164368 0 0 0 0 0 0 0 0 0 0 0 0 0 0 0 0 0 33 0.002 
121 2 0.0140015 0.0736933 0.0329724 0 0 0 -0.114583 -0.0669731 0.0102034 -0.000141275 -0.0005002 0.000212305 0 1 0 0 0 0 0 0 0 0 0 0 0 0 0 0 38 0.002 
430 4 0.00390322 0.102556 -0.0324046 0 0 0 0.803733 0.144359 1.05825 0 -0.000164368 0 0 0 0 0 0 0 0 0 0 0 0 0 0 0 0 0 37 0.002 
167 2 0.00683418 0.10599 -0.0326533 0 0 0 1.06251 -0.319499 -0.254713 0 -0.000164368 0 0 0 0 0 0 0 0 0 0 0 0 0 0 0 0 0 27 0.002 
1178 2 0.0126761 0.106019 -0.0327814 0 0 0 0.21353 -0.300432 0.366193 0 -0.000164368 0 0 0 0 0 0 0 0 0 0 0 0 0 0 0 0 0 0 0.002 
938 2 0.0162987 0.107906 -0.031981 0 0 0 0.63322 0.182782 -0.107741 0 -0.000164368 0 0 0 0 0 0 0 0 0 0 0 0 0 0 0 0 0 8 0.002 
760 3 0.00484212 0.0943108 -0.0304374 0 0 0 0.276767 -1.26018 0.35201 0 -0.000164368 0 0 0 0 0 0 0 0 0 0 0 0 0 0 0 0 0 20 0.002 
678 9 0.00311052 0.107095 -0.0305504 0 0 0 0.257138 0.870999 -0.0551584 0 -0.000164368 0 0 0 0 0 0 0 0 0 0 0 0 0 0 0 0 0 29 0.002 
638 6 0.0102765 0.105869 -0.0295264 0 0 0 1.02081 -0.292702 1.34822 0 -0.000164368 0 0 0 0 0 0 0 0 0 0 0 0 0 0 0 0 0 23 0.002 
598 1 0.00687096 0.107986 -0.0291528 0 0 0 0.653765 -0.24351 0.193652 0 -0.000164368 0 0 0 0 0 0 0 0 0 0 0 0 0 0 0 0 0 30 0.002 
960 3 0.00464952 0.10623 -0.0257939 0 0 0 -1.66483 2.985 1.58196 0 -0.000164368 0 0 0 0 0 0 0 0 0 0 0 0 0 0 0 0 0 11 0.002 
140 4 0.0111802 0.0888789 -0.0229608 0 0 0 -1.04343 4.51072 3.22249 0 -0.000164368 0 0 0 0 0 0 0 0 0 0 0 0 0 0 0 0 0 30 0.002 
635 4 0.00722282 0.076471 -0.0212514 0 0 0 1.18093 -0.210754 2.02859 0 -0.000164368 0 0 0 0 0 0 0 0 0 0 0 0 0 0 0 0 0 40 0.002 
1003 7 0.00789505 0.0810403 -0.0201568 0 0 0 0.987676 1.70265 1.15271 0 -0.000164368 0 0 0 0 0 0 0 0 0 0 0 0 0 0 0 0 0 14 0.002 
570 1 0.0144122 0.105322 -0.0211839 0 0 0 0.273555 -0.432487 0.709967 0 -0.000164368 0 0 0 0 0 0 0 0 0 0 0 0 0 0 0 0 0 33 0.002 
932 2 0.0170474 0.0880101 -0.0187252 0 0 0 0.83867 0.685956 -1.29878 0 -0.000164368 0 0 0 0 0 0 0 0 0 0 0 0 0 0 0 0 0 15 0.002 
782 1 0.0106422 0.0910705 -0.0133421 0 0 0 6.76354 1.33726 8.83642 0.196188 -0.730053 -0.964972 1 0 0 0 0 0 0 0 0 0 0 0 0 0 0 0 6 0.002 
272 2 0.00559958 0.102767 -0.0152267 0 0 0 -0.909046 0.778149 -1.21333 0 -0.000164368 0 0 0 0 0 0 0 0 0 0 0 0 0 0 0 0 0 42 0.002 
1169 3 0.00819944 0.106209 -0.0118029 0 0 0 0.127841 0.269553 -0.0929988 0 -0.000164368 0 0 0 0 0 0 0 0 0 0 0 0 0 0 0 0 0 1 0.002 
629 8 0.0119779 0.0912259 -0.0096545 0 0 0 0.252932 -0.0394719 -0.094974 -0.196188 0.729724 0.964972 1 0 0 0 0 0 0 0 0 0 0 0 0 0 0 0 35 0.002 
632 6 0.00459311 0.106899 -0.00915208 0 0 0 -0.0244609 0.462978 -0.0184804 0 -0.000164368 0 0 0 0 0 0 0 0 0 0 0 0 0 0 0 0 0 30 0.002 
941 3 0.0104005 0.102022 -0.0062484 0 0 0 -1.49666 -0.426161 0.187942 0 -0.000164368 0 0 0 0 0 0 0 0 0 0 0 0 0 0 0 0 0 20 0.002 
1063 3 0.00810518 0.0830196 -0.00556613 0 0 0 0.332192 -0.638599 -0.483297 0 -0.000164368 0 0 0 0 0 0 0 0 0 0 0 0 0 0 0 0 0 10 0.002 
92 2 0.0148457 0.101031 -0.00363688 0 0 0 -0.127308 0.457142 0.820915 0 -0.000164368 0 0 0 0 0 0 0 0 0 0 0 0 0 0 0 0 0 39 0.002 
1040 3 0.00385605 0.105307 -0.00517576 0 0 0 0.0131319 0.384342 0.0046479 0 -0.000164368 0 0 0 0 0 0 0 0 0 0 0 0 0 0 0 0 0 13 0.002 
1154 12 0.0185146 0.0901046 -0.00321588 0 0 0 -0.316464 -0.53544 0.694047 0 -0.000164368 0 0 0 0 0 0 0 0 0 0 0 0 0 0 0 0 0 1 0.002 
306 3 0.00362362 0.103076 -0.00185645 0 0 0 0.217694 0.19426 -0.07533 0 -0.000164368 0 0 0 0 0 0 0 0 0 0 0 0 0 0 0 0 0 40 0.002 
1086 9 0.0176378 0.107966 -0.00838546 0 0 0 -2.58169 -0.375273 -0.499955 0 -0.000164368 0 0 0 0 0 0 0 0 0 0 0 0 0 0 0 0 0 7 0.002 
690 2 0.00711197 0.105513 -0.00132365 0 0 0 -0.771902 -0.0595533 1.35142 0 -0.000164368 0 0 0 0 0 0 0 0 0 0 0 0 0 0 0 0 0 15 0.002 
452 8 0.0143383 0.092275 0.000343613 0 0 0 -1.05978 3.25212 1.39087 0 -0.000164368 0 0 0 0 0 0 0 0 0 0 0 0 0 0 0 0 0 31 0.002 
77 12 0.00756118 0.09715 -2.6279e-05 0 0 0 -4.54856 5.63391 -0.175622 0 -0.000164368 0 0 0 0 0 0 0 0 0 0 0 0 0 0 0 0 0 37 0.002 
627 2 0.00338051 0.0995877 0.00085565 0 0 0 -0.0466758 0.333845 0.504373 0 -0.000164368 0 0 0 0 0 0 0 0 0 0 0 0 0 0 0 0 0 36 0.002 
1142 2 0.0156815 0.10534 -0.000576835 0 0 0 -0.0364002 -0.568863 -0.127202 0 -0.000164368 0 0 0 0 0 0 0 0 0 0 0 0 0 0 0 0 0 2 0.002 
552 8 0.0130413 0.0871743 0.000509327 0 0 0 1.19272 0.441223 -0.617781 0 -0.000164368 0 0 0 0 0 0 0 0 0 0 0 0 0 0 0 0 0 30 0.002 
1186 8 0.00983759 0.0902781 0.00369805 0 0 0 0.457465 0.780597 1.45404 0 -0.000164368 0 0 0 0 0 0 0 0 0 0 0 0 0 0 0 0 0 0 0.002 
397 3 0.005516 0.107771 0.00226812 0 0 0 0.0660449 -0.491677 0.652605 0 -0.000164368 0 0 0 0 0 0 0 0 0 0 0 0 0 0 0 0 0 41 0.002 
781 2 0.00522932 0.0924471 0.00463021 0 0 0 0.418925 -0.525799 -0.413595 0 -0.000164368 0 0 0 0 0 0 0 0 0 0 0 0 0 0 0 0 0 32 0.002 
763 3 0.0117278 0.0857102 0.00685942 0 0 0 -0.0495346 2.48954 -0.423563 0 -0.000164368 0 0 0 0 0 0 0 0 0 0 0 0 0 0 0 0 0 28 0.002 
716 5 0.0158859 0.0919797 0.00611735 0 0 0 0.717597 -0.198744 -0.10801 0 -0.000164368 0 0 0 0 0 0 0 0 0 0 0 0 0 0 0 0 0 14 0.002 
928 2 0.012699 0.0950723 0.00598417 0 0 0 0.274299 -0.27263 0.0345891 0 -0.000164368 0 0 0 0 0 0 0 0 0 0 0 0 0 0 0 0 0 20 0.002 
790 3 0.0163958 0.0964759 0.00697366 0 0 0 0.461046 0.243641 0.223101 0 -0.000164368 0 0 0 0 0 0 0 0 0 0 0 0 0 0 0 0 0 23 0.002 
877 4 0.0146615 0.102248 0.00722276 0 0 0 -0.00540542 0.894917 0.355956 0 -0.000164368 0 0 0 0 0 0 0 0 0 0 0 0 0 0 0 0 0 17 0.002 
1185 6 0.00537748 0.107585 0.00629674 0 0 0 0.122793 -0.20346 0.772506 0 -0.000164368 0 0 0 0 0 0 0 0 0 0 0 0 0 0 0 0 0 1 0.002 
590 2 0.004641 0.0854809 0.00908178 0 0 0 -0.502965 0.8601 -0.755909 0 -0.000164368 0 0 0 0 0 0 0 0 0 0 0 0 0 0 0 0 0 35 0.002 
1191 3 0.00455629 0.0939123 0.00994347 0 0 0 0.17779 0.052602 0.13639 0 -0.000164368 0 0 0 0 0 0 0 0 0 0 0 0 0 0 0 0 0 0 0.002 
490 2 0.0132964 0.0766971 0.0114434 0 0 0 -1.48255 1.83508 -0.441386 0 -0.000164368 0 0 0 0 0 0 0 0 0 0 0 0 0 0 0 0 0 54 0.002 
1088 8 0.0176827 0.0765386 0.0118971 0 0 0 -0.0563834 2.09858 1.91578 0 -0.000164368 0 0 0 0 0 0 0 0 0 0 0 0 0 0 0 0 0 3 0.002 
789 5 0.00773988 0.0872444 0.0118299 0 0 0 0.516328 0.0849035 -0.401506 0 -0.000164368 0 0 0 0 0 0 0 0 0 0 0 0 0 0 0 0 0 25 0.002 
947 4 0.015367 0.092767 0.0107284 0 0 0 0.0612556 0.207403 -0.263962 0 -0.000164368 0 0 0 0 0 0 0 0 0 0 0 0 0 0 0 0 0 13 0.002 
591 9 0.0102518 0.0954684 0.0106227 0 0 0 0.331302 -0.00313693 0.342955 0 -0.000164368 0 0 0 0 0 0 0 0 0 0 0 0 0 0 0 0 0 15 0.002 
881 1 0.00449581 0.105252 0.0108675 0 0 0 -0.0136122 -0.149264 0.179707 0 -0.000164368 0 0 0 0 0 0 0 0 0 0 0 0 0 0 0 0 0 24 0.002 
321 7 0.00678194 0.0941925 0.0132828 0 0 0 0.41817 0.128351 0.397935 0 -0.000164368 0 0 0 0 0 0 0 0 0 0 0 0 0 0 0 0 0 21 0.002 
665 2 0.00300415 0.0970681 0.0123425 0 0 0 0.0139117 -0.270824 -0.115572 0 -0.000164368 0 0 0 0 0 0 0 0 0 0 0 0 0 0 0 0 0 18 0.002 
892 5 0.00405654 0.101606 0.0124981 0 0 0 0.146647 -0.157481 0.143545 0.00210148 0.00186779 -0.00240247 0 0 0 0 1 0 0 0 0 0 0 0 0 0 0 0 12 0.002 
103 5 0.0181211 0.102335 0.0127758 0 0 0 -0.349679 0.901729 -0.320084 0 -0.000164368 0 0 0 0 0 0 0 0 0 0 0 0 0 0 0 0 0 36 0.002 
230 6 0.00750347 0.10663 0.0133736 0 0 0 0.0572916 -0.0415398 0.143372 0 -0.000164368 0 0 0 0 0 0 0 0 0 0 0 0 0 0 0 0 0 41 0.002 
1051 10 0.0165844 0.0862575 0.014882 0 0 0 0.13516 -0.28177 -0.242211 0 -0.000164368 0 0 0 0 0 0 0 0 0 0 0 0 0 0 0 0 0 8 0.002 
719 3 0.00447243 0.0906058 0.016136 0 0 0 0.115619 -0.225435 0.166949 0 -0.000164368 0 0 0 0 0 0 0 0 0 0 0 0 0 0 0 0 0 16 0.002 
876 14 0.0177273 0.0903442 0.0156881 0 0 0 -0.0988135 -0.310043 -0.0848655 0 -0.000164368 0 0 0 0 0 0 0 0 0 0 0 0 0 0 0 0 0 12 0.002 
1153 8 0.00951589 0.0916519 0.0166702 0 0 0 0.216332 -0.185193 0.0636046 0 -0.000164368 0 0 0 0 0 0 0 0 0 0 0 0 0 0 0 0 0 3 0.002 
176 2 0.0151556 0.0934756 0.0160713 0 0 0 -0.209493 -0.276072 -0.117302 0.00082204 -0.0338581 0.0120916 0 2 0 0 0 0 0 0 0 0 0 0 0 0 0 0 26 0.002 
425 1 0.00300787 0.0951836 0.0160869 0 0 0 0.00505717 -0.131161 0.0184022 0 -0.000164368 0 0 0 0 0 0 0 0 0 0 0 0 0 0 0 0 0 37 0.002 
1155 5 0.0113128 0.0955895 0.0167582 0 0 0 -0.143099 -0.446121 0.246275 -0.0408124 -0.0198844 -0.00313551 0 0 0 0 1 0 0 0 0 0 0 0 0 0 0 0 3 0.002 
1188 4 0.0148107 0.0974137 0.016468 0 0 0 0.037491 -0.476016 0.696411 0.0389676 0.0531214 -0.0096144 0 1 0 0 1 0 0 0 0 0 0 0 0 0 0 0 2 0.002 
534 13 0.00298468 0.100371 0.0161415 0 0 0 0.0590935 -0.0975624 0.12055 0.00810839 -0.00671407 -0.00167645 0 0 0 0 1 0 0 0 0 0 0 0 1 0 0 0 33 0.002 
364 3 0.00696288 0.100245 0.0161453 0 0 0 0.110878 -0.234942 -0.0444928 0.0127104 0.00138936 0.000993289 0 0 0 0 0 0 0 0 0 0 0 0 1 0 0 0 29 0.002 
606 4 0.00352774 0.104822 0.0152269 0 0 0 -0.0782072 -0.157983 0.0873792 0 -0.000164368 0 0 0 0 0 0 0 0 0 0 0 0 0 0 0 0 0 41 0.002 
786 1 0.0170449 0.104198 0.0161763 0 0 0 -0.433272 0.154975 0.228638 0 -0.000164368 0 0 0 0 0 0 0 0 0 0 0 0 0 0 0 0 0 29 0.002 
1123 3 0.0116468 0.1071 0.0164973 0 0 0 0.218275 -0.0380513 0.110782 0 -0.000164368 0 0 0 0 0 0 0 0 0 0 0 0 0 0 0 0 0 0 0.002 
531 1 0.00537577 0.0769768 0.0185133 0 0 0 0.209418 -0.0434997 -0.204009 0 -0.000164368 0 0 0 0 0 0 0 0 0 0 0 0 0 0 0 0 0 48 0.002 
419 10 0.0156298 0.078588 0.017628 0 0 0 0.0908083 -0.0895797 -0.523901 0 -0.000164368 0 0 0 0 0 0 0 0 0 0 0 0 0 0 0 0 0 43 0.002 
522 2 0.00601589 0.0808606 0.0173492 0 0 0 -0.0352037 0.204457 -0.0474375 0 -0.000164368 0 0 0 0 0 0 0 0 0 0 0 0 0 0 0 0 0 43 0.002 
699 9 0.0103161 0.0799816 0.0172526 0 0 0 -0.110675 -0.421149 0.194075 0 -0.000164368 0 0 0 0 0 0 0 0 0 0 0 0 0 0 0 0 0 18 0.002 
984 3 0.0129668 0.0852648 0.0182703 0 0 0 0.0382196 -0.285476 -0.0243991 -0.000335626 0.000644117 4.78047e-05 0 0 1 0 0 0 0 0 0 0 0 0 0 0 0 0 18 0.002 
400 7 0.00808715 0.0870911 0.0172665 0 0 0 0.0905282 -0.201513 -0.142162 0 -0.000164368 0 0 0 0 0 0 0 0 0 0 0 0 0 0 0 0 0 35 0.002 
459 5 0.0184364 0.0954237 0.0172141 0 0 0 -0.114386 -0.127315 0.152078 -0.0161417 0.00166087 -0.00424987 0 1 0 0 1 0 0 0 0 0 0 0 0 0 0 0 22 0.002 
1192 2 0.0120542 0.100807 0.0180559 0 0 0 -0.22878 -0.169759 0.244501 0 -0.000164368 0 0 0 0 0 0 0 0 0 0 0 0 0 0 0 0 0 0 0.002 
762 6 0.00711859 0.104182 0.0186162 0 0 0 0.0488403 -0.0860995 0.144751 0 -0.000164368 0 0 0 0 0 0 0 0 0 0 0 0 0 0 0 0 0 30 0.002 
923 10 0.00311487 0.107882 0.0182179 0 0 0 0.0304126 -0.0530103 -0.0304269 0 -0.000164368 0 0 0 0 0 0 0 0 0 0 0 0 0 0 0 0 0 13 0.002 
503 7 0.0124192 0.0780384 0.0207952 0 0 0 0.303152 0.0799276 -0.113181 0 -0.000164368 0 0 0 0 0 0 0 0 0 0 0 0 0 0 0 0 0 24 0.002 
274 4 0.0174163 0.0815082 0.0197348 0 0 0 0.0574034 -0.217813 -0.258498 0 -0.000164368 0 0 0 0 0 0 0 0 0 0 0 0 0 0 0 0 0 33 0.002 
1116 4 0.00839161 0.0827151 0.0200584 0 0 0 0.0701321 -0.114413 -0.0452256 -0.00409627 0.0127532 -0.00605405 0 0 0 1 0 0 0 0 0 0 0 0 0 0 0 0 14 0.002 
403 8 0.0163475 0.0853206 0.0204397 0 0 0 0.00646903 -0.247144 0.00864182 -2.84048e-05 -9.97603e-05 -1.72621e-05 0 0 0 0 0 0 0 1 0 0 0 0 0 0 0 0 31 0.002 
792 2 0.0030227 0.0887413 0.0201955 0 0 0 0.00444748 -0.198797 0.127478 0 -0.000164368 0 0 0 0 0 0 0 0 0 0 0 0 0 0 0 0 0 16 0.002 
338 6 0.0109311 0.0883046 0.0198686 0 0 0 0.0333599 -0.145319 -0.01524 0.000335626 -0.000972853 -4.78047e-05 0 0 1 0 0 0 0 0 0 0 0 0 0 0 0 0 28 0.002 
579 8 0.00669978 0.0904011 0.0208622 0 0 0 0.0120065 -0.220413 0.0991481 0 -0.000164368 0 0 0 0 0 0 0 0 0 0 0 0 0 0 0 0 0 38 0.002 
742 3 0.0164273 0.0893117 0.020188 0 0 0 -0.0607953 -0.238486 0.0426588 2.84048e-05 -0.000228976 1.72621e-05 0 0 0 0 0 0 0 1 0 0 0 0 0 0 0 0 21 0.002 
904 3 0.0031614 0.092855 0.0195355 0 0 0 -0.00937362 -0.133981 0.0728091 0 -0.000164368 0 0 0 0 0 0 0 0 0 0 0 0 0 0 0 0 0 11 0.002 
954 5 0.0131513 0.091644 0.0202731 0 0 0 0.0361876 -0.177306 -0.0238316 9.03904e-05 -0.000129271 -0.000149942 0 0 0 0 1 0 0 0 0 0 0 0 0 0 0 0 18 0.002 
730 3 0.00699215 0.0944209 0.0206822 0 0 0 -0.118283 -0.147348 0.195912 0 -0.000164368 0 0 0 0 0 0 0 0 0 0 0 0 0 0 0 0 0 17 0.002 
910 15 0.0155092 0.0948621 0.019912 0 0 0 -0.156446 -0.0817829 -0.0123105 -0.000285288 -0.00108783 -0.0026245 0 0 0 0 0 0 0 0 0 0 0 0 0 0 1 0 18 0.002 
287 6 0.00881825 0.0978141 0.0191097 0 0 0 -0.0679541 -0.178535 0.114116 -0.00255777 0.000948244 -0.00157049 0 0 0 0 0 1 0 0 0 0 0 0 0 0 0 0 28 0.002 
554 3 0.00493574 0.0991948 0.0195968 0 0 0 -0.107205 -0.185727 0.309618 -7.3774e-05 5.19953e-05 2.60941e-05 0 0 1 0 0 0 0 0 0 0 0 0 0 0 0 0 16 0.002 
192 7 0.00318268 0.102687 0.0204501 0 0 0 -0.0937232 -0.102516 0.0923671 7.3774e-05 -0.000380732 -2.60941e-05 0 0 1 0 0 0 0 0 0 0 0 0 0 0 0 0 39 0.002 
369 6 0.00830178 0.107323 0.0211073 0 0 0 0.0691945 -0.1161 0.181897 0 -0.000164368 0 0 0 0 0 0 0 0 0 0 0 0 0 0 0 0 0 28 0.002 
1090 12 0.0141556 0.105414 0.0196099 0 0 0 -0.0137963 -0.414949 0.372322 0 -0.000164368 0 0 0 0 0 0 0 0 0 0 0 0 0 0 0 0 0 5 0.002 
639 9 0.00373362 0.0766148 0.0226834 0 0 0 0.0328579 0.133685 -0.0882573 -0.0348014 0.0459608 0.0844298 0 0 0 0 0 0 0 0 1 0 0 0 0 0 0 0 39 0.002 
1147 9 0.00840412 0.0782864 0.02198 0 0 0 0.175832 -0.229996 -0.129664 0 -0.000164368 0 0 0 0 0 0 0 0 0 0 0 0 0 0 0 0 0 4 0.002 
368 5 0.0161143 0.078689 0.0226701 0 0 0 -0.107124 -0.277297 -0.137163 0.00261959 0.0109786 -0.00465642 0 0 0 0 1 0 0 0 0 0 0 0 0 0 0 0 33 0.002 
657 3 0.0121259 0.0820903 0.0213448 0 0 0 -0.113414 0.183528 -0.261059 0.00407833 -0.0129016 0.0056246 0 0 0 1 0 0 0 0 0 0 0 0 0 0 0 0 25 0.002 
1098 3 0.00373015 0.0830308 0.0215723 0 0 0 0.00247927 0.0773646 -0.0513117 0 -0.000164368 0 0 0 0 0 0 0 0 0 0 0 0 0 0 0 0 0 11 0.002 
128 4 0.00641829 0.0859946 0.0212874 0 0 0 -0.0144736 -0.234286 -0.0753502 -0.000366985 -0.000577542 -0.000424922 0 0 0 1 0 0 0 0 0 0 0 0 0 0 0 0 32 0.002 
475 2 0.0127834 0.085886 0.0224698 0 0 0 0.0240952 0.193049 0.0278645 0 -0.000164368 0 0 0 0 0 0 0 0 0 0 0 0 0 0 0 0 0 30 0.002 
751 3 0.0164235 0.0921988 0.0230063 0 0 0 -0.121455 -0.236009 -0.0535414 -0.00296683 -0.00066473 0.000287715 0 0 2 0 0 0 0 0 0 0 0 0 0 0 0 0 26 0.002 
1077 1 0.003007 0.0960916 0.0218913 0 0 0 0.00495423 -0.0707295 -0.00930256 0 -0.000164368 0 0 0 0 0 0 0 0 0 0 0 0 0 0 0 0 0 7 0.002 
543 1 0.0108929 0.0969735 0.0224193 0 0 0 0.050937 -0.0932499 0.0194842 0.00176228 -0.000355628 -0.000537532 1 0 0 0 0 1 0 0 0 0 0 0 0 0 0 0 34 0.002 
211 2 0.00761156 0.100074 0.0224546 0 0 0 0.036567 -0.0327742 0.18001 -0.000102282 -0.000402365 -8.17017e-06 0 1 0 0 0 0 0 0 0 0 0 0 0 0 0 0 22 0.002 
631 1 0.0139872 0.0996796 0.0213739 0 0 0 -0.0616319 -0.174645 0.211617 0 -0.000164368 0 0 0 0 0 0 0 0 0 0 0 0 0 0 0 0 0 36 0.002 
1002 1 0.0175532 0.101008 0.0229292 0 0 0 0.0137774 -0.115563 0.0164091 0 -0.000164368 0 0 0 0 0 0 0 0 0 0 0 0 0 0 0 0 0 8 0.002 
131 7 0.0100956 0.103163 0.0218235 0 0 0 -0.056825 0.00698721 0.269591 0 -0.000164368 0 0 0 0 0 0 0 0 0 0 0 0 0 0 0 0 0 42 0.002 
983 5 0.00319998 0.107167 0.0226291 0 0 0 0.00721403 -0.116276 0.0265398 0 -0.000164368 0 0 0 0 0 0 0 0 0 0 0 0 0 0 0 0 0 11 0.002 
112 6 0.0123295 0.107875 0.0224888 0 0 0 0.0637754 -0.0625114 0.252277 0 -0.000164368 0 0 0 0 0 0 0 0 0 0 0 0 0 0 0 0 0 37 0.002 
741 5 0.0170583 0.107955 0.0223211 0 0 0 -0.0071411 0.00668697 0.349108 0 -0.000164368 0 0 0 0 0 0 0 0 0 0 0 0 0 0 0 0 0 18 0.002 
237 10 0.0185019 0.076881 0.0254162 0 0 0 0.0443552 -0.126188 -0.0958177 -2.20039e-05 -0.000334766 0.000190758 0 0 0 0 0 0 0 0 0 1 0 0 0 0 0 0 39 0.002 
1111 4 0.00382625 0.0794393 0.0255634 0 0 0 -0.0316152 -0.0595193 -0.0535249 -0.000447921 -3.20375e-05 -0.000808264 0 0 0 1 0 0 0 0 0 0 0 0 0 0 0 0 9 0.002 
979 4 0.00739305 0.0825868 0.0239271 0 0 0 0.0944885 -0.145188 -0.0305162 0.00015117 -0.0022321 -0.000496728 0 0 0 2 0 0 0 0 0 0 0 0 0 0 0 0 21 0.002 
862 3 0.0153265 0.082818 0.02467 0 0 0 -0.025113 -0.215274 -0.0813564 -0.00140001 0.000875086 0.000218202 0 0 1 0 0 0 0 0 0 0 0 0 0 0 0 0 21 0.002 
183 9 0.00379099 0.0867743 0.024261 0 0 0 0.0338372 0.0070941 0.00162158 0 -0.000164368 0 0 0 0 0 0 0 0 0 0 0 0 0 0 0 0 0 31 0.002 
299 1 0.0092831 0.0877187 0.0234785 0 0 0 -0.0102852 -0.241238 -0.0769178 -0.000872892 8.33745e-05 -0.000397042 1 0 0 1 0 0 0 0 0 0 0 0 0 0 0 0 31 0.002 
1026 6 0.0186327 0.0875461 0.0237625 0 0 0 0.00490878 -0.167488 -0.0302727 0.000568816 0.000292685 -0.000330995 0 0 0 0 0 4 0 0 0 0 0 0 0 0 0 0 25 0.002 
65 2 0.00300655 0.0906893 0.0238996 0 0 0 0.0167772 -0.0675016 0.118043 0 -0.000164368 0 0 0 0 0 0 0 0 0 0 0 0 0 0 0 0 0 23 0.002 
1064 5 0.0155498 0.0892898 0.0256025 0 0 0 -0.0176451 -0.210063 0.0173133 -0.000864813 -0.000503982 -0.000499335 0 0 1 0 1 1 0 0 0 0 0 0 0 0 0 0 14 0.002 
206 6 0.00653515 0.0925639 0.0242703 0 0 0 0.06561 -0.0945222 0.0725257 -0.000187969 -0.000226106 -0.000223117 0 0 0 0 0 2 0 0 0 0 0 0 0 0 0 0 42 0.002 
16 3 0.0115449 0.0926395 0.0237961 0 0 0 0.0087842 -0.180545 -0.0206949 0.000669197 -7.94699e-05 -0.000952788 0 0 1 0 1 0 0 0 0 0 0 0 0 0 0 0 44 0.002 
669 1 0.00329895 0.0948189 0.0257053 0 0 0 0.0322227 -0.131436 -0.0285606 0 -0.000164368 0 0 0 0 0 0 0 0 0 0 0 0 0 0 0 0 0 46 0.002 
1027 1 0.0144602 0.095642 0.0236834 0 0 0 -0.0119772 -0.214572 0.10035 0.000285288 0.000759097 0.0026245 0 0 0 0 0 0 0 0 0 0 0 0 0 0 1 0 10 0.002 
301 5 0.00660321 0.0965562 0.0240689 0 0 0 -0.0351575 -0.0876606 0.0535805 0.000173608 0.000177082 -0.000561578 0 1 0 0 1 1 0 0 0 0 0 0 0 0 0 0 42 0.002 
505 2 0.00380696 0.099629 0.0237269 0 0 0 -0.00203995 -0.104553 0.150435 0 -0.000164368 0 0 0 0 0 0 0 0 0 0 0 0 0 0 0 0 0 38 0.002 
996 2 0.0128638 0.0994302 0.0252052 0 0 0 0.0126072 -0.14959 0.12052 -0.00026869 0.00101739 -0.00157832 0 2 0 0 0 0 0 0 0 0 0 0 0 0 0 0 18 0.002 
417 1 0.00312385 0.103402 0.0248666 0 0 0 -0.0209356 -0.0682814 0.013128 0.000575656 0.000642792 -0.000789677 2 0 0 0 0 0 0 0 0 0 0 0 0 0 0 0 55 0.002 
252 6 0.006727 0.104827 0.023875 0 0 0 0.0159561 -0.118436 0.0996075 0.000108202 -6.18907e-05 -9.26759e-05 1 0 0 0 0 0 0 0 0 0 0 0 0 0 0 0 20 0.002 
803 4 0.0133726 0.103315 0.0244268 0 0 0 0.102282 -0.145097 0.0833128 -0.00014556 0.000424373 -0.00027879 0 1 0 1 0 0 0 0 0 0 0 0 0 0 0 0 20 0.002 
1136 1 0.0169744 0.104784 0.0253469 0 0 0 0.0994427 -0.218521 0.184602 -0.00337688 0.00488659 -0.00234581 1 0 0 1 0 0 0 0 0 0 0 0 0 0 0 0 5 0.002 
993 8 0.0105256 0.0765659 0.0258848 0 0 0 -0.00950611 0.00344355 0.10112 0 -0.000164368 0 0 0 0 0 0 0 0 0 0 0 0 0 0 0 0 0 23 0.002 
654 3 0.014439 0.0772934 0.0264022 0 0 0 0.089301 -0.178255 -0.0275455 0 -0.000164368 0 0 0 0 0 0 0 0 0 0 0 0 0 0 0 0 0 39 0.002 
729 9 0.0078987 0.0796202 0.0265554 0 0 0 -0.0441511 -0.154849 0.00948616 0.000351415 0.000316611 -0.000626084 0 0 0 1 0 0 0 0 1 0 0 0 0 0 0 0 26 0.002 
703 3 0.0116116 0.081081 0.0257772 0 0 0 -0.0413194 -0.181136 -0.0980016 -2.18158e-05 -0.000209392 3.04559e-05 0 0 1 0 0 0 0 0 0 0 0 0 0 0 0 0 23 0.002 
26 9 0.0185593 0.0808583 0.0259643 0 0 0 -0.0151167 -0.159425 -0.0264324 0.00235931 -0.000781889 -0.000702123 0 0 1 0 0 0 0 0 2 0 0 0 0 0 0 0 35 0.002 
830 7 0.00303098 0.083309 0.026258 0 0 0 0.00987169 -0.0343829 -0.0939624 0 -0.000164368 0 0 0 0 0 0 0 0 0 0 0 0 0 0 0 0 0 30 0.002 
769 5 0.00729492 0.085754 0.0263568 0 0 0 0.00405176 -0.15762 0.00148155 -7.9317e-05 0.00296222 0.000381012 0 0 0 1 1 0 0 0 0 0 0 0 0 0 0 0 26 0.002 
1011 6 0.0112476 0.0851717 0.0260935 0 0 0 -0.024341 -0.128354 -0.0157661 -5.65733e-05 8.88721e-05 -0.000263243 0 0 0 0 0 0 0 0 0 0 0 0 0 0 0 0 13 0.002 
1113 4 0.0063376 0.0895954 0.0269414 0 0 0 0.089333 -0.194849 -0.037809 0.000124328 -0.000449689 0.000317081 0 0 0 1 0 1 0 0 0 0 0 0 0 0 0 0 16 0.002 