ITEM: TIMESTEP
10750000
ITEM: NUMBER OF ATOMS
1314
ITEM: BOX BOUNDS ff ff ff
-0.01 0.45
-0.15 0.15
-0.08 0.1
ITEM: ATOMS id type x y z ix iy iz vx vy vz fx fy fz c_cc_1 c_cc_2 c_cc_3 c_cc_4 c_cc_5 c_cc_6 c_cc_7 c_cc_8 c_cc_9 c_cc_10 c_cc_11 c_cc_12 c_cc_13 c_cc_14 c_cc_15 c_cc_16 f_fppacc radius 
1328 5 0.0155334 -0.0491447 -0.0293672 0 0 0 -0.0638835 -4.09704 21.2149 0 -0.000164368 0 0 0 0 0 0 0 0 0 0 0 0 0 0 0 0 0 0 0.002 
695 2 0.00535868 -0.054631 -0.0184274 0 0 0 -0.298969 -3.59298 10.9423 0 -0.000164368 0 0 0 0 0 0 0 0 0 0 0 0 0 0 0 0 0 36 0.002 
973 12 0.00402842 -0.0249334 0.0355473 0 0 0 0.157945 -4.46949 -2.76781 0 -0.000164368 0 0 0 0 0 0 0 0 0 0 0 0 0 0 0 0 0 29 0.002 
1200 1 0.00903368 0.0313889 -0.0444437 0 0 0 -0.359469 -1.58421 -2.52425 0 -0.000164368 0 0 0 0 0 0 0 0 0 0 0 0 0 0 0 0 0 11 0.002 
133 1 0.0130636 0.0316132 0.0242279 0 0 0 0.542579 -2.31898 0.308842 0 -0.000164368 0 0 0 0 0 0 0 0 0 0 0 0 0 0 0 0 0 56 0.002 
1219 5 0.00797868 0.0106667 0.0564538 0 0 0 0.234254 -1.08709 0.643751 0 -0.000164368 0 0 0 0 0 0 0 0 0 0 0 0 0 0 0 0 0 2 0.002 
1342 5 0.0165024 0.0170761 0.054469 0 0 0 7.52281 16.9522 -9.02927 0 -0.000164368 0 0 0 0 0 0 0 0 0 0 0 0 0 0 0 0 0 0 0.002 
41 1 0.0151238 0.052857 -0.0355 0 0 0 -2.22552e-308 -1.20388e-19 6.71706e-12 4.37534e-308 0 0 0 0 0 0 0 0 0 0 0 0 0 0 0 0 0 0 2 0.002 
823 9 0.0119177 0.0421074 -0.036956 0 0 0 -2.05775 5.95212 -19.0587 0 -0.000164368 0 0 0 0 0 0 0 0 0 0 0 0 0 0 0 0 0 22 0.002 
567 7 0.00334037 0.064948 -0.0248821 0 0 0 0.453656 1.97881 2.14568 0 -0.000164368 0 0 0 0 0 0 0 0 0 0 0 0 0 0 0 0 0 28 0.002 
592 7 0.0155181 0.0547131 -0.0243717 0 0 0 -0.879545 -0.502831 -1.61914 0 -0.000164368 0 0 0 0 0 0 0 0 0 0 0 0 0 0 0 0 0 46 0.002 
1039 3 0.0137358 0.0460692 -0.0185288 0 0 0 1.18664 -1.12063 -1.65199 0 -0.000164368 0 0 0 0 0 0 0 0 0 0 0 0 0 0 0 0 0 15 0.002 
953 3 0.00296688 0.0630411 -0.0155968 0 0 0 1.59559 1.80386 -13.1597 -0.124096 0.0276831 -0.0903054 0 0 0 0 0 0 0 0 0 0 0 0 0 0 0 0 22 0.002 
278 11 0.0049385 0.0528385 -0.00365697 0 0 0 0.128504 -1.08589 -0.124386 0 -0.000164368 0 0 0 0 0 0 0 0 0 0 0 0 0 0 0 0 0 49 0.002 
123 8 0.0102678 0.0577755 -0.00411053 0 0 0 -0.0811652 -0.609096 -1.71444 0 -0.000164368 0 0 0 0 0 0 0 0 0 0 0 0 0 0 0 0 0 50 0.002 
1192 2 0.00574709 0.0546744 0.00176867 0 0 0 -0.305817 -1.0958 -0.055138 0 -0.000164368 0 0 0 0 0 0 0 0 0 0 0 0 0 0 0 0 0 14 0.002 
1335 3 0.00320455 0.0699952 0.0016496 0 0 0 0.264663 -0.837351 -0.414028 0 -0.000164368 0 0 0 0 0 0 0 0 0 0 0 0 0 0 0 0 0 0 0.002 
588 16 0.0109816 0.0487446 0.00471905 0 0 0 1.46309 0.0932786 -1.6553 0 -0.000164368 0 0 0 0 0 0 0 0 0 0 0 0 0 0 0 0 0 46 0.002 
480 3 0.00827653 0.0415628 0.00382798 0 0 0 0.696195 8.17664 -8.06677 0 -0.000164368 0 0 0 0 0 0 0 0 0 0 0 0 0 0 0 0 0 42 0.002 
899 3 0.018143 0.0726361 0.0102875 0 0 0 -0.205054 -0.0841634 -0.55192 0 -0.000164368 0 0 0 0 0 0 0 0 0 0 0 0 0 0 0 0 0 21 0.002 
314 6 0.00503109 0.0503369 0.0137782 0 0 0 -0.700785 -0.828197 -0.249406 0 -0.000164368 0 0 0 0 0 0 0 0 0 0 0 0 0 0 0 0 0 33 0.002 
1136 1 0.00395651 0.070955 0.0136415 0 0 0 0.74386 -0.361069 0.541793 0 -0.000164368 0 0 0 0 0 0 0 0 0 0 0 0 0 0 0 0 0 20 0.002 
857 7 0.00826632 0.0652024 0.0161683 0 0 0 1.20142 -0.406677 1.31944 0 -0.000164368 0 0 0 0 0 0 0 0 0 0 0 0 0 0 0 0 0 21 0.002 
524 5 0.00807868 0.0748267 0.0155078 0 0 0 -0.0487418 3.06815 0.685063 0 -0.000164368 0 0 0 0 0 0 0 0 0 0 0 0 0 0 0 0 0 39 0.002 
718 11 0.0053551 0.0589246 0.0184853 0 0 0 -0.700075 -0.133818 -0.0548917 0 -0.000164368 0 0 0 0 0 0 0 0 0 0 0 0 0 0 0 0 0 53 0.002 
740 1 0.00502065 0.0642761 0.0183344 0 0 0 0.372766 -0.878575 0.563969 0 -0.000164368 0 0 0 0 0 0 0 0 0 0 0 0 0 0 0 0 0 42 0.002 
309 1 0.00594215 0.0723744 0.0181067 0 0 0 0.373699 0.324045 0.128488 0.0116318 0.000345093 -0.018654 0 0 0 0 0 0 0 0 0 0 0 0 0 0 0 0 61 0.002 
1268 9 0.0114614 0.0741748 0.0176782 0 0 0 1.08988 0.0238354 -0.00286796 0.0124112 -0.0146446 0.0219963 0 0 0 0 0 0 0 0 1 0 0 0 0 0 0 0 6 0.002 
603 7 0.0177509 0.0733353 0.0170988 0 0 0 -0.669333 -0.0354836 -0.435962 0 -0.000164368 0 0 0 0 0 0 0 0 0 0 0 0 0 0 0 0 0 41 0.002 
970 7 0.00846258 0.0503662 0.0187854 0 0 0 -0.137659 -1.10321 -0.583839 0 -0.000164368 0 0 0 0 0 0 0 0 0 0 0 0 0 0 0 0 0 23 0.002 
442 7 0.00987197 0.0632047 0.020444 0 0 0 0.451242 -0.836897 0.0784931 0 -0.000164368 0 0 0 0 0 0 0 0 0 0 0 0 0 0 0 0 0 42 0.002 
448 2 0.0101828 0.0721548 0.0208733 0 0 0 0.870602 0.307516 0.860801 -0.0178316 -0.051741 -0.103963 0 1 0 0 0 0 0 0 1 0 0 0 0 0 0 0 37 0.002 
531 1 0.00308146 0.073661 0.0205504 0 0 0 0.138583 -0.236721 0.170684 -0.0101879 0.00127631 0.014507 1 0 0 0 0 0 0 0 0 0 0 0 0 0 0 0 69 0.002 
344 1 0.00313142 0.0634679 0.0226838 0 0 0 1.11073 0.83622 -0.485144 0 -0.000164368 0 0 0 0 0 0 0 0 0 0 0 0 0 0 0 0 0 42 0.002 
895 10 0.00493652 0.0676006 0.0247072 0 0 0 1.35092 -1.2321 2.55128 0.221482 0.0358796 -0.40078 0 0 0 0 0 0 0 0 0 2 0 0 0 0 0 0 44 0.002 
1260 6 0.0128527 0.0697901 0.022725 0 0 0 0.821313 -0.639165 0.981712 0 -0.000164368 0 0 0 0 0 0 0 0 0 0 0 0 0 0 0 0 0 10 0.002 
1291 4 0.0171876 0.0709945 0.0213053 0 0 0 -0.411287 -0.0573739 -0.0648062 0 -0.000164368 0 0 0 0 0 0 0 0 0 0 0 0 0 0 0 0 0 4 0.002 
703 3 0.00499909 0.0394761 0.024091 0 0 0 -0.113187 -1.27094 0.24489 0 -0.000164368 0 0 0 0 0 0 0 0 0 0 0 0 0 0 0 0 0 40 0.002 
92 2 0.0120318 0.0598241 0.0256443 0 0 0 0.021434 -0.0170126 -0.162151 -0.0242496 0.00696663 -0.00691472 0 1 0 0 0 0 0 0 0 0 0 0 0 0 0 0 60 0.002 
232 7 0.0139815 0.0648884 0.024611 0 0 0 -0.39285 -0.393545 -0.22514 0 -0.000164368 0 0 0 0 0 0 0 0 0 0 0 0 0 0 0 0 0 24 0.002 
338 6 0.00857711 0.065889 0.0240629 0 0 0 1.62028 -1.25814 1.24062 0 -0.000164368 0 0 0 0 0 0 0 0 0 0 0 0 0 0 0 0 0 48 0.002 
957 4 0.00362884 0.0724912 0.0243304 0 0 0 -0.412538 0.223648 0.333524 -0.0014439 -0.00211451 0.004147 1 0 0 0 0 0 0 0 0 0 0 0 0 0 0 0 37 0.002 
1049 4 0.00972096 0.0738773 0.024396 0 0 0 -0.058985 -0.0867521 0.30436 0.00512162 0.0585443 0.0769804 0 1 0 1 0 0 0 0 0 0 0 0 0 0 0 0 25 0.002 
1186 8 0.00302161 0.0596494 0.0272588 0 0 0 0.0433254 0.195593 -0.140368 0 -0.000164368 0 0 0 0 0 0 0 0 0 0 0 0 0 0 0 0 0 18 0.002 
324 5 0.00799888 0.0588804 0.0274984 0 0 0 -0.0448289 -0.299034 -0.193492 0 -0.000164368 0 0 0 0 0 0 0 0 0 0 0 0 0 0 0 0 0 52 0.002 
999 5 0.00584197 0.0647443 0.0272459 0 0 0 -0.255817 -0.365505 0.175837 -0.0543875 -0.171818 0.25339 0 0 0 0 1 0 0 0 0 1 0 0 0 0 0 0 34 0.002 
397 3 0.00295149 0.069744 0.0272356 0 0 0 -0.388513 0.0418318 1.19885 0.0694822 0.0683785 -0.0283942 0 0 1 0 0 0 0 0 0 1 0 0 0 0 0 0 68 0.002 
1044 10 0.0107099 0.0697538 0.0261653 0 0 0 0.414313 0.373838 0.304278 0 -0.000164368 0 0 0 0 0 0 0 0 0 0 0 0 0 0 0 0 0 25 0.002 
1167 8 0.00704725 0.071424 0.0263115 0 0 0 -0.0241773 -0.0215437 0.17576 0 -0.000164368 0 0 0 0 0 0 0 0 0 0 0 0 0 0 0 0 0 17 0.002 
1075 3 0.0145608 0.0718118 0.0259636 0 0 0 -0.100975 -0.352171 -0.0876629 0 -0.000164368 0 0 0 0 0 0 0 0 0 0 0 0 0 0 0 0 0 31 0.002 
1065 3 0.00297955 0.0738425 0.0281256 0 0 0 -0.00488191 -0.156806 0.457283 0.0173796 -0.000492067 -0.0197656 0 0 2 0 0 0 0 0 0 0 0 0 0 0 0 0 25 0.002 
456 8 0.0150479 0.0594953 0.0282215 0 0 0 -0.769552 -0.412853 0.444482 0.0242496 -0.00729536 0.00691472 0 1 0 0 0 0 0 0 0 0 0 0 0 0 0 0 20 0.002 
922 5 0.0114143 0.063206 0.0284896 0 0 0 -0.162705 -0.521507 0.363634 0 -0.000164368 0 0 0 0 0 0 0 0 0 0 0 0 0 0 0 0 0 27 0.002 
627 2 0.00442344 0.0672814 0.0299608 0 0 0 0.160518 -0.489336 0.0564992 0.00201222 0.0181282 0.0174151 0 0 1 0 1 0 0 0 0 0 0 0 0 0 0 0 47 0.002 
1172 8 0.00889525 0.0668622 0.0294685 0 0 0 -0.0488033 -0.199077 0.0995021 0 -0.000164368 0 0 0 0 0 0 0 0 0 0 0 0 0 0 0 0 0 26 0.002 
1103 1 0.0136218 0.0680348 0.0283095 0 0 0 0.256302 -0.305876 0.206098 0 -0.000164368 0 0 0 0 0 0 0 0 0 0 0 0 0 0 0 0 0 29 0.002 
510 9 0.00549391 0.0714045 0.0300144 0 0 0 0.127093 -0.189898 0.399367 0.00930199 0.00260536 -0.000220067 0 0 1 0 0 0 0 0 1 0 0 0 0 0 0 0 91 0.002 
760 3 0.0130779 0.0716019 0.0302145 0 0 0 0.034764 -0.237864 -0.0245878 -0.00153499 0.000389688 -0.000549263 0 0 1 0 0 0 0 0 0 0 0 0 0 0 0 0 48 0.002 
1066 1 0.0171176 0.0702421 0.0292098 0 0 0 -0.10033 -0.328341 -0.0241152 0 -0.000164368 0 0 0 0 0 0 0 0 0 0 0 0 0 0 0 0 0 27 0.002 
960 3 0.0104792 0.0746353 0.0295334 0 0 0 0.0147672 -0.199657 -0.00869565 6.53683e-05 -5.27111e-05 -8.44904e-06 0 0 1 0 0 0 0 0 0 0 0 0 0 0 0 0 32 0.002 
329 7 0.00748769 0.0501071 0.0306772 0 0 0 0.14273 -0.737298 -0.18711 0 -0.000164368 0 0 0 0 0 0 0 0 0 0 0 0 0 0 0 0 0 56 0.002 
1138 3 0.00338598 0.0619042 0.0306765 0 0 0 -0.274749 -0.0727089 0.207561 0 -0.000164368 0 0 0 0 0 0 0 0 0 0 0 0 0 0 0 0 0 10 0.002 
1122 1 0.00699404 0.0641338 0.0319545 0 0 0 -0.0608177 -0.294234 0.236781 0 -0.000164368 0 0 0 0 0 0 0 0 0 0 0 0 0 0 0 0 0 28 0.002 
749 4 0.0148808 0.0643035 0.0309012 0 0 0 0.321869 -0.356621 0.307608 0 -0.000164368 0 0 0 0 0 0 0 0 0 0 0 0 0 0 0 0 0 47 0.002 
1073 6 0.00924629 0.07135 0.0314483 0 0 0 0.00811646 -0.236941 -0.0373403 0.000133058 5.52031e-07 -0.000406425 0 0 1 0 0 2 0 0 0 0 0 0 0 0 0 0 35 0.002 
378 2 0.00300301 0.0652728 0.0330402 0 0 0 0.112892 -0.394621 -0.0929911 -0.00157729 -0.0200555 -0.0287533 0 0 0 0 0 0 0 0 0 0 0 0 0 0 0 0 41 0.002 
1023 1 0.0110227 0.0647092 0.0328438 0 0 0 0.0608197 -0.329356 -0.0271552 0 -0.000164368 0 0 0 0 0 0 0 0 0 0 0 0 0 0 0 0 0 35 0.002 
923 10 0.00301822 0.0699649 0.0327808 0 0 0 -0.00457891 -0.184754 0.292204 -0.0060491 -0.00723489 0.0103037 0 0 0 0 0 0 0 0 1 1 0 0 0 0 0 0 33 0.002 
1206 3 0.00677501 0.0686235 0.0330039 0 0 0 -0.0437637 -0.23064 -0.0066148 0.00210203 -0.000248407 -0.00117842 0 0 0 0 0 1 0 0 0 1 0 0 0 0 0 0 24 0.002 
403 8 0.0118667 0.0687132 0.0329206 0 0 0 -0.00157292 -0.264995 -0.0362448 4.16895e-05 -0.00018358 3.1562e-06 0 0 0 0 0 1 0 0 0 0 0 0 0 0 0 0 52 0.002 
114 6 0.0155898 0.0702073 0.0329912 0 0 0 -0.0458679 -0.187604 0.0780367 0.00122107 -0.00053436 0.00039604 0 0 1 0 0 1 0 0 0 0 0 0 0 0 0 0 44 0.002 
881 1 0.00302647 0.0740041 0.0329896 0 0 0 0.0034954 -0.0673922 -0.0133376 0 -0.000164368 0 0 0 0 0 0 0 0 0 0 0 0 0 0 0 0 0 38 0.002 
690 2 0.00711442 0.0743757 0.0330371 0 0 0 0.46969 -0.124503 -0.107883 -0.000446293 -0.0098177 -0.0238316 0 1 0 0 0 0 0 0 0 0 0 0 0 0 0 0 33 0.002 
1017 2 0.0141437 0.0744328 0.0329264 0 0 0 -0.0588811 -0.245923 0.0130111 0 -0.000164368 0 0 0 0 0 0 0 0 0 0 0 0 0 0 0 0 0 12 0.002 
1231 3 0.0180452 0.0734396 0.0329965 0 0 0 -0.0740391 -0.194446 0.0315286 -0.000387883 -0.000759403 0.00125676 0 0 1 0 0 0 0 0 0 0 0 0 0 0 0 0 15 0.002 
209 9 0.00483984 0.0964533 -0.0322722 0 0 0 -0.096494 0.0268983 -1.02911 0 -0.000164368 0 0 0 0 0 0 0 0 0 0 0 0 0 0 0 0 0 10 0.002 
675 1 0.0169009 0.105155 -0.0324322 0 0 0 -0.112033 0.474443 0.0165524 0 -0.000164368 0 0 0 0 0 0 0 0 0 0 0 0 0 0 0 0 0 38 0.002 
988 10 0.00620945 0.105565 -0.0328528 0 0 0 -0.0752385 -0.156249 0.0764316 0 -0.000164368 0 0 0 0 0 0 0 0 0 0 0 0 0 0 0 0 0 21 0.002 
1329 3 0.00992928 0.10714 -0.0327164 0 0 0 -0.211421 0.148549 -0.113822 0 -0.000164368 0 0 0 0 0 0 0 0 0 0 0 0 0 0 0 0 0 0 0.002 
971 2 0.00300995 0.107975 -0.0328274 0 0 0 0.00504303 -0.0285977 0.0159946 0 -0.000164368 0 0 0 0 0 0 0 0 0 0 0 0 0 0 0 0 0 25 0.002 
1148 4 0.0140059 0.107923 -0.0328492 0 0 0 0.0460612 -0.209906 0.184342 0 -0.000164368 0 0 0 0 0 0 0 0 0 0 0 0 0 0 0 0 0 13 0.002 
188 6 0.00386735 0.10281 -0.0302236 0 0 0 -0.106971 -0.32028 0.360376 0 -0.000164368 0 0 0 0 0 0 0 0 0 0 0 0 0 0 0 0 0 53 0.002 
1150 10 0.0106234 0.101287 -0.0303792 0 0 0 -0.848449 0.904973 0.102777 0 -0.000164368 0 0 0 0 0 0 0 0 0 0 0 0 0 0 0 0 0 20 0.002 
245 1 0.00768594 0.103967 -0.0292567 0 0 0 -0.0317842 -0.0592062 0.243743 0 -0.000164368 0 0 0 0 0 0 0 0 0 0 0 0 0 0 0 0 0 34 0.002 
898 1 0.0118697 0.107606 -0.0292388 0 0 0 -0.425916 -0.115074 0.0778257 0 -0.000164368 0 0 0 0 0 0 0 0 0 0 0 0 0 0 0 0 0 20 0.002 
872 1 0.0117138 0.0938938 -0.0315673 0 0 0 3.10505 2.53504 -11.7579 0 -0.000164368 0 0 0 0 0 0 0 0 0 0 0 0 0 0 0 0 0 24 0.002 
477 2 0.00730559 0.100677 -0.026497 0 0 0 -1.32188 0.126963 0.875538 0 -0.000164368 0 0 0 0 0 0 0 0 0 0 0 0 0 0 0 0 0 15 0.002 
972 3 0.0063879 0.107996 -0.0288357 0 0 0 -0.121341 0.470976 -0.426531 0 -0.000164368 0 0 0 0 0 0 0 0 0 0 0 0 0 0 0 0 0 26 0.002 
995 2 0.0156747 0.107997 -0.0279195 0 0 0 -0.274915 -0.0280665 -0.309957 -0.000653879 -4.9651e-05 -0.000285764 0 0 0 0 0 0 0 0 0 0 0 0 0 0 0 0 21 0.002 
896 1 0.00322235 0.105316 -0.0256638 0 0 0 -0.630402 -0.200319 -0.391179 0 -0.000164368 0 0 0 0 0 0 0 0 0 0 0 0 0 0 0 0 0 38 0.002 
554 3 0.00695742 0.106335 -0.0246301 0 0 0 -0.808408 0.487998 0.727466 0 -0.000164368 0 0 0 0 0 0 0 0 0 0 0 0 0 0 0 0 0 27 0.002 
1032 4 0.00347523 0.101527 -0.0243699 0 0 0 0.768296 -0.412555 0.549093 0 -0.000164368 0 0 0 0 0 0 0 0 0 0 0 0 0 0 0 0 0 17 0.002 
1195 2 0.0143571 0.106229 -0.0231978 0 0 0 -0.845375 -0.736524 0.0607239 0 -0.000164368 0 0 0 0 0 0 0 0 0 0 0 0 0 0 0 0 0 0 0.002 
529 14 0.00992542 0.0953192 -0.0263864 0 0 0 -0.391068 8.49424 -4.43127 0 -0.000164368 0 0 0 0 0 0 0 0 0 0 0 0 0 0 0 0 0 59 0.002 
77 12 0.00520279 0.107559 -0.0211895 0 0 0 -0.218847 -0.220098 0.482212 0 -0.000164368 0 0 0 0 0 0 0 0 0 0 0 0 0 0 0 0 0 55 0.002 
298 9 0.00994043 0.107274 -0.0208668 0 0 0 -0.226829 0.789468 0.504865 0 -0.000164368 0 0 0 0 0 0 0 0 0 0 0 0 0 0 0 0 0 8 0.002 
1104 4 0.0145536 0.0843108 -0.0184776 0 0 0 1.89567 -2.35618 0.233661 0 -0.000164368 0 0 0 0 0 0 0 0 0 0 0 0 0 0 0 0 0 12 0.002 
1324 2 0.00849416 0.0969788 -0.018278 0 0 0 1.61109 -0.715826 1.09131 0 -0.000164368 0 0 0 0 0 0 0 0 0 0 0 0 0 0 0 0 0 0 0.002 
645 2 0.0152248 0.0968608 -0.017916 0 0 0 -1.18688 0.48038 0.0338794 0 -0.000164368 0 0 0 0 0 0 0 0 0 0 0 0 0 0 0 0 0 39 0.002 
911 6 0.0148951 0.102578 -0.0196687 0 0 0 -1.44961 1.64199 0.574308 0 -0.000164368 0 0 0 0 0 0 0 0 0 0 0 0 0 0 0 0 0 27 0.002 
974 2 0.00340384 0.104197 -0.0196683 0 0 0 -0.271033 -0.576459 0.240076 0 -0.000164368 0 0 0 0 0 0 0 0 0 0 0 0 0 0 0 0 0 33 0.002 
1314 3 0.00655846 0.102083 -0.0168927 0 0 0 0.0971159 -0.614451 0.114339 0 -0.000164368 0 0 0 0 0 0 0 0 0 0 0 0 0 0 0 0 0 1 0.002 
1146 2 0.00718936 0.107686 -0.0169512 0 0 0 -0.880784 -0.181615 1.00061 0 -0.000164368 0 0 0 0 0 0 0 0 0 0 0 0 0 0 0 0 0 24 0.002 
539 8 0.0157168 0.105732 -0.0168252 0 0 0 -0.277103 -1.28837 0.912221 -0.0445692 -0.0083589 -0.0348955 0 0 0 0 0 0 0 1 0 0 0 0 0 0 0 0 35 0.002 
677 9 0.00364876 0.0932547 -0.0162324 0 0 0 -2.48002 4.77365 -3.58056 0 -0.000164368 0 0 0 0 0 0 0 0 0 0 0 0 0 0 0 0 0 68 0.002 
1025 4 0.00979721 0.10614 -0.0136441 0 0 0 -0.981072 0.103241 1.35002 0 -0.000164368 0 0 0 0 0 0 0 0 0 0 0 0 0 0 0 0 0 30 0.002 
1301 3 0.0173784 0.106308 -0.0132762 0 0 0 -0.0232323 -0.296529 0.481114 0.0399924 0.0277025 -0.020966 0 0 1 0 0 0 0 1 0 0 0 0 0 0 0 0 2 0.002 
572 3 0.0167557 0.10015 -0.0114497 0 0 0 0.392116 0.0130361 1.92744 0 -0.000164368 0 0 0 0 0 0 0 0 0 0 0 0 0 0 0 0 0 36 0.002 
1312 4 0.0110096 0.102139 -0.0126488 0 0 0 -0.958009 -0.392838 0.364033 0 -0.000164368 0 0 0 0 0 0 0 0 0 0 0 0 0 0 0 0 0 1 0.002 
1193 8 0.00471221 0.107756 -0.0121393 0 0 0 -0.278399 -0.00579875 -0.0174813 0 -0.000164368 0 0 0 0 0 0 0 0 0 0 0 0 0 0 0 0 0 27 0.002 
1322 2 0.0125283 0.0758225 -0.00798433 0 0 0 -0.719797 0.56736 0.995022 0 -0.000164368 0 0 0 0 0 0 0 0 0 0 0 0 0 0 0 0 0 0 0.002 
763 3 0.00569381 0.0911335 -0.00933183 0 0 0 -0.11085 1.9216 -0.432094 0.0178638 -0.0696914 0.0280963 0 0 0 0 0 0 0 0 0 0 0 0 0 0 0 0 51 0.002 
735 8 0.00454247 0.0970706 -0.010016 0 0 0 -0.238248 -0.0151742 -0.0280616 0 -0.000164368 0 0 0 0 0 0 0 0 0 0 0 0 0 0 0 0 0 24 0.002 
396 3 0.0113806 0.0984779 -0.0097676 0 0 0 0.00436692 -0.35526 1.24121 0 -0.000164368 0 0 0 0 0 0 0 0 0 0 0 0 0 0 0 0 0 52 0.002 
790 3 0.0032742 0.102807 -0.00892933 0 0 0 0.0329388 -0.479322 0.238432 0 -0.000164368 0 0 0 0 0 0 0 0 0 0 0 0 0 0 0 0 0 37 0.002 
311 2 0.0162149 0.104123 -0.0101798 0 0 0 0.100932 -0.355616 0.135101 0.00457677 -0.0198367 0.0558615 0 0 1 0 0 0 0 0 0 0 0 0 0 0 0 0 49 0.002 
368 5 0.00888929 0.107806 -0.00902394 0 0 0 0.16479 -0.0741154 -0.10822 0 -0.000164368 0 0 0 0 0 0 0 0 0 0 0 0 0 0 0 0 0 43 0.002 
536 2 0.00385247 0.0941754 -0.00676626 0 0 0 -0.246555 -0.419253 0.0406727 0 -0.000164368 0 0 0 0 0 0 0 0 0 0 0 0 0 0 0 0 0 41 0.002 
1279 4 0.00848067 0.0981539 -0.00684474 0 0 0 -0.48009 -0.912697 1.03752 0 -0.000164368 0 0 0 0 0 0 0 0 0 0 0 0 0 0 0 0 0 6 0.002 
967 2 0.0101986 0.105744 0.00909624 0 0 0 0.00340663 0.00596808 -0.058612 0 -0.000164368 0 0 0 0 0 0 0 0 0 0 0 0 0 0 0 0 0 20 0.002 
1043 8 0.00372078 0.107972 -0.0078292 0 0 0 0.0295214 -0.00637189 -0.21074 0 -0.000164368 0 0 0 0 0 0 0 0 0 0 0 0 0 0 0 0 0 13 0.002 
1154 12 0.0166412 0.107828 -0.00696779 0 0 0 0.0777157 -0.0443785 0.1578 0 -0.000164368 0 0 0 0 0 0 0 0 0 0 0 0 0 0 0 0 0 14 0.002 
956 1 0.0134105 0.0832341 -0.00455161 0 0 0 0.443767 -1.16892 0.591256 0 -0.000164368 0 0 0 0 0 0 0 0 0 0 0 0 0 0 0 0 0 12 0.002 
625 3 0.00475854 0.0881888 -0.00685843 0 0 0 -2.1909 -0.698219 -1.37833 -0.0178638 0.0693627 -0.0280963 0 0 0 0 0 0 0 0 0 0 0 0 0 0 0 0 34 0.002 
369 6 0.00798142 0.0925085 -0.00564396 0 0 0 0.650886 3.07312 0.350142 0 -0.000164368 0 0 0 0 0 0 0 0 0 0 0 0 0 0 0 0 0 40 0.002 
453 3 0.00349519 0.0984464 -0.00579675 0 0 0 -0.09912 -0.109845 -0.0936438 0 -0.000164368 0 0 0 0 0 0 0 0 0 0 0 0 0 0 0 0 0 34 0.002 
1280 1 0.00638702 0.101407 -0.00438975 0 0 0 -0.214008 0.223914 0.217196 0 -0.000164368 0 0 0 0 0 0 0 0 0 0 0 0 0 0 0 0 0 1 0.002 
416 5 0.00303733 0.103572 -0.00497257 0 0 0 -0.487986 0.300236 -0.164978 0 -0.000164368 0 0 0 0 0 0 0 0 0 0 0 0 0 0 0 0 0 52 0.002 
182 2 0.0113548 0.104267 -0.00610301 0 0 0 -0.0328316 -0.301144 -0.105331 0 -0.000164368 0 0 0 0 0 0 0 0 0 0 0 0 0 0 0 0 0 48 0.002 
1064 5 0.0164597 0.103213 -0.0059355 0 0 0 0.098989 -0.289351 0.0803087 0 -0.000164368 0 0 0 0 0 0 0 0 0 0 0 0 0 0 0 0 0 25 0.002 
337 8 0.00793323 0.107962 -0.0048222 0 0 0 0.195648 -0.0258519 -0.16767 0 -0.000164368 0 0 0 0 0 0 0 0 0 0 0 0 0 0 0 0 0 44 0.002 
515 5 0.00302776 0.0931885 -0.0027116 0 0 0 0.153247 0.0408135 0.0307328 0 -0.000164368 0 0 0 0 0 0 0 0 0 0 0 0 0 0 0 0 0 46 0.002 
548 4 0.0030137 0.100713 -0.00203459 0 0 0 0.0183293 0.0639711 0.198516 0 -0.000164368 0 0 0 0 0 0 0 0 0 0 0 0 0 0 0 0 0 45 0.002 
621 4 0.00345042 0.107782 -0.0038328 0 0 0 0.0669516 -0.0363442 -0.187388 0 -0.000164368 0 0 0 0 0 0 0 0 0 0 0 0 0 0 0 0 0 39 0.002 
1100 2 0.0102691 0.106439 -0.00172794 0 0 0 0.00450412 0.0700466 0.182101 0 -0.000164368 0 0 0 0 0 0 0 0 0 0 0 0 0 0 0 0 0 13 0.002 
4 6 0.0181229 0.106436 -0.00275842 0 0 0 0.125985 -0.150105 -0.0806966 0 -0.000164368 0 0 0 0 0 0 0 0 0 0 0 0 0 0 0 0 0 34 0.002 
635 4 0.00393174 0.0763735 4.12827e-05 0 0 0 0.430771 -0.0258772 -0.126872 0 -0.000164368 0 0 0 0 0 0 0 0 0 0 0 0 0 0 0 0 0 53 0.002 
728 1 0.00859484 0.0868799 7.78663e-05 0 0 0 -0.34762 -0.107072 -0.278596 0 -0.000164368 0 0 0 0 0 0 0 0 0 0 0 0 0 0 0 0 0 31 0.002 
1152 2 0.00712293 0.0915513 -0.000596498 0 0 0 -0.222566 -1.33848 1.10983 0 -0.000164368 0 0 0 0 0 0 0 0 0 0 0 0 0 0 0 0 0 8 0.002 
1320 5 0.0145474 0.09819 -0.000616477 0 0 0 0.783054 -0.615713 1.55453 0 -0.000164368 0 0 0 0 0 0 0 0 0 0 0 0 0 0 0 0 0 1 0.002 
154 5 0.00698199 0.101032 -0.000395743 0 0 0 0.393389 -0.25077 0.476139 0 -0.000164368 0 0 0 0 0 0 0 0 0 0 0 0 0 0 0 0 0 14 0.002 
240 1 0.00382626 0.104671 -0.00105862 0 0 0 0.253926 0.0662962 0.265017 0 -0.000164368 0 0 0 0 0 0 0 0 0 0 0 0 0 0 0 0 0 44 0.002 
731 2 0.00678236 0.107543 0.000693738 0 0 0 0.196634 -0.122377 -0.0209669 0 -0.000164368 0 0 0 0 0 0 0 0 0 0 0 0 0 0 0 0 0 29 0.002 
179 1 0.00301826 0.0830773 0.00127339 0 0 0 0.0457821 -0.24951 -0.34236 0 -0.000164368 0 0 0 0 0 0 0 0 0 0 0 0 0 0 0 0 0 37 0.002 
121 2 0.0181225 0.0944429 0.0016 0 0 0 -0.550139 -0.701194 1.02119 0 -0.000164368 0 0 0 0 0 0 0 0 0 0 0 0 0 0 0 0 0 51 0.002 
1196 5 0.00300142 0.100487 0.00204951 0 0 0 -0.000718627 -0.0885029 -0.177326 -0.0023481 -0.00309516 -0.00024436 0 0 0 0 1 0 0 0 0 0 0 0 0 0 0 0 10 0.002 
553 7 0.0172923 0.101004 0.00111951 0 0 0 -0.291482 -0.34922 0.504248 0 -0.000164368 0 0 0 0 0 0 0 0 0 0 0 0 0 0 0 0 0 40 0.002 
835 12 0.0110326 0.103547 0.0010518 0 0 0 -0.123331 -0.108826 0.0351327 0 -0.000164368 0 0 0 0 0 0 0 0 0 0 0 0 0 0 0 0 0 33 0.002 
583 1 0.0172677 0.107258 0.00121653 0 0 0 0.134938 -0.112775 -0.0784892 0 -0.000164368 0 0 0 0 0 0 0 0 0 0 0 0 0 0 0 0 0 53 0.002 
552 8 0.0119716 0.107939 0.00225787 0 0 0 0.117495 -0.0518224 0.401995 0 -0.000164368 0 0 0 0 0 0 0 0 0 0 0 0 0 0 0 0 0 59 0.002 
1057 3 0.00330114 0.0781296 0.00402969 0 0 0 0.0159263 0.183498 0.348527 0 -0.000164368 0 0 0 0 0 0 0 0 0 0 0 0 0 0 0 0 0 14 0.002 
705 14 0.00606807 0.0860539 0.00322435 0 0 0 -0.0187124 -0.23424 -0.219953 0 -0.000164368 0 0 0 0 0 0 0 0 0 0 0 0 0 0 0 0 0 45 0.002 
839 3 0.0117492 0.0929077 0.00303707 0 0 0 0.20619 -0.562586 -0.198078 0 -0.000164368 0 0 0 0 0 0 0 0 0 0 0 0 0 0 0 0 0 17 0.002 
1289 4 0.00377003 0.093947 0.0044264 0 0 0 -0.318684 -0.0987015 -0.365853 0 -0.000164368 0 0 0 0 0 0 0 0 0 0 0 0 0 0 0 0 0 1 0.002 
20 3 0.00407932 0.0981042 0.00521689 0 0 0 -0.0318388 -0.0377085 -0.0837131 0 -0.000164368 0 0 0 0 0 0 0 0 0 0 0 0 0 0 0 0 0 43 0.002 
1068 4 0.0124939 0.10059 0.0042166 0 0 0 -0.567257 -0.341875 0.510912 0 -0.000164368 0 0 0 0 0 0 0 0 0 0 0 0 0 0 0 0 0 16 0.002 
732 4 0.00444564 0.10377 0.00380554 0 0 0 -0.0748729 -0.136183 -0.0515241 0.0023481 0.00276642 0.00024436 0 0 0 0 1 0 0 0 0 0 0 0 0 0 0 0 42 0.002 
933 1 0.00917543 0.105295 0.00487154 0 0 0 -0.232171 0.0308266 0.146107 0 -0.000164368 0 0 0 0 0 0 0 0 0 0 0 0 0 0 0 0 0 30 0.002 
961 1 0.00326398 0.107948 0.0031991 0 0 0 0.0755571 0.0194477 -0.0275263 0 -0.000164368 0 0 0 0 0 0 0 0 0 0 0 0 0 0 0 0 0 17 0.002 
262 3 0.00320881 0.0828636 0.00731423 0 0 0 0.0504152 0.058835 -0.297316 0 -0.000164368 0 0 0 0 0 0 0 0 0 0 0 0 0 0 0 0 0 40 0.002 
1071 3 0.00842185 0.0861746 0.00713946 0 0 0 0.169726 -0.0190088 -0.151639 0 -0.000164368 0 0 0 0 0 0 0 0 0 0 0 0 0 0 0 0 0 17 0.002 
1338 1 0.0138332 0.0865093 0.00732372 0 0 0 -1.67222 0.25406 -0.000679474 0 -0.000164368 0 0 0 0 0 0 0 0 0 0 0 0 0 0 0 0 0 0 0.002 
488 6 0.00314577 0.0877977 0.0059061 0 0 0 0.020633 -0.151707 -0.0894547 0 -0.000164368 0 0 0 0 0 0 0 0 0 0 0 0 0 0 0 0 0 50 0.002 
845 3 0.00861372 0.0923326 0.00568827 0 0 0 0.112303 0.0365729 -0.521971 0 -0.000164368 0 0 0 0 0 0 0 0 0 0 0 0 0 0 0 0 0 33 0.002 
1115 2 0.00722858 0.0996816 0.00733711 0 0 0 -0.199421 0.0118663 0.0309609 0 -0.000164368 0 0 0 0 0 0 0 0 0 0 0 0 0 0 0 0 0 20 0.002 
962 6 0.0156992 0.102363 0.00750978 0 0 0 -0.037114 -0.31724 0.186376 0 -0.000164368 0 0 0 0 0 0 0 0 0 0 0 0 0 0 0 0 0 35 0.002 
493 5 0.00605652 0.107782 0.00705582 0 0 0 -0.0196394 -0.0388683 0.128378 0 -0.000164368 0 0 0 0 0 0 0 0 0 0 0 0 0 0 0 0 0 54 0.002 
1185 6 0.0131099 0.106507 0.00607839 0 0 0 0.0462237 -0.117596 -0.0818834 0 -0.000164368 0 0 0 0 0 0 0 0 0 0 0 0 0 0 0 0 0 12 0.002 
992 6 0.00576375 0.0793242 0.0087363 0 0 0 0.0621194 -0.0619631 -0.114844 0 -0.000164368 0 0 0 0 0 0 0 0 0 0 0 0 0 0 0 0 0 15 0.002 
836 4 0.00689401 0.0956873 0.00910192 0 0 0 -0.262172 -0.0867684 0.0246441 0 -0.000164368 0 0 0 0 0 0 0 0 0 0 0 0 0 0 0 0 0 41 0.002 
342 4 0.0115701 0.097197 0.0081758 0 0 0 -0.150567 -0.166438 0.0754848 0 -0.000164368 0 0 0 0 0 0 0 0 0 0 0 0 0 0 0 0 0 46 0.002 
892 5 0.00303108 0.100933 0.00879849 0 0 0 0.0210018 -0.0894332 -0.0553542 0 -0.000164368 0 0 0 0 0 0 0 0 0 0 0 0 0 0 0 0 0 29 0.002 
1149 4 0.00300273 0.105313 0.00788964 0 0 0 0.0109764 -0.0370641 0.114352 0 -0.000164368 0 0 0 0 0 0 0 0 0 0 0 0 0 0 0 0 0 4 0.002 
1311 3 0.00674741 0.103926 0.00819734 0 0 0 0.0400297 -0.0685596 -0.103026 0 -0.000164368 0 0 0 0 0 0 0 0 0 0 0 0 0 0 0 0 0 0 0.002 
560 4 0.00306924 0.0862136 0.010021 0 0 0 -0.0830051 -0.0853299 -0.0156117 0 -0.000164368 0 0 0 0 0 0 0 0 0 0 0 0 0 0 0 0 0 32 0.002 
533 4 0.00452926 0.0901184 0.0105557 0 0 0 0.0250947 -0.0257351 -0.0283647 0 -0.000164368 0 0 0 0 0 0 0 0 0 0 0 0 0 0 0 0 0 61 0.002 
719 3 0.0126672 0.0906568 0.0105472 0 0 0 0.560988 0.33546 0.251362 0 -0.000164368 0 0 0 0 0 0 0 0 0 0 0 0 0 0 0 0 0 33 0.002 
1009 1 0.00312079 0.0953326 0.0110469 0 0 0 0.01204 -0.135847 0.0394873 0.000149597 -9.07579e-05 0.000245196 1 0 0 0 0 0 0 0 0 0 0 0 0 0 0 0 14 0.002 
721 5 0.0153364 0.0947462 0.0102939 0 0 0 0.144264 -0.252389 -0.0440789 0 -0.000164368 0 0 0 0 0 0 0 0 0 0 0 0 0 0 0 0 0 37 0.002 
446 9 0.0156205 0.0987499 0.0110931 0 0 0 -0.102094 -0.0147759 -0.381841 0 -0.000164368 0 0 0 0 0 0 0 0 0 0 0 0 0 0 0 0 0 54 0.002 
998 5 0.00448376 0.10309 0.0119239 0 0 0 -0.0326629 -0.0216363 -0.0797169 0 -0.000164368 0 0 0 0 0 0 0 0 0 0 0 0 0 0 0 0 0 19 0.002 
1153 8 0.00797498 0.100772 0.0116184 0 0 0 -0.108293 -0.293898 -0.17482 0 -0.000164368 0 0 0 0 0 0 0 0 0 0 0 0 0 0 0 0 0 25 0.002 
411 1 0.0135071 0.102891 0.0115261 0 0 0 -0.328707 0.085847 -0.0434923 0 -0.000164368 0 0 0 0 0 0 0 0 0 0 0 0 0 0 0 0 0 4 0.002 
313 1 0.0173587 0.104012 0.0108565 0 0 0 -0.17321 -0.0739731 0.189582 0 -0.000164368 0 0 0 0 0 0 0 0 0 0 0 0 0 0 0 0 0 30 0.002 
920 3 0.00305099 0.107338 0.0121783 0 0 0 -0.00158826 -0.0498739 0.0679668 0 -0.000164368 0 0 0 0 0 0 0 0 0 0 0 0 0 0 0 0 0 26 0.002 
1317 6 0.0069169 0.106616 0.0114094 0 0 0 0.00593456 -0.06927 0.0207452 0 -0.000164368 0 0 0 0 0 0 0 0 0 0 0 0 0 0 0 0 0 1 0.002 
1223 2 0.0129568 0.106854 0.011774 0 0 0 -0.0468113 0.0155691 0.00212091 0 -0.000164368 0 0 0 0 0 0 0 0 0 0 0 0 0 0 0 0 0 6 0.002 
481 2 0.0166857 0.107965 0.0108374 0 0 0 0.0122395 -0.027022 0.138297 0 -0.000164368 0 0 0 0 0 0 0 0 0 0 0 0 0 0 0 0 0 24 0.002 
1228 8 0.0130816 0.107067 0.0329835 0 0 0 0.0444418 -0.0518978 -0.0133525 0 -0.000164368 0 0 0 0 0 0 0 0 0 0 0 0 0 0 0 0 0 5 0.002 
534 13 0.012784 0.077083 0.0122835 0 0 0 -0.837608 0.788503 -0.854903 0 -0.000164368 0 0 0 0 0 0 0 0 0 0 0 0 0 0 0 0 0 49 0.002 
1016 8 0.003037 0.0790973 0.0139581 0 0 0 0.00819017 -0.162733 -0.146428 0 -0.000164368 0 0 0 0 0 0 0 0 0 0 0 0 0 0 0 0 0 28 0.002 
632 6 0.00586741 0.0819939 0.0132834 0 0 0 0.106264 -0.215608 -0.194387 0 -0.000164368 0 0 0 0 0 0 0 0 0 0 0 0 0 0 0 0 0 50 0.002 
1084 2 0.0124725 0.0824927 0.0142229 0 0 0 0.513893 -0.760155 0.595446 0 -0.000164368 0 0 0 0 0 0 0 0 0 0 0 0 0 0 0 0 0 12 0.002 
58 1 0.00382716 0.0864204 0.0144124 0 0 0 0.0254307 -0.153596 0.0376262 0 -0.000164368 0 0 0 0 0 0 0 0 0 0 0 0 0 0 0 0 0 51 0.002 
471 5 0.014709 0.088637 0.0135303 0 0 0 -0.0970563 -0.0300721 0.0357381 0 -0.000164368 0 0 0 0 0 0 0 0 0 0 0 0 0 0 0 0 0 52 0.002 
336 9 0.00310028 0.0911565 0.0143896 0 0 0 0.0115784 -0.0614685 -0.0279211 0 -0.000164368 0 0 0 0 0 0 0 0 0 0 0 0 0 0 0 0 0 48 0.002 
1008 4 0.0070558 0.0926501 0.0124616 0 0 0 -0.287567 0.328362 -0.00701123 0.000911901 -0.000350107 0.00106275 0 0 0 1 0 0 0 0 0 0 0 0 0 0 0 0 16 0.002 
786 1 0.01059 0.091583 0.0139954 0 0 0 -0.147576 0.0655181 -0.348665 -0.000911901 2.13703e-05 -0.00106275 0 0 0 1 0 0 0 0 0 0 0 0 0 0 0 0 41 0.002 
297 3 0.00623271 0.0969139 0.0129998 0 0 0 -0.0216773 0.012548 0.00879449 -0.000149597 -0.000237978 -0.000245196 1 0 0 0 0 0 0 0 0 0 0 0 0 0 0 0 44 0.002 
1218 8 0.011354 0.0974528 0.0124402 0 0 0 -0.426188 -0.14335 -0.0607947 0 -0.000164368 0 0 0 0 0 0 0 0 0 0 0 0 0 0 0 0 0 6 0.002 
1229 6 0.00375307 0.0998621 0.0143698 0 0 0 -0.0829674 -0.0120895 0.0645729 0 -0.000164368 0 0 0 0 0 0 0 0 0 0 0 0 0 0 0 0 0 5 0.002 
641 1 0.00999967 0.104018 0.0135925 0 0 0 -0.366745 -0.0356805 -0.0416536 0 -0.000164368 0 0 0 0 0 0 0 0 0 0 0 0 0 0 0 0 0 24 0.002 
1293 6 0.0096767 0.107989 0.0140942 0 0 0 -0.0592688 0.0441997 0.0405932 0 -0.000164368 0 0 0 0 0 0 0 0 0 0 0 0 0 0 0 0 0 0 0.002 
345 6 0.0094216 0.0797335 0.0164335 0 0 0 -0.528947 0.577365 -0.282578 0 -0.000164368 0 0 0 0 0 0 0 0 0 0 0 0 0 0 0 0 0 41 0.002 
803 4 0.0133657 0.0862425 0.0165687 0 0 0 -0.137654 -0.496695 -0.128537 0 -0.000164368 0 0 0 0 0 0 0 0 0 0 0 0 0 0 0 0 0 39 0.002 
1077 1 0.0095032 0.0875576 0.014533 0 0 0 0.217903 -0.0566516 -0.0121881 0 -0.000164368 0 0 0 0 0 0 0 0 0 0 0 0 0 0 0 0 0 14 0.002 
726 1 0.00310577 0.095523 0.0151172 0 0 0 -0.0086812 -0.0430325 0.126229 0.00151655 -0.00143069 -0.00520292 1 0 0 0 0 0 0 0 0 0 0 0 0 0 0 0 38 0.002 
568 1 0.00901505 0.0951963 0.0153073 0 0 0 0.0360003 0.224594 0.0879082 0 -0.000164368 0 0 0 0 0 0 0 0 0 0 0 0 0 0 0 0 0 20 0.002 
631 1 0.0143957 0.0976112 0.0165242 0 0 0 -0.0711298 0.208684 0.174051 1.75638e-05 -9.16951e-05 -4.38018e-05 1 0 0 0 0 0 0 0 0 0 0 0 0 0 0 0 40 0.002 
570 1 0.0104193 0.0998672 0.0162726 0 0 0 0.0204307 -0.0269378 -0.0635165 0 -0.000164368 0 0 0 0 0 0 0 0 0 0 0 0 0 0 0 0 0 38 0.002 
987 4 0.00691573 0.102204 0.0165149 0 0 0 -0.0544646 -0.0584925 -0.0136378 -0.0071275 -0.00627468 -0.00471661 0 0 0 1 0 0 0 0 0 0 0 0 0 0 0 0 17 0.002 
467 1 0.0134936 0.102628 0.0166828 0 0 0 -0.0300502 0.128139 -0.0098261 0 -0.000164368 0 0 0 0 0 0 0 0 0 0 0 0 0 0 0 0 0 42 0.002 
125 10 0.00316322 0.103528 0.0159039 0 0 0 0.0410444 -0.0761211 0.0208841 0.00029968 -1.80997e-05 -0.000607442 0 0 0 0 0 0 0 0 0 1 0 0 0 0 0 0 45 0.002 
1299 5 0.0181659 0.103987 0.0159233 0 0 0 -0.0904212 -0.0295706 -0.0171772 0 -0.000164368 0 0 0 0 0 0 0 0 0 0 0 0 0 0 0 0 0 2 0.002 
827 2 0.00642192 0.106061 0.0154379 0 0 0 -0.0347878 -0.028128 0.0915367 -0.000931722 -0.000229064 -0.00148792 0 1 0 0 0 0 0 0 0 0 0 0 0 0 0 0 26 0.002 
626 1 0.0140272 0.107977 0.015537 0 0 0 -0.0445408 -0.0862607 0.0563609 0 -0.000164368 0 0 0 0 0 0 0 0 0 0 0 0 0 0 0 0 0 36 0.002 
1116 4 0.00354183 0.0779798 0.0186145 0 0 0 0.0757581 -0.159536 -0.0696358 0 -0.000164368 0 0 0 0 0 0 0 0 0 0 0 0 0 0 0 0 0 24 0.002 
661 2 0.00305823 0.0838173 0.0174761 0 0 0 0.0175234 -0.164284 -0.129612 0 -0.000164368 0 0 0 0 0 0 0 0 0 0 0 0 0 0 0 0 0 30 0.002 
1215 2 0.007254 0.0838741 0.017699 0 0 0 0.0760374 -0.117006 -0.0265702 0 -0.000164368 0 0 0 0 0 0 0 0 0 0 0 0 0 0 0 0 0 4 0.002 
1309 2 0.0176521 0.0885588 0.0178087 0 0 0 -0.114494 -0.0463553 -0.21075 -0.000891428 -0.000247665 -0.00112836 0 1 0 0 0 0 0 0 0 0 0 0 0 0 0 0 1 0.002 