ITEM: TIMESTEP
9550000
ITEM: NUMBER OF ATOMS
17077
ITEM: BOX BOUNDS ff ff ff
-0.01 0.45
-0.15 0.15
-0.08 0.1
ITEM: ATOMS id type x y z ix iy iz vx vy vz fx fy fz c_cc_1 c_cc_2 c_cc_3 c_cc_4 c_cc_5 c_cc_6 c_cc_7 c_cc_8 c_cc_9 c_cc_10 c_cc_11 c_cc_12 c_cc_13 c_cc_14 c_cc_15 c_cc_16 f_fppacc radius c_cc_17 
18001 5 0.01637 -0.0123528 -0.0597751 0 0 0 -0.00244413 -0.320124 0.119914 0 -1.05196e-05 0 0 0 0 0 0 0 0 0 0 0 0 0 0 0 0 0 0 0.0008 0 
2108 4 0.0107522 -0.0164126 -0.0586615 0 0 0 0.000104497 -0.201839 0.0731043 0 -1.05196e-05 0 0 0 0 0 0 0 0 0 0 0 0 0 0 0 0 0 62 0.0008 0 
702 2 0.0125668 -0.0143004 -0.059148 0 0 0 0.000815312 -0.17247 0.0416813 0 -1.05196e-05 0 0 0 0 0 0 0 0 0 0 0 0 0 0 0 0 0 64 0.0008 0 
17720 5 0.0151239 -0.0147321 -0.0590415 0 0 0 0.0198291 -0.364606 0.103936 0 -1.05196e-05 0 0 0 0 0 0 0 0 0 0 0 0 0 0 0 0 0 0 0.0008 0 
8884 8 0.0128489 -0.0114967 -0.0574717 0 0 0 -1.08756 -5.72362 -0.357898 0 -1.05196e-05 0 0 0 0 0 0 0 0 0 0 0 0 0 0 0 0 0 51 0.0008 0 
18255 7 0.00229116 -0.0120253 -0.0559004 0 0 0 -0.0462316 -2.99174 1.52752 0 -1.05196e-05 0 0 0 0 0 0 0 0 0 0 0 0 0 0 0 0 0 0 0.0008 0 
18394 3 0.0171997 -0.00885333 -0.053959 0 0 0 3.12876 -4.2753 3.79115 0 -1.05196e-05 0 0 0 0 0 0 0 0 0 0 0 0 0 0 0 0 0 0 0.0008 0 
4132 2 0.0026104 -0.0269444 -0.0542317 0 0 0 0.628089 -2.83764 1.24853 0 -1.05196e-05 0 0 0 0 0 0 0 0 0 0 0 0 0 0 0 0 0 65 0.0008 0 
18413 3 0.00613738 -0.00889005 -0.0540343 0 0 0 -0.995566 -6.07969 0.541228 0 -1.05196e-05 0 0 0 0 0 0 0 0 0 0 0 0 0 0 0 0 0 0 0.0008 0 
18332 5 0.0186607 -0.0357449 -0.0467869 0 0 0 0.214767 -19.7665 16.6365 0 -1.05196e-05 0 0 0 0 0 0 0 0 0 0 0 0 0 0 0 0 0 0 0.0008 0 
15817 4 0.0309084 -0.049293 -0.0221873 0 0 0 -0.0155834 -44.3324 98.6231 2.49435e-08 0.211593 0.0949875 0 0 0 0 0 0 0 0 0 0 0 0 0 0 0 0 14 0.0008 0 
7189 5 0.020619 -0.0497236 -0.0317468 0 0 0 -15.1368 -27.9036 52.2105 -0.00256111 -0.0213111 -0.00224929 0 0 0 0 0 0 0 0 0 0 0 0 0 0 0 0 52 0.0008 0 
9817 10 0.0253169 -0.0323266 -0.0493131 0 0 0 1.60262 -24.7878 17.4691 0 -1.05196e-05 0 0 0 0 0 0 0 0 0 0 0 0 0 0 0 0 0 60 0.0008 0 
17690 5 0.00785101 -0.008062 -0.0578323 0 0 0 0.21805 -10.4624 -12.2953 0 -1.05196e-05 0 0 0 0 0 0 0 0 0 0 0 0 0 0 0 0 0 0 0.0008 0 
15619 1 0.020547 -0.0524573 -0.0121522 0 0 0 -4.77863 -22.1702 100.472 0.326695 0.0332798 0.344933 1 0 0 0 0 0 0 0 0 0 0 0 0 0 0 0 46 0.0008 0 
13757 2 0.00678563 -0.0152845 -0.0472049 0 0 0 0.141845 -1.10526 5.855 0 -1.05196e-05 0 0 0 0 0 0 0 0 0 0 0 0 0 0 0 0 0 30 0.0008 0 
17490 7 0.0265852 -0.0372676 -0.0477774 0 0 0 -0.47228 -0.980609 0.68251 0 -1.05196e-05 0 0 0 0 0 0 0 0 0 0 0 0 0 0 0 0 0 0 0.0008 0 
5227 9 0.0207088 -0.0512047 -0.0119028 0 0 0 -0.459656 -23.8226 101.927 -0.119368 0.320208 -0.0521162 1 0 0 0 0 0 0 0 2 0 0 0 0 0 0 0 460 0.0008 0 
3831 9 0.0202314 -0.050755 -0.011119 0 0 0 -0.0147629 -22.3069 101.426 -0.000192827 0.217939 0.046678 0 0 0 0 0 0 0 0 2 0 0 0 0 0 0 0 484 0.0008 0 
1300 2 0.0207689 -0.0500543 -0.0113425 0 0 0 0.0165814 -22.7125 100.087 -0.00198511 0.211171 0.0461373 0 4 0 0 0 0 0 0 2 0 0 0 0 0 0 0 255 0.0008 0 
2399 5 0.0215497 -0.0505091 -0.0123014 0 0 0 -0.0343132 -24.6224 100.968 -0.00317584 0.213957 0.0520731 0 1 0 0 2 0 0 0 1 0 0 0 0 0 0 0 551 0.0008 0 
2661 1 0.0217698 -0.0495605 -0.0125207 0 0 0 -0.0288942 -24.8796 99.1883 -0.00204811 0.212149 0.0554367 4 0 0 0 1 0 0 0 0 0 0 0 0 0 0 0 397 0.0008 0 
9675 5 0.0294431 -0.0463776 -0.0190341 0 0 0 -0.00962178 -38.1033 92.7482 -0.00248663 0.207987 0.0766178 0 0 0 0 2 0 0 0 0 0 0 0 0 0 0 0 72 0.0008 0 
4086 2 0.0284451 -0.0462899 -0.0180304 0 0 0 -0.00660732 -36.0049 92.6114 -0.00016672 0.198128 0.0767547 0 0 0 0 1 0 0 0 0 0 0 0 0 0 0 0 51 0.0008 0 
123 1 0.0202771 -0.0493382 -0.0105916 0 0 0 -0.0401972 -21.1552 98.7118 -0.00216515 0.210207 0.0444489 3 1 0 0 0 0 0 0 1 0 0 0 0 0 0 0 626 0.0008 0 
9513 9 0.0208813 -0.0485488 -0.0108305 0 0 0 -0.0838364 -21.5774 97.1229 -0.000226121 0.207484 0.0448443 1 1 0 0 0 0 0 0 6 0 0 0 0 0 0 0 258 0.0008 0 
7671 3 0.0214434 -0.0492754 -0.0116662 0 0 0 -0.0241999 -23.2973 98.5776 -0.00121921 0.208788 0.0491373 2 1 1 0 1 0 0 0 1 0 0 0 0 0 0 0 353 0.0008 0 
10725 10 0.0222156 -0.0483797 -0.0116866 0 0 0 0.0502102 -23.4857 96.6482 0.000765252 0.208603 0.0503801 1 0 1 0 0 0 0 0 1 5 0 0 0 0 0 0 373 0.0008 0 
1299 8 0.0222199 -0.0481092 -0.0124573 0 0 0 0.0344918 -24.7119 96.3353 -0.001197 0.207725 0.053067 1 0 0 0 0 0 0 4 0 1 0 0 0 0 0 0 658 0.0008 0 
5218 9 0.0230731 -0.04749 -0.013049 0 0 0 0.0647559 -25.9329 95.0365 0.00280808 0.198246 0.0536591 0 0 0 0 0 0 0 1 5 0 0 0 0 0 0 0 364 0.0008 0 
282 4 0.0234301 -0.0478437 -0.0127231 0 0 0 -0.0681708 -25.6767 95.7397 -0.00478791 0.198145 0.0535309 0 0 0 5 0 0 0 1 1 0 0 0 0 0 0 0 576 0.0008 0 
6430 3 0.0226426 -0.0489711 -0.0128134 0 0 0 -0.0247179 -25.6243 97.8377 -0.00111131 0.209322 0.0551928 1 0 0 1 0 0 0 1 1 1 0 0 0 0 0 0 477 0.0008 0 
617 3 0.0240721 -0.0478007 -0.0138374 0 0 0 0.0985626 -28.1316 95.8982 -0.0428046 0.239223 -0.00717213 0 0 2 1 0 0 0 0 1 0 0 0 0 0 0 0 410 0.0008 0 
8427 2 0.0247782 -0.046925 -0.0141354 0 0 0 1.27227 -29.3573 94.7979 -0.317226 0.325168 -0.261537 0 2 1 0 0 0 0 0 0 0 0 0 0 0 0 0 108 0.0008 0 
11603 8 0.0254294 -0.0463463 -0.0148061 0 0 0 0.789366 -30.2425 93.6702 -0.0113199 0.273016 0.000439086 0 1 0 0 0 0 0 1 0 0 0 0 0 0 0 0 37 0.0008 0 
14906 2 0.029847 -0.0448937 -0.0187706 0 0 0 0.176472 -37.6402 89.8733 -0.0678356 0.224376 0.0214121 0 1 0 0 1 0 0 0 0 0 0 0 0 0 0 0 35 0.0008 0 
18350 2 0.0343 -0.0416959 -0.0417872 0 0 0 1.67413 -8.58746 7.97876 0.0130403 0.0413451 0.0366831 0 0 0 0 0 0 0 0 0 0 0 0 0 0 0 0 0 0.0008 0 
18160 2 0.0107297 -0.0369354 -0.0450606 0 0 0 -0.0779138 -2.16454 2.85254 0 -1.05196e-05 0 0 0 0 0 0 0 0 0 0 0 0 0 0 0 0 0 0 0.0008 0 
18216 5 0.022599 -0.0388015 -0.0441744 0 0 0 1.75067 -4.8372 4.05513 0 -1.05196e-05 0 0 0 0 0 0 0 0 0 0 0 0 0 0 0 0 0 0 0.0008 0 
3437 2 0.0204893 -0.0476895 -0.0098254 0 0 0 0.0772334 -19.7597 95.2954 0.000801489 0.203696 0.0427782 0 3 0 0 0 0 0 0 1 0 0 0 0 0 0 0 542 0.0008 0 
3488 2 0.019972 -0.0482468 -0.0100769 0 0 0 -0.0664026 -20.1185 96.5545 0.000502822 0.206402 0.0425525 1 0 0 0 0 0 0 0 1 0 0 0 0 0 0 0 318 0.0008 0 
4081 6 0.0215706 -0.0475883 -0.0114344 0 0 0 0.0919792 -22.6282 95.2758 0.000155175 0.204636 0.0478601 0 0 0 0 0 5 0 1 1 1 0 0 0 0 0 0 544 0.0008 0 
1830 1 0.0214418 -0.0479051 -0.0107007 0 0 0 0.123529 -21.5174 95.6609 0.000189126 0.20488 0.0461039 2 1 0 0 0 1 0 0 1 1 0 0 0 0 0 0 471 0.0008 0 
9248 8 0.0224757 -0.0469015 -0.012061 0 0 0 -0.112802 -23.8096 93.9079 0.0004252 0.202503 0.0495548 0 0 0 1 0 1 0 3 1 1 0 0 0 0 0 0 208 0.0008 0 
4918 9 0.0229074 -0.0468256 -0.0117059 0 0 0 0.0683194 -23.5876 93.4979 -0.00282882 0.200885 0.0526411 0 0 0 1 0 1 0 1 4 0 0 0 0 0 0 0 535 0.0008 0 
4033 5 0.0239003 -0.0465524 -0.013195 0 0 0 0.508075 -26.726 93.4054 -0.00942748 0.169692 -0.0470766 0 1 1 1 2 0 0 0 1 0 0 0 0 0 0 0 442 0.0008 0 
12004 1 0.0237762 -0.0459442 -0.0124137 0 0 0 0.00654331 -24.9614 91.9318 -0.00454113 0.196803 0.0494649 3 0 0 0 1 0 0 0 1 0 0 0 0 0 0 0 128 0.0008 0 
3056 7 0.0246266 -0.0453346 -0.0134396 0 0 0 -0.0395247 -26.8343 90.8939 -0.00304096 0.191208 0.052248 1 0 0 0 1 0 1 0 0 0 0 0 0 0 0 0 527 0.0008 0 
16691 6 0.0260065 -0.0452264 -0.0147797 0 0 0 5.15201 -31.6562 95.152 -0.19032 0.0862438 -0.218942 0 0 0 0 0 1 0 1 0 0 0 0 0 0 0 0 36 0.0008 0 
16848 5 0.0267738 -0.0442028 -0.0151597 0 0 0 5.89103 -32.8634 93.6939 -0.186883 0.2155 -0.258171 0 0 0 0 1 1 0 0 0 0 0 0 0 0 0 0 9 0.0008 0 
8968 1 0.0302256 -0.0434135 -0.0185486 0 0 0 0.0246617 -37.0857 86.8295 -0.00442059 0.185072 0.0732491 0 1 0 0 0 0 0 0 0 0 0 0 0 0 0 0 47 0.0008 0 
7206 6 0.0209799 -0.0468829 -0.0096218 0 0 0 0.0879238 -19.432 93.6168 -0.0003925 0.200219 0.042623 1 1 0 0 0 3 0 0 0 0 0 0 0 0 0 0 385 0.0008 0 
53 4 0.0209687 -0.0467197 -0.0103025 0 0 0 -0.00407585 -20.546 93.4329 -0.000434448 0.200253 0.0444785 1 1 0 4 0 2 0 0 0 0 0 0 0 0 0 0 618 0.0008 0 
7049 2 0.021973 -0.0464122 -0.0110597 0 0 0 -0.0118253 -21.9871 92.893 -0.000220215 0.199261 0.0474457 0 3 0 1 0 1 0 1 1 0 0 0 0 0 0 0 525 0.0008 0 
8818 6 0.0220943 -0.0457323 -0.0103762 0 0 0 -0.0442898 -20.9034 91.3747 -3.24029e-05 0.195696 0.0454511 0 1 0 1 0 2 0 0 0 0 0 0 0 0 0 0 312 0.0008 0 
83 6 0.0228238 -0.0454256 -0.0112921 0 0 0 0.0646621 -22.5988 90.8563 -0.000153822 0.195807 0.0492332 1 1 0 0 0 3 0 0 1 0 0 0 0 0 0 0 603 0.0008 0 
258 1 0.0230136 -0.0456234 -0.012129 0 0 0 0.0759481 -23.9806 91.3672 -0.00101372 0.197149 0.0512943 1 0 0 0 0 1 0 1 1 0 0 0 0 0 0 0 533 0.0008 0 
15410 5 0.0238365 -0.0445163 -0.0122237 0 0 0 -0.0502011 -24.3847 89.1721 0.000335606 0.192221 0.0535796 2 0 0 0 3 0 0 0 0 0 0 0 0 0 0 0 115 0.0008 0 
4454 12 0.0246468 -0.0439513 -0.0126277 0 0 0 0.00474413 -25.3195 87.8312 4.71437e-05 0.188655 0.0547154 0 0 0 0 1 0 0 0 0 0 0 3 0 0 0 0 491 0.0008 0 
16590 4 0.025132 -0.0444041 -0.0134342 0 0 0 0.0877037 -26.9871 88.7058 -2.27264e-05 0.190912 0.0558875 0 0 0 0 0 0 1 0 0 0 0 1 0 0 0 0 59 0.0008 0 
12243 4 0.0257115 -0.0435991 -0.0138215 0 0 0 -0.0161829 -27.5835 87.2442 0.0172966 0.172222 0.0665139 0 0 0 1 0 0 0 0 0 0 0 0 0 0 0 0 136 0.0008 0 
34 8 0.0266418 -0.0430016 -0.0144636 0 0 0 0.480376 -29.0611 86.3811 0.0231834 0.1918 0.0942177 0 0 0 1 1 0 0 1 0 0 0 0 0 0 0 0 550 0.0008 0 
17087 7 0.0147672 -0.0426739 -0.0406751 0 0 0 1.09161 -5.32109 6.52949 0 -1.05196e-05 0 0 0 0 0 0 0 0 0 0 0 0 0 0 0 0 0 6 0.0008 0 
370 1 0.020186 -0.0451132 -0.00867945 0 0 0 0.0136133 -17.3284 90.2374 9.55573e-05 0.193777 0.0371932 5 0 0 0 0 0 0 0 0 0 0 0 0 0 0 0 451 0.0008 0 
7147 3 0.0204043 -0.0460348 -0.00914388 0 0 0 -0.00736725 -18.3759 92.0334 0.0001904 0.197473 0.0396113 1 0 2 1 0 1 0 0 0 0 0 0 0 0 0 0 457 0.0008 0 
2651 9 0.0212923 -0.0454374 -0.00999572 0 0 0 -0.00759649 -19.8072 90.9646 0.000102975 0.195178 0.0419698 0 1 1 1 0 2 0 0 3 0 0 0 0 0 0 0 569 0.0008 0 
9966 6 0.0211525 -0.044977 -0.00889893 0 0 0 -0.073305 -18.0162 89.8721 0.000642126 0.193427 0.0392951 1 0 1 0 0 2 0 0 1 0 0 0 0 0 0 0 360 0.0008 0 
2095 7 0.0223653 -0.0442329 -0.00990691 0 0 0 0.044595 -19.9988 88.3038 0.000115283 0.188916 0.0430378 0 0 0 0 0 1 5 0 0 0 0 0 0 0 0 0 541 0.0008 0 
500 6 0.0220177 -0.0444907 -0.0104499 0 0 0 -0.0580562 -20.8566 89.1153 0.000164395 0.191237 0.0447897 0 0 0 0 0 4 1 0 1 0 0 0 0 0 0 0 571 0.0008 0 
5050 3 0.021277 -0.0442655 -0.00943257 0 0 0 -0.0237917 -18.6946 88.6705 -0.000218687 0.190432 0.0394454 1 0 3 0 0 2 1 0 1 0 0 0 0 0 0 0 525 0.0008 0 
675 3 0.0231581 -0.0441674 -0.0108107 0 0 0 0.0647781 -21.771 88.2247 0.000211268 0.188946 0.0471551 0 0 4 0 0 2 1 0 0 0 0 0 0 0 0 0 488 0.0008 0 
10324 7 0.0230677 -0.0440729 -0.0113893 0 0 0 -0.170958 -22.6306 88.2661 2.96012e-05 0.189668 0.0484867 0 0 1 0 1 2 2 0 0 0 0 0 0 0 0 0 280 0.0008 0 
16015 1 0.024082 -0.0433603 -0.0116839 0 0 0 -0.0504078 -23.4125 86.684 -1.72167e-05 0.186172 0.0505744 3 0 1 0 1 0 1 0 0 0 0 1 0 0 0 0 67 0.0008 0 
10493 4 0.0248229 -0.0426182 -0.0123828 0 0 0 -0.0181217 -24.7902 85.2339 -2.38489e-05 0.182645 0.0531607 1 0 0 2 0 0 0 0 0 0 0 1 0 0 0 0 214 0.0008 0 
9359 3 0.0261711 -0.042081 -0.0135225 0 0 0 -0.0970423 -27.1245 84.1742 0.00271592 0.184576 0.0580268 0 0 1 0 0 0 0 1 0 0 0 0 0 0 0 0 130 0.0008 0 
10239 8 0.0200932 -0.0440431 -0.00792966 0 0 0 -0.0050014 -15.9461 88.0522 -7.04976e-06 0.189101 0.0343624 1 0 0 0 0 0 0 2 0 0 0 0 0 0 0 0 218 0.0008 0 
44 2 0.0206164 -0.0437233 -0.00847305 0 0 0 0.0297595 -16.7479 87.5801 -0.00040131 0.188169 0.0356086 1 2 1 0 0 1 0 1 0 0 0 0 0 0 0 0 543 0.0008 0 
717 6 0.0213108 -0.0431516 -0.00886521 0 0 0 -0.0118844 -17.4463 86.3053 -2.14769e-05 0.184762 0.0368439 0 1 1 0 0 5 0 0 0 0 0 0 0 0 0 0 590 0.0008 0 
2302 4 0.022319 -0.0432021 -0.0101367 0 0 0 0.0237442 -20.1848 86.4073 -5.64838e-05 0.185248 0.0429608 0 0 1 3 0 1 1 0 0 0 0 0 0 0 0 0 594 0.0008 0 
1252 1 0.0220083 -0.0432567 -0.00913666 0 0 0 0.0737963 -18.4999 86.3881 1.02859e-05 0.184945 0.0401124 2 0 1 1 0 1 1 0 0 0 0 0 0 0 0 0 579 0.0008 0 
579 4 0.0233183 -0.0428685 -0.0108483 0 0 0 0.00273758 -21.6078 85.7844 -8.75001e-06 0.184088 0.0461712 1 0 1 2 0 0 1 0 0 0 0 0 0 0 0 0 229 0.0008 0 
3382 4 0.0242195 -0.0421556 -0.0113567 0 0 0 0.066497 -22.7416 84.2921 -0.000121234 0.180717 0.0488836 1 0 0 2 0 0 0 0 0 0 0 0 0 0 0 0 599 0.0008 0 
9524 3 0.0250615 -0.0413802 -0.0119183 0 0 0 0.00833605 -23.8123 82.7524 6.93356e-05 0.17743 0.0508533 0 0 2 2 0 0 0 0 0 0 0 0 0 0 0 0 112 0.0008 0 
5029 5 0.0256964 -0.0415034 -0.0128044 0 0 0 0.0653068 -25.5524 83.0226 0.000243699 0.177867 0.0544832 0 0 2 1 0 0 0 0 0 0 0 0 0 0 0 0 116 0.0008 0 
11662 1 0.0441081 -0.0456842 -0.036712 0 0 0 22.6766 -19.7857 48.8697 0 -1.05196e-05 0 0 0 0 0 0 0 0 0 0 0 0 0 0 0 0 0 36 0.0008 0 
2167 5 0.0307842 -0.038224 -0.0168667 0 0 0 0.00854311 -33.7253 76.4492 0.00020457 0.163885 0.0724528 0 0 0 0 4 0 0 0 0 0 0 0 0 0 0 0 579 0.0008 0 
5427 6 0.0321841 -0.0385474 -0.0171228 0 0 0 0.0089178 -34.2548 76.9812 -0.000192572 0.164206 0.0728681 0 0 0 0 1 3 0 0 0 0 0 0 0 0 0 0 102 0.0008 0 
3304 6 0.0305028 -0.0373769 -0.0182126 0 0 0 -0.00239993 -36.4523 74.7643 -0.000123135 0.161355 0.0784658 0 0 0 0 0 5 0 0 0 0 0 0 0 0 0 0 695 0.0008 0 
14143 1 0.0317189 -0.0382045 -0.0184239 0 0 0 0.000573446 -36.7905 76.3334 -0.000677046 0.163352 0.0789707 3 0 0 0 0 2 0 0 0 0 0 0 0 0 0 0 128 0.0008 0 
6688 7 0.0329334 -0.0373911 -0.0188737 0 0 0 -0.0131274 -37.7035 74.7536 -0.00023609 0.160717 0.0808529 1 0 0 0 0 0 2 0 0 0 0 0 0 0 0 0 421 0.0008 0 
760 7 0.0333181 -0.037879 -0.0175589 0 0 0 0.00687066 -35.1029 75.712 0.000326815 0.162079 0.0748631 0 0 0 0 0 1 2 0 0 0 0 0 0 0 0 0 542 0.0008 0 
3329 4 0.0316734 -0.0369941 -0.019134 0 0 0 -0.0085033 -38.1819 73.9838 -0.000348943 0.15911 0.0819563 1 0 0 2 0 1 1 0 0 0 0 0 0 0 0 0 618 0.0008 0 
16766 3 0.0342092 -0.0366173 -0.019838 0 0 0 0.00972511 -39.6682 73.2295 7.97198e-06 0.157052 0.0850536 0 0 0 0 0 0 0 0 0 0 0 0 0 0 0 0 3 0.0008 0 
7586 9 0.0120978 -0.0288595 -0.0397597 0 0 0 0.0926185 -1.75561 -0.184803 0 -1.05196e-05 0 0 0 0 0 0 0 0 0 0 0 0 0 0 0 0 0 51 0.0008 0 
2549 2 0.0206204 -0.042432 -0.00797187 0 0 0 -0.0770711 -15.7258 85.044 8.52456e-06 0.182673 0.0332238 0 5 0 0 0 1 0 0 0 0 0 0 0 0 0 0 524 0.0008 0 
4700 3 0.0207674 -0.0434003 -0.00763872 0 0 0 0.0577093 -15.4306 86.7241 -0.000318679 0.186065 0.0333392 0 2 1 0 0 1 0 1 0 0 0 0 0 0 0 0 488 0.0008 0 
7079 5 0.021751 -0.0421458 -0.00827145 0 0 0 0.0113754 -16.717 84.1347 -2.59326e-05 0.18 0.0365855 1 1 0 0 4 1 0 0 0 0 0 0 0 0 0 0 161 0.0008 0 
3794 3 0.0220912 -0.0419505 -0.00931959 0 0 0 0.0538476 -18.4957 83.9366 -0.000110814 0.179852 0.0392493 1 0 3 1 1 1 0 0 0 0 0 0 0 0 0 0 442 0.0008 0 
5630 1 0.0228736 -0.0424006 -0.00964819 0 0 0 0.0450904 -19.4851 84.7072 -3.3635e-05 0.181606 0.0420152 1 0 1 2 0 0 0 0 0 0 0 0 0 0 0 0 521 0.0008 0 
97 5 0.0234582 -0.0407278 -0.0098561 0 0 0 0.0276585 -19.6283 81.4451 0.000172898 0.174698 0.0418242 0 0 0 0 4 0 0 0 0 0 0 0 0 0 0 0 621 0.0008 0 
6228 2 0.0234341 -0.0417563 -0.0104077 0 0 0 0.0214424 -20.7781 83.5173 3.1621e-05 0.179067 0.0444227 1 0 0 2 1 0 0 0 0 0 0 0 0 0 0 0 294 0.0008 0 
11658 5 0.0246465 -0.0405371 -0.0111354 0 0 0 -0.0259867 -22.2482 81.1005 5.45942e-05 0.174037 0.0476127 0 0 1 0 1 0 0 0 0 0 0 0 0 0 0 0 208 0.0008 0 
2800 3 0.0270504 -0.038562 -0.0129952 0 0 0 -0.103761 -26.0018 77.2224 -4.02151e-05 0.165831 0.055835 0 0 1 0 0 0 0 0 0 0 0 0 0 0 0 0 444 0.0008 0 
134 7 0.0311931 -0.0372661 -0.0159696 0 0 0 -0.0180062 -31.9368 74.534 0.000125851 0.160824 0.0691906 0 0 0 0 1 0 2 0 0 0 0 0 0 0 0 0 550 0.0008 0 
5110 13 0.0329481 -0.0372796 -0.01633 0 0 0 0.0137676 -32.6602 74.5464 -0.000271741 0.158947 0.0698035 0 0 0 0 0 0 1 0 0 0 0 0 4 0 0 0 654 0.0008 0 
847 1 0.0303374 -0.0369071 -0.0169406 0 0 0 0.00662954 -33.8831 73.8074 0.000541523 0.158077 0.0727804 3 0 0 0 1 1 1 0 0 0 0 0 0 0 0 0 369 0.0008 0 
13798 2 0.0327287 -0.0366496 -0.0178723 0 0 0 0.00605474 -35.7248 73.2537 0.000396668 0.156222 0.0775607 0 3 0 0 0 0 2 0 0 0 0 0 0 0 0 0 186 0.0008 0 
7604 2 0.0314469 -0.0360812 -0.0170393 0 0 0 0.0108115 -34.0648 72.1266 0.00168853 0.153764 0.0735484 1 4 0 0 0 0 0 0 0 0 0 0 0 0 0 0 291 0.0008 0 
739 7 0.0317583 -0.0373229 -0.0173367 0 0 0 0.0128545 -34.6626 74.6391 0.000255375 0.158544 0.0747731 2 2 0 0 1 2 0 0 0 0 0 0 1 0 0 0 581 0.0008 0 
564 10 0.0335828 -0.0360644 -0.017093 0 0 0 -0.000144791 -34.1988 72.1168 0.00024816 0.154344 0.0733935 0 1 0 0 0 0 0 0 0 2 0 0 1 0 0 0 703 0.0008 0 
11146 1 0.0307754 -0.0360869 -0.0182773 0 0 0 0.0506775 -36.6074 72.11 -0.000267024 0.156576 0.0796824 1 1 0 1 0 1 0 0 0 0 0 0 0 0 0 0 235 0.0008 0 
16763 1 0.0319675 -0.0358025 -0.0187758 0 0 0 0.0174236 -37.4683 71.634 0.00116308 0.153614 0.0801171 2 1 0 1 0 0 0 0 0 0 0 0 0 0 0 0 51 0.0008 0 
6951 2 0.0332306 -0.0352743 -0.0181974 0 0 0 0.00193427 -36.3638 70.5724 0.000671301 0.151503 0.077476 1 2 0 0 0 0 0 0 0 1 0 0 0 0 0 0 365 0.0008 0 
17424 1 0.0216491 -0.0475219 -0.0383208 0 0 0 0.251595 -0.387214 0.424933 3.49373e-06 -3.58411e-06 3.97363e-06 0 0 0 0 0 0 0 0 0 0 0 0 0 0 0 0 0 0.0008 0 
12424 6 0.0201607 -0.0420592 -0.00704834 0 0 0 0.0244113 -14.1076 84.1255 6.77736e-05 0.180436 0.0301759 0 1 1 0 0 2 0 0 0 0 0 0 0 0 0 0 202 0.0008 0 
7518 5 0.0202419 -0.041006 -0.00664329 0 0 0 -0.0598588 -13.2872 82.0034 0.000238759 0.175523 0.028333 0 0 0 0 3 1 0 0 0 0 0 0 0 0 0 0 385 0.0008 0 
11253 8 0.0210803 -0.0418201 -0.0074933 0 0 0 0.133364 -14.9974 83.5516 9.7965e-05 0.178516 0.0319011 0 1 0 0 2 1 0 1 0 0 0 0 0 0 0 0 287 0.0008 0 
2710 6 0.0224428 -0.0410417 -0.00873583 0 0 0 0.103033 -17.5946 82.0069 0.000183275 0.175615 0.0377484 0 0 1 0 2 2 0 0 0 0 0 0 0 0 0 0 540 0.0008 0 
8933 4 0.0214664 -0.0411344 -0.00821306 0 0 0 0.147149 -16.2213 82.3589 0.000105232 0.17642 0.0340295 0 1 1 2 1 1 0 1 0 0 0 0 0 0 0 0 347 0.0008 0 
5276 5 0.022599 -0.039517 -0.00857249 0 0 0 -0.0994361 -17.0269 79.2225 0.000184703 0.170392 0.0364204 0 0 0 0 2 1 0 0 0 0 0 0 0 0 0 0 330 0.0008 0 
12650 2 0.0232229 -0.0393575 -0.00907779 0 0 0 -0.0618584 -18.1827 78.7348 -0.000223111 0.169082 0.0393175 0 1 0 0 2 0 0 0 0 0 0 0 0 0 0 0 147 0.0008 0 
9969 12 0.024139 -0.0389148 -0.00968617 0 0 0 -0.0168729 -19.39 77.8489 -7.72577e-05 0.167032 0.0417469 0 1 0 0 0 0 0 0 0 0 0 1 0 0 0 0 234 0.0008 0 
14579 9 0.0242408 -0.0398248 -0.0103304 0 0 0 0.00828341 -20.6568 79.6543 -7.19604e-06 0.17081 0.044299 0 0 0 0 2 0 0 0 1 0 0 1 0 0 0 0 75 0.0008 0 
6942 12 0.0251442 -0.0385948 -0.010764 0 0 0 -0.0762571 -21.5499 77.251 -2.63799e-06 0.165799 0.04625 0 0 0 0 0 0 0 0 1 0 0 1 0 0 0 0 240 0.0008 0 
5538 5 0.0260158 -0.0384965 -0.0117181 0 0 0 -0.0110226 -23.4015 77.0432 1.04845e-05 0.165335 0.0501039 0 0 0 0 1 0 0 0 0 0 0 1 0 0 0 0 385 0.0008 0 
76 8 0.0270093 -0.0378151 -0.0123845 0 0 0 0.0267008 -24.7368 75.6063 5.68535e-06 0.162107 0.0529756 0 0 1 0 1 0 0 0 0 0 0 0 0 0 0 0 514 0.0008 0 
100 2 0.0304938 -0.0357789 -0.0160313 0 0 0 -0.011861 -32.0505 71.5375 0.00100602 0.152684 0.069255 1 2 0 0 0 0 0 0 0 0 0 0 0 0 0 0 685 0.0008 0 
16871 1 0.032111 -0.0364622 -0.0154348 0 0 0 -0.0115977 -30.8828 72.9111 -4.62908e-05 0.157075 0.0667121 2 0 0 0 0 0 1 0 0 0 0 0 1 0 0 0 36 0.0008 0 
12101 1 0.033275 -0.0358033 -0.015909 0 0 0 -0.0204054 -31.7882 71.5844 0.00033552 0.153309 0.0680488 1 0 0 0 0 0 0 0 0 1 0 0 1 0 0 0 235 0.0008 0 
47 1 0.0320502 -0.0351269 -0.0162942 0 0 0 -0.0622802 -32.5208 70.2816 0.00145224 0.150379 0.0696394 4 1 0 0 0 0 0 0 0 0 0 0 0 0 0 0 614 0.0008 0 
13155 7 0.0305079 -0.0349918 -0.0174039 0 0 0 0.000608787 -34.8922 69.9314 0.00118158 0.152879 0.076932 1 2 0 0 0 0 2 0 0 0 0 0 0 0 0 0 171 0.0008 0 
16148 6 0.0318495 -0.0347353 -0.0181328 0 0 0 0.033439 -36.1741 69.4696 0.0015679 0.147638 0.0774168 1 1 0 0 0 2 1 0 0 0 0 0 0 0 0 0 93 0.0008 0 
9772 4 0.0328937 -0.0344625 -0.0171719 0 0 0 -0.00551478 -34.3566 68.9732 0.00192298 0.148314 0.0733541 1 1 0 2 0 1 0 0 0 0 0 0 0 0 0 0 408 0.0008 0 
4455 3 0.0047965 -0.0493377 -0.0297527 0 0 0 0.752938 -13.1771 13.9637 0 -1.05196e-05 0 0 0 0 0 0 0 0 0 0 0 0 0 0 0 0 0 68 0.0008 0 
3400 4 0.0204675 -0.0404555 -0.00616648 0 0 0 -0.0252363 -12.4356 80.961 7.20874e-07 0.173737 0.0267567 0 0 0 1 1 0 0 0 0 0 0 0 0 0 0 0 580 0.0008 0 
10637 1 0.0219524 -0.0397684 -0.00774093 0 0 0 -0.122134 -15.5381 79.6209 0.000532182 0.171389 0.0333087 1 0 0 1 1 0 0 0 0 0 0 0 0 0 0 0 176 0.0008 0 
7521 7 0.0210878 -0.0401913 -0.00707838 0 0 0 -0.0787237 -14.1564 80.464 -2.80415e-05 0.17281 0.0301288 1 0 0 2 1 0 0 0 0 0 0 0 0 0 0 0 408 0.0008 0 
11780 5 0.0312679 -0.0352537 -0.0150328 0 0 0 0.00306016 -30.1091 70.5081 0.000901258 0.151191 0.0650762 2 1 0 0 1 0 0 0 0 0 0 0 0 0 0 0 213 0.0008 0 
5066 2 0.0326523 -0.0350411 -0.0149385 0 0 0 -0.0228632 -29.9126 70.0826 6.98304e-05 0.149982 0.0643072 3 2 0 0 1 0 0 0 0 0 0 0 0 0 0 0 297 0.0008 0 
6581 1 0.0304213 -0.0338572 -0.0165503 0 0 0 0.0312595 -33.3375 67.7243 0.00108731 0.146933 0.0747341 4 0 0 0 0 0 1 0 0 0 0 0 0 0 0 0 406 0.0008 0 
11851 5 0.0305877 -0.0339231 -0.0150654 0 0 0 0.0163416 -30.2582 67.7695 -0.00100677 0.146521 0.0661765 1 0 0 0 0 0 0 0 0 0 0 0 0 0 0 0 223 0.0008 0 
7478 3 0.0318696 -0.0336961 -0.0160258 0 0 0 -0.086401 -31.9619 67.4305 -0.000484602 0.144434 0.0672977 2 0 2 0 0 0 0 0 0 0 0 0 0 0 0 0 497 0.0008 0 
2556 1 0.0334743 -0.0342421 -0.0159136 0 0 0 -0.0134654 -31.8132 68.5324 -0.0002345 0.146923 0.0688079 2 1 0 1 0 0 0 0 0 0 0 0 0 0 0 0 775 0.0008 0 
5616 7 0.0315339 -0.0335334 -0.0175413 0 0 0 -0.161785 -35.0655 67.0993 0.000664709 0.143774 0.0773388 1 0 1 0 0 1 1 0 0 0 0 0 0 0 0 0 444 0.0008 0 
759 5 0.0330847 -0.0330757 -0.0168243 0 0 0 -0.0111803 -33.7059 66.1249 -0.000431197 0.140606 0.0714558 1 0 1 1 1 0 0 0 0 0 0 0 0 0 0 0 718 0.0008 0 
9091 5 0.0329368 -0.0336115 -0.0146257 0 0 0 -0.0661379 -29.2708 67.2693 -0.000237631 0.144133 0.0631609 1 1 0 0 0 0 0 0 0 0 0 0 0 0 0 0 345 0.0008 0 
3796 15 0.0305331 -0.0324324 -0.0161386 0 0 0 -0.0121632 -32.4608 64.654 -0.00313029 0.134221 0.0698946 1 0 0 0 0 0 0 0 0 0 0 0 0 0 1 0 250 0.0008 0 
2782 8 0.0318432 -0.0322069 -0.016965 0 0 0 0.00831536 -33.9318 64.4142 -0.000151034 0.136916 0.0711976 0 0 0 0 1 0 1 0 0 0 0 0 0 0 1 0 713 0.0008 0 
18427 2 0.0121409 -0.0505536 -0.0302119 0 0 0 -0.00670467 -5.34655 9.68825 0 -1.05196e-05 0 0 0 0 0 0 0 0 0 0 0 0 0 0 0 0 0 0 0.0008 0 
17700 3 0.0432323 -0.0557268 -0.0191344 0 0 0 -8.59124 -8.19784 24.2237 0.0143334 -0.0221346 0.00868836 0 0 1 0 0 0 0 0 0 0 0 0 0 0 0 0 1 0.0008 0 
18420 8 0.0425355 -0.0548429 -0.0202378 0 0 0 -8.01023 -11.6813 22.6433 -0.0143334 0.0221136 -0.00868836 0 0 1 0 0 0 0 0 0 0 0 0 0 0 0 0 1 0.0008 0 
18428 3 0.00716594 -0.0554738 -0.0193096 0 0 0 -5.55223e-13 -3.52067 10.7685 0 -1.05196e-05 0 0 0 0 0 0 0 0 0 0 0 0 0 0 0 0 0 0 0.0008 0 
14539 6 0.0011771 -0.0578228 -0.0194259 0 0 0 -0.0491973 0.028504 -0.0735774 -1.09765e-17 -9.80505e-07 2.53098e-06 0 0 0 0 0 0 0 0 0 0 0 0 0 0 0 0 2 0.0008 0 
5801 6 0.0230359 -0.0582505 -0.0183219 0 0 0 0.124575 0.0159711 -0.0412261 5.23468e-19 -9.80505e-07 2.53098e-06 0 0 0 0 0 0 0 0 0 0 0 0 0 0 0 0 37 0.0008 0 
5728 2 0.042716 -0.0584551 -0.0177937 0 0 0 0.408594 0.0284912 -0.0735442 4.89345e-06 -1.25335e-06 3.23527e-06 0 0 0 0 0 0 0 0 0 0 0 0 0 0 0 0 56 0.0008 0 
15705 3 0.00324004 -0.0581659 -0.0078553 0 0 0 5.18182 -3.25972 20.9817 0 -1.05196e-05 0 0 0 0 0 0 0 0 0 0 0 0 0 0 0 0 0 11 0.0008 0 
18339 5 0.0119437 -0.0575737 -0.0117838 0 0 0 0.675615 -3.56713 12.5478 0 -1.05196e-05 0 0 0 0 0 0 0 0 0 0 0 0 0 0 0 0 0 0 0.0008 0 
13923 7 0.00122456 -0.058546 -0.0175593 0 0 0 0.0282822 0.00872131 -0.0225123 6.05997e-18 -9.80505e-07 2.53098e-06 0 0 0 0 0 0 0 0 0 0 0 0 0 0 0 0 18 0.0008 0 
7967 9 0.00102033 -0.0589212 -0.0157578 0 0 0 0.165201 0.107123 -0.139014 0 -1.05196e-05 0 0 0 0 0 0 0 0 0 0 0 0 0 0 0 0 0 72 0.0008 0 
13193 11 0.015191 -0.0591818 -0.0150285 0 0 0 0.0787814 -0.00413935 0.0221435 4.86252e-18 -2.53692e-07 1.35713e-06 0 0 0 0 0 0 0 0 0 0 0 0 0 0 0 0 27 0.0008 0 
18020 5 0.0254513 -0.0592096 -0.0148798 0 0 0 0.105367 0.00165123 -0.00883331 -8.15656e-19 -2.53692e-07 1.35713e-06 0 0 0 0 0 0 0 0 0 0 0 0 0 0 0 0 0 0.0008 0 
14527 2 0.000833112 -0.0594791 -0.0134384 0 0 0 -0.0533295 0.0097117 -0.0519529 -5.16233e-06 -3.027e-07 1.6193e-06 0 0 0 0 0 0 0 0 0 0 0 0 0 0 0 0 13 0.0008 0 
17627 1 0.0367309 -0.0593794 -0.0139716 0 0 0 0.0932995 0.00644536 -0.0344796 2.94341e-18 -2.53692e-07 1.35713e-06 0 0 0 0 0 0 0 0 0 0 0 0 0 0 0 0 0 0.0008 0 
17465 4 0.0384697 -0.0597247 -0.0121246 0 0 0 -0.160863 -0.000887082 0.00474547 -1.67452e-14 -2.53688e-07 1.35713e-06 0 0 0 0 0 0 0 0 0 0 0 0 0 0 0 0 0 0.0008 0 
15810 2 0.0403624 -0.0597675 -0.0118955 0 0 0 -0.124471 0.00853184 -0.0456413 -2.37877e-15 -2.53692e-07 1.35713e-06 0 0 0 0 0 0 0 0 0 0 0 0 0 0 0 0 2 0.0008 0 
18396 4 0.0432877 -0.0597545 -0.0119648 0 0 0 -0.102278 0.0037612 -0.0201206 1.35441e-17 -2.53692e-07 1.35713e-06 0 0 0 0 0 0 0 0 0 0 0 0 0 0 0 0 1 0.0008 0 
14170 7 0.0010628 -0.0600612 -0.0103241 0 0 0 -0.0188838 -0.000954058 0.021088 3.28434e-06 -1.8371e-05 -4.20386e-06 0 0 0 0 0 0 0 0 0 0 0 0 0 0 0 0 1 0.0008 0 
16349 4 0.00182269 -0.0597621 -0.011763 0 0 0 -0.135965 0.0198357 -0.0773913 0 -1.05196e-05 0 0 0 0 0 0 0 0 0 0 0 0 0 0 0 0 0 0 0.0008 0 
752 3 0.00811407 -0.0599952 -0.0106775 0 0 0 0.03587 -0.00543929 0.0290976 -6.29557e-19 -2.53692e-07 1.35713e-06 0 0 0 0 0 0 0 0 0 0 0 0 0 0 0 0 55 0.0008 0 
13645 4 0.0121416 -0.0599646 -0.0108409 0 0 0 0.0423757 -0.000502485 0.00268805 3.18197e-18 -2.53692e-07 1.35713e-06 0 0 0 0 0 0 0 0 0 0 0 0 0 0 0 0 41 0.0008 0 
9557 4 0.0300251 -0.0600259 -0.0105132 0 0 0 -0.00911664 -0.0040653 0.0217474 3.70602e-18 -2.53692e-07 1.35713e-06 0 0 0 0 0 0 0 0 0 0 0 0 0 0 0 0 45 0.0008 0 
10209 5 0.0390298 -0.0600195 -0.0105472 0 0 0 -0.0273386 -0.000720032 0.00385182 2.764e-15 -2.53696e-07 1.35713e-06 0 0 0 0 0 0 0 0 0 0 0 0 0 0 0 0 30 0.0008 0 
14994 1 0.0439809 -0.0600322 -0.0104512 0 0 0 -0.0174192 -0.00215207 -0.0325239 0 -1.05196e-05 0 0 0 0 0 0 0 0 0 0 0 0 0 0 0 0 0 12 0.0008 0 
12335 5 0.0463783 -0.0599301 -0.0110258 0 0 0 -0.00238513 -0.0018924 0.0101405 -2.10391e-12 -2.73759e-07 1.3534e-06 0 0 0 0 0 0 0 0 0 0 0 0 0 0 0 0 11 0.0008 0 
5338 2 0.00530444 -0.0603031 -0.00903008 0 0 0 0.00405042 -0.00149938 0.00804004 1.67652e-11 -3.07033e-07 1.34698e-06 0 0 0 0 0 0 0 0 0 0 0 0 0 0 0 0 47 0.0008 0 
10441 10 0.0221018 -0.0603026 -0.00903311 0 0 0 0.0145325 -6.58026e-05 0.000138727 4.55581e-08 4.70394e-07 1.62971e-06 0 0 0 0 0 0 0 0 0 1 0 0 0 0 0 0 38 0.0008 0 
4489 4 0.0383546 -0.0603125 -0.00898003 0 0 0 -0.00828397 -0.000310547 0.00166134 -2.68157e-14 -2.53427e-07 1.35718e-06 0 0 0 0 0 0 0 0 0 0 0 0 0 0 0 0 53 0.0008 0 
15555 3 0.00221765 -0.0602649 -0.00923479 0 0 0 0.00178422 0.000113939 -0.000565822 -2.17239e-11 -1.76003e-07 1.37277e-06 0 0 0 0 0 0 0 0 0 0 0 0 0 0 0 0 1 0.0008 0 
15381 2 0.0043342 -0.0600624 -0.0103176 0 0 0 0.033573 0.00251459 -0.0134519 -1.98694e-18 -2.53692e-07 1.35713e-06 0 0 0 0 0 0 0 0 0 0 0 0 0 0 0 0 4 0.0008 0 
8467 4 0.00686076 -0.0601853 -0.00966038 0 0 0 0.0129278 -0.000342987 0.00224749 -2.49509e-07 -5.90344e-07 -1.36204e-06 0 0 0 1 0 0 0 0 0 0 0 0 0 0 0 0 43 0.0008 0 
15203 3 0.0200224 -0.0600644 -0.0103073 0 0 0 0.0596545 0.00146987 -0.00786309 1.35256e-18 -2.53692e-07 1.35713e-06 0 0 0 0 0 0 0 0 0 0 0 0 0 0 0 0 14 0.0008 0 
12749 3 0.0236712 -0.0602418 -0.00935839 0 0 0 0.0241016 -0.00676511 0.0361901 7.06928e-14 -2.53354e-07 1.3572e-06 0 0 0 0 0 0 0 0 0 0 0 0 0 0 0 0 10 0.0008 0 
2010 2 0.0270881 -0.0601924 -0.00962234 0 0 0 -0.0194799 -0.0369479 0.197653 3.06055e-19 -2.53692e-07 1.35713e-06 0 0 0 0 0 0 0 0 0 0 0 0 0 0 0 0 48 0.0008 0 
6537 6 0.0351981 -0.0601658 -0.00976497 0 0 0 -0.0198232 0.00369828 -0.019784 -1.3224e-15 -2.53695e-07 1.35713e-06 0 0 0 0 0 0 0 0 0 0 0 0 0 0 0 0 29 0.0008 0 
8211 15 0.0368389 -0.0601278 -0.00996791 0 0 0 -0.00940708 -0.00117072 0.00626275 6.76175e-15 -2.56284e-07 1.35662e-06 0 0 0 0 0 0 0 0 0 0 0 0 0 0 0 0 54 0.0008 0 
11974 2 0.0406932 -0.0601442 -0.00988034 0 0 0 -0.024566 0.00100227 -0.00536169 2.27234e-18 -2.53692e-07 1.35713e-06 0 0 0 0 0 0 0 0 0 0 0 0 0 0 0 0 17 0.0008 0 
7257 5 0.0423132 -0.0602578 -0.00927244 0 0 0 -0.0156989 -0.000138071 0.000738651 -1.27674e-13 -2.73783e-07 1.35321e-06 0 0 0 0 0 0 0 0 0 0 0 0 0 0 0 0 25 0.0008 0 
15188 4 0.0461485 -0.0602833 -0.00913589 0 0 0 -0.0102414 0.00226427 -0.0121128 1.38735e-18 -2.53692e-07 1.35713e-06 0 0 0 0 0 0 0 0 0 0 0 0 0 0 0 0 3 0.0008 0 
12757 3 0.000822279 -0.0604116 -0.00844992 0 0 0 -0.00211675 -0.000224131 0.00120227 4.97964e-13 -2.78234e-07 1.35238e-06 0 0 0 0 0 0 0 0 0 0 0 0 0 0 0 0 22 0.0008 0 
7654 8 0.00222535 -0.0605589 -0.00766186 0 0 0 0.00417603 0.000624426 -0.00160773 -5.83709e-06 -1.32337e-06 2.87086e-06 0 0 0 0 0 0 0 2 0 0 0 0 0 0 0 0 66 0.0008 0 
17336 10 0.00363455 -0.0604198 -0.00840627 0 0 0 0.00619065 -0.000249348 0.00103502 -1.09315e-06 3.52298e-06 -4.88564e-06 0 0 0 0 0 0 0 1 0 1 0 0 0 0 0 0 5 0.0008 0 
15828 4 0.00563835 -0.0605907 -0.00749177 0 0 0 0.0144558 -0.00102709 0.0054005 7.13748e-07 -2.26127e-07 -1.41097e-06 0 0 0 0 0 0 0 0 0 0 0 0 0 0 0 0 2 0.0008 0 
17589 11 0.00711091 -0.0604757 -0.00810704 0 0 0 0.0129499 -0.000532532 0.00205555 6.49426e-08 8.70419e-07 8.40006e-07 0 0 0 1 0 0 0 0 0 0 1 0 0 0 0 0 7 0.0008 0 
15785 4 0.00859109 -0.0603626 -0.00871169 0 0 0 0.0206804 -0.00495082 0.0264845 -1.51321e-18 -2.53692e-07 1.35713e-06 0 0 0 0 0 0 0 0 0 0 0 0 0 0 0 0 0 0.0008 0 
13527 2 0.015454 -0.060528 -0.00780014 0 0 0 0.0314168 -0.0091872 0.0308977 0 -1.05196e-05 0 0 0 0 0 0 0 0 0 0 0 0 0 0 0 0 0 7 0.0008 0 
17147 2 0.01876 -0.0604408 -0.00829363 0 0 0 0.0010593 0.000123471 -0.000633619 3.61246e-12 -2.19139e-07 1.36417e-06 0 0 0 0 0 0 0 0 0 0 0 0 0 0 0 0 1 0.0008 0 
15517 2 0.0205305 -0.060364 -0.00870422 0 0 0 0.0141018 -0.00134463 0.0071899 -1.98499e-12 -2.70128e-07 1.35388e-06 0 0 0 0 0 0 0 0 0 0 0 0 0 0 0 0 2 0.0008 0 
9574 2 0.0221561 -0.0605964 -0.00746128 0 0 0 0.000659189 2.46939e-05 0.000929116 -4.5376e-06 5.16203e-07 -7.66882e-07 0 2 0 0 0 0 0 0 0 1 0 0 0 0 0 0 35 0.0008 0 