ITEM: TIMESTEP
9150000
ITEM: NUMBER OF ATOMS
1123
ITEM: BOX BOUNDS ff ff ff
-0.01 0.45
-0.15 0.15
-0.08 0.1
ITEM: ATOMS id type x y z ix iy iz vx vy vz fx fy fz c_cc_1 c_cc_2 c_cc_3 c_cc_4 c_cc_5 c_cc_6 c_cc_7 c_cc_8 c_cc_9 c_cc_10 c_cc_11 c_cc_12 c_cc_13 c_cc_14 c_cc_15 c_cc_16 f_fppacc radius 
535 3 0.0129426 -0.0575855 -0.0046309 0 0 0 1.07319 -1.15397 3.14815 0 -0.000164368 0 0 0 0 0 0 0 0 0 0 0 0 0 0 0 0 0 26 0.002 
525 1 0.0029993 -0.0559041 0.0140826 0 0 0 0.000215719 2.99368 12.3695 0.000279896 -0.000197197 -0.000136043 0 0 0 0 0 0 0 0 0 0 0 0 0 0 0 0 19 0.002 
111 3 0.00341367 -0.0112163 0.0553409 0 0 0 1.09029 4.71808 1.91408 0 -0.000164368 0 0 0 0 0 0 0 0 0 0 0 0 0 0 0 0 0 42 0.002 
686 5 0.00320786 -0.00191419 0.0577603 0 0 0 0.159661 -7.02474 0.12057 0 -0.000164368 0 0 0 0 0 0 0 0 0 0 0 0 0 0 0 0 0 26 0.002 
116 1 0.0156549 0.0336386 -0.0307445 0 0 0 1.15721 -1.05183 -0.0088941 0 -0.000164368 0 0 0 0 0 0 0 0 0 0 0 0 0 0 0 0 0 23 0.002 
878 12 0.016614 0.0304877 -0.0396903 0 0 0 -4.22284 2.88385 -27.7647 0 -0.000164368 0 0 0 0 0 0 0 0 0 0 0 0 0 0 0 0 0 10 0.002 
803 4 0.0107107 0.0242188 -0.0259431 0 0 0 0.202688 -6.05394 -24.3775 0 -0.000164368 0 0 0 0 0 0 0 0 0 0 0 0 0 0 0 0 0 18 0.002 
888 1 0.0055602 0.0355296 -0.00902356 0 0 0 1.04679 -5.41959 2.37482 0 -0.000164368 0 0 0 0 0 0 0 0 0 0 0 0 0 0 0 0 0 17 0.002 
1139 5 0.00942175 0.0166085 0.0554049 0 0 0 1.07853 -2.09774 -0.871111 0.0371564 0.0293641 -0.195322 0 0 0 0 0 0 0 0 0 0 0 0 0 0 0 0 0 0.002 
41 1 0.0151253 0.0528571 -0.0355 0 0 0 -2.22522e-308 -6.16607e-20 -4.88148e-15 3.69501e-308 0 0 0 0 0 0 0 0 0 0 0 0 0 0 0 0 0 0 1 0.002 
653 9 0.00734585 0.0635684 0.00621256 0 0 0 -2.09549 0.95283 -2.05668 0 -0.000164368 0 0 0 0 0 0 0 0 0 0 0 0 0 0 0 0 0 17 0.002 
321 7 0.0139569 0.0660646 -0.0123603 0 0 0 1.13068 13.7487 -10.661 0 -0.000164368 0 0 0 0 0 0 0 0 0 0 0 0 0 0 0 0 0 19 0.002 
1131 5 0.0121343 0.0749672 0.00248378 0 0 0 -0.815961 0.395704 -2.09859 0 -0.000164368 0 0 0 0 0 0 0 0 0 0 0 0 0 0 0 0 0 0 0.002 
1143 7 0.0175266 0.0483221 0.00645922 0 0 0 2 -1.04905 -0.0001 0 -0.000164368 0 0 0 0 0 0 0 0 0 0 0 0 0 0 0 0 0 0 0.002 
407 4 0.0176486 0.0744458 0.0147707 0 0 0 -0.793293 -0.550164 -0.233977 0 -0.000164368 0 0 0 0 0 0 0 0 0 0 0 0 0 0 0 0 0 26 0.002 
550 10 0.00599975 0.063171 0.0168639 0 0 0 0.901308 -0.827224 -0.528526 0 -0.000164368 0 0 0 0 0 0 0 0 0 0 0 0 0 0 0 0 0 25 0.002 
720 4 0.00352554 0.0747994 0.0176363 0 0 0 0.323406 0.125637 -0.561026 0 -0.000164368 0 0 0 0 0 0 0 0 0 0 0 0 0 0 0 0 0 13 0.002 
742 3 0.00549267 0.0710639 0.0207604 0 0 0 -0.00322998 -0.165502 -0.207379 0 -0.000164368 0 0 0 0 0 0 0 0 0 0 0 0 0 0 0 0 0 17 0.002 
242 6 0.0030857 0.060216 0.0216119 0 0 0 -0.2249 -0.651878 -0.237199 0 -0.000164368 0 0 0 0 0 0 0 0 0 0 0 0 0 0 0 0 0 32 0.002 
420 3 0.00800987 0.0631831 0.0214562 0 0 0 0.388826 -0.872648 0.0443425 0 -0.000164368 0 0 0 0 0 0 0 0 0 0 0 0 0 0 0 0 0 37 0.002 
1039 3 0.00300003 0.0692156 0.0232912 0 0 0 0.0388266 -0.148554 -0.041392 0 -0.000164368 0 0 0 0 0 0 0 0 0 0 0 0 0 0 0 0 0 4 0.002 
762 6 0.00743526 0.0745912 0.0218764 0 0 0 0.0139246 -0.563533 0.0198759 0 -0.000164368 0 0 0 0 0 0 0 0 0 0 0 0 0 0 0 0 0 30 0.002 
626 1 0.00363779 0.0459055 0.0261497 0 0 0 1.65426 -7.61431 2.06005 0 -0.000164368 0 0 0 0 0 0 0 0 0 0 0 0 0 0 0 0 0 24 0.002 
18 3 0.00644691 0.0630801 0.0255171 0 0 0 0.260613 0.0906498 0.119609 0 -0.000164368 0 0 0 0 0 0 0 0 0 0 0 0 0 0 0 0 0 27 0.002 
521 6 0.00641066 0.0674042 0.0250485 0 0 0 0.0328925 -0.407803 0.0112898 0 -0.000164368 0 0 0 0 0 0 0 0 0 0 0 0 0 0 0 0 0 16 0.002 
831 4 0.0145307 0.0696547 0.02491 0 0 0 -0.00828482 -0.326365 0.0487031 0 -0.000164368 0 0 0 0 0 0 0 0 0 0 0 0 0 0 0 0 0 7 0.002 
753 6 0.0185543 0.0692516 0.0235119 0 0 0 -0.0273408 -0.348262 -0.244725 0 -0.000164368 0 0 0 0 0 0 0 0 0 0 0 0 0 0 0 0 0 37 0.002 
631 1 0.00414762 0.072916 0.024335 0 0 0 -0.253413 -0.246363 0.147055 0 -0.000164368 0 0 0 0 0 0 0 0 0 0 0 0 0 0 0 0 0 31 0.002 
473 3 0.0107311 0.0737016 0.0253977 0 0 0 -0.184639 -0.642254 0.0982539 -0.000914985 0.00120553 -0.000848284 0 0 1 0 0 0 0 0 0 0 0 0 0 0 0 0 22 0.002 
807 5 0.0150807 0.0736698 0.0245744 0 0 0 -0.318483 -0.281004 -0.0184547 0 -0.000164368 0 0 0 0 0 0 0 0 0 0 0 0 0 0 0 0 0 23 0.002 
1033 2 0.00331751 0.0576045 0.0260382 0 0 0 0.390401 0.718888 0.354521 0 -0.000164368 0 0 0 0 0 0 0 0 0 0 0 0 0 0 0 0 0 11 0.002 
929 3 0.00685182 0.0594528 0.027614 0 0 0 0.972034 0.0509191 0.894879 0 -0.000164368 0 0 0 0 0 0 0 0 0 0 0 0 0 0 0 0 0 23 0.002 
254 10 0.0145813 0.060617 0.0276034 0 0 0 -0.320462 -0.604668 -0.133174 0 -0.000164368 0 0 0 0 0 0 0 0 0 0 0 0 0 0 0 0 0 37 0.002 
748 7 0.0030076 0.0654689 0.026054 0 0 0 -0.109289 -0.286435 0.1219 0 -0.000164368 0 0 0 0 0 0 0 0 0 0 0 0 0 0 0 0 0 23 0.002 
597 6 0.0115733 0.0642386 0.0261451 0 0 0 0.601762 -0.568945 0.541637 0 -0.000164368 0 0 0 0 0 0 0 0 0 0 0 0 0 0 0 0 0 37 0.002 
681 6 0.00742263 0.0715696 0.0263555 0 0 0 -0.195353 -0.489273 0.0231172 0 -0.000164368 0 0 0 0 0 0 0 0 0 0 0 0 0 0 0 0 0 33 0.002 
640 1 0.010663 0.0579186 0.0285752 0 0 0 -0.11111 -0.529526 -0.0221977 0 -0.000164368 0 0 0 0 0 0 0 0 0 0 0 0 0 0 0 0 0 16 0.002 
898 1 0.00490183 0.0643857 0.0296788 0 0 0 -0.066913 -0.35034 -0.00261586 0 -0.000164368 0 0 0 0 0 0 0 0 0 0 0 0 0 0 0 0 0 14 0.002 
783 3 0.00932808 0.066048 0.0291797 0 0 0 -0.0210201 -0.34875 0.339088 0 -0.000164368 0 0 0 0 0 0 0 0 0 0 0 0 0 0 0 0 0 32 0.002 
469 3 0.0137462 0.0655526 0.0292763 0 0 0 -0.0278 -0.514999 -0.105854 0 -0.000164368 0 0 0 0 0 0 0 0 0 0 0 0 0 0 0 0 0 26 0.002 
533 4 0.018032 0.0675332 0.0279839 0 0 0 -0.240565 -0.528897 -0.197554 0 -0.000164368 0 0 0 0 0 0 0 0 0 0 0 0 0 0 0 0 0 43 0.002 
813 6 0.0032531 0.0684116 0.0288416 0 0 0 0.0541126 -0.520502 0.130706 0 -0.000164368 0 0 0 0 0 0 0 0 0 0 0 0 0 0 0 0 0 18 0.002 
1064 5 0.0146389 0.0700176 0.0292478 0 0 0 -0.236063 -0.401127 0.248148 0 -0.000164368 0 0 0 0 0 0 0 0 0 0 0 0 0 0 0 0 0 6 0.002 
460 2 0.00303564 0.0724319 0.0296161 0 0 0 0.0534648 -0.274955 0.0250857 0 -0.000164368 0 0 0 0 0 0 0 0 0 0 0 0 0 0 0 0 0 32 0.002 
414 7 0.0113663 0.0724536 0.0294729 0 0 0 -0.137691 -0.158295 0.00857115 0.00483157 -0.0141608 0.00240343 0 0 0 0 0 0 1 0 0 0 0 0 0 0 0 0 33 0.002 
2 6 0.0184741 0.0714514 0.0293256 0 0 0 -0.140538 -0.524116 -0.0381562 0 -0.000164368 0 0 0 0 0 0 0 0 0 0 0 0 0 0 0 0 0 28 0.002 
139 6 0.0151779 0.0740469 0.0295981 0 0 0 -0.0177469 -0.340829 -0.0217126 0 -0.000164368 0 0 0 0 0 0 0 0 0 0 0 0 0 0 0 0 0 45 0.002 
562 3 0.00314626 0.0448594 0.0310026 0 0 0 0.0164558 -0.601942 -0.0477478 0 -0.000164368 0 0 0 0 0 0 0 0 0 0 0 0 0 0 0 0 0 23 0.002 
901 9 0.0107405 0.0507164 0.0304477 0 0 0 -0.310547 -0.861919 -0.231305 0 -0.000164368 0 0 0 0 0 0 0 0 0 0 0 0 0 0 0 0 0 22 0.002 
777 3 0.00580881 0.0519113 0.0309051 0 0 0 -0.607104 -0.71751 0.0648992 0 -0.000164368 0 0 0 0 0 0 0 0 0 0 0 0 0 0 0 0 0 14 0.002 
716 5 0.00320025 0.0581482 0.0303853 0 0 0 -0.0162676 -0.127332 -0.270144 0 -0.000164368 0 0 0 0 0 0 0 0 0 0 0 0 0 0 0 0 0 14 0.002 
647 3 0.0132845 0.0580846 0.0324583 0 0 0 -0.135116 -0.545865 0.144172 0 -0.000164368 0 0 0 0 0 0 0 0 0 0 0 0 0 0 0 0 0 24 0.002 
488 6 0.0155302 0.0622439 0.0322768 0 0 0 0.0549797 -0.610564 -0.0487045 0 -0.000164368 0 0 0 0 0 0 0 0 0 0 0 0 0 0 0 0 0 32 0.002 
156 4 0.00652694 0.0710944 0.0311567 0 0 0 -0.00748602 -0.360551 -0.0386276 0 -0.000164368 0 0 0 0 0 0 0 0 0 0 0 0 0 0 0 0 0 29 0.002 
483 1 0.00411999 0.0482498 0.0329224 0 0 0 -0.0591203 -0.867008 -0.04993 0 -0.000164368 0 0 0 0 0 0 0 0 0 0 0 0 0 0 0 0 0 23 0.002 
923 10 0.00878935 0.0562578 0.0325694 0 0 0 -0.236188 -0.531635 0.0274866 0 -0.000164368 0 0 0 0 0 0 0 0 0 0 0 0 0 0 0 0 0 12 0.002 
189 5 0.00642232 0.0596652 0.0326854 0 0 0 -0.0457623 -0.342705 0.0454921 0 -0.000164368 0 0 0 0 0 0 0 0 0 0 0 0 0 0 0 0 0 26 0.002 
449 4 0.0031091 0.0621267 0.032726 0 0 0 -0.0224329 -0.281865 -0.00654751 0 -0.000164368 0 0 0 0 0 0 0 0 0 0 0 0 0 0 0 0 0 21 0.002 
144 9 0.0111377 0.0615873 0.0326206 0 0 0 -0.0789859 -0.465945 0.0523625 0 -0.000164368 0 0 0 0 0 0 0 0 0 0 0 0 0 0 0 0 0 42 0.002 
380 3 0.00763487 0.0634879 0.0329972 0 0 0 -0.00483339 -0.359741 -0.00308238 0 -0.000164368 0 0 0 0 0 0 0 0 0 0 0 0 0 0 0 0 0 17 0.002 
902 3 0.0030189 0.0662388 0.0328111 0 0 0 -0.0262507 -0.241241 0.020195 0.000174122 -0.000226385 6.9657e-05 0 0 1 0 0 0 0 0 0 0 0 0 0 0 0 0 11 0.002 
301 5 0.00684261 0.0673972 0.032653 0 0 0 0.0245952 -0.354453 -0.0372075 -0.000174122 -0.000102351 -6.9657e-05 0 0 1 0 0 0 0 0 0 0 0 0 0 0 0 0 36 0.002 
860 11 0.0108359 0.0670504 0.0329278 0 0 0 0.0134709 -0.484464 -0.0148545 0 -0.000164368 0 0 0 0 0 0 0 0 0 0 0 0 0 0 0 0 0 20 0.002 
705 14 0.0178526 0.0671985 0.0329199 0 0 0 -0.235967 -0.307502 -0.0240332 0 -0.000164368 0 0 0 0 0 0 0 0 0 0 0 0 0 0 0 0 0 25 0.002 
452 8 0.0030128 0.0702375 0.0329612 0 0 0 -0.0138191 -0.276467 0.116081 0 -0.000164368 0 0 0 0 0 0 0 0 0 0 0 0 0 0 0 0 0 30 0.002 
1004 3 0.0131657 0.0703115 0.0329925 0 0 0 -0.148076 -0.35546 -0.0143373 0 -0.000164368 0 0 0 0 0 0 0 0 0 0 0 0 0 0 0 0 0 13 0.002 
207 2 0.016783 0.072025 0.0329975 0 0 0 -0.267601 -0.143759 0.016107 -0.00302992 0.00149547 0.000899382 0 1 0 0 0 0 0 0 0 0 0 0 0 0 0 0 30 0.002 
360 2 0.00355908 0.0745894 0.032956 0 0 0 0.0374501 -0.236495 -0.0290545 0 -0.000164368 0 0 0 0 0 0 0 0 0 0 0 0 0 0 0 0 0 15 0.002 
1000 4 0.00944019 0.0731298 0.0330001 0 0 0 -0.121986 -0.217483 -0.0125047 -0.00154027 -0.000652242 4.07287e-05 0 0 0 1 0 0 0 0 0 0 0 0 0 0 0 0 8 0.002 
638 6 0.0130695 0.0747991 0.0330013 0 0 0 -0.0775211 -0.293606 0.02375 -0.000778532 0.00013195 -0.000577861 0 0 0 1 0 1 0 0 0 0 0 0 0 0 0 0 22 0.002 
709 1 0.00682047 0.0749822 0.0301431 0 0 0 0.00660001 -0.285479 0.0708583 0 -0.000164368 0 0 0 0 0 0 0 0 0 0 0 0 0 0 0 0 0 23 0.002 
417 1 0.0105001 0.0717318 0.010073 0 0 0 0.728796 -0.619161 4.54407 0 -0.000164368 0 0 0 0 0 0 0 0 0 0 0 0 0 0 0 0 0 44 0.002 
704 9 0.00365382 0.107099 -0.0329048 0 0 0 0.12113 -0.185304 -0.146929 0 -0.000164368 0 0 0 0 0 0 0 0 0 0 0 0 0 0 0 0 0 20 0.002 
314 6 0.00714896 0.081372 -0.0311561 0 0 0 0.517202 1.08435 0.237663 0 -0.000164368 0 0 0 0 0 0 0 0 0 0 0 0 0 0 0 0 0 17 0.002 
786 1 0.0119085 0.107006 -0.0309974 0 0 0 -0.712425 -0.589388 0.389501 0 -0.000164368 0 0 0 0 0 0 0 0 0 0 0 0 0 0 0 0 0 28 0.002 
634 2 0.0179621 0.107738 -0.0324069 0 0 0 1.09059 0.0197765 -3.55718 0 -0.000164368 0 0 0 0 0 0 0 0 0 0 0 0 0 0 0 0 0 21 0.002 
1119 4 0.00436459 0.104015 -0.0287486 0 0 0 -0.274375 -0.606691 -0.0433558 0 -0.000164368 0 0 0 0 0 0 0 0 0 0 0 0 0 0 0 0 0 0 0.002 
65 2 0.00745603 0.107577 -0.0300618 0 0 0 -3.78884 -0.336119 -3.19666 0 -0.000164368 0 0 0 0 0 0 0 0 0 0 0 0 0 0 0 0 0 18 0.002 
1107 3 0.00302684 0.103404 -0.024838 0 0 0 -0.302144 -0.250354 0.102556 0 -0.000164368 0 0 0 0 0 0 0 0 0 0 0 0 0 0 0 0 0 0 0.002 
764 4 0.00519874 0.107867 -0.0265599 0 0 0 -0.950851 -0.0897807 0.335558 0 -0.000164368 0 0 0 0 0 0 0 0 0 0 0 0 0 0 0 0 0 31 0.002 
69 6 0.0107226 0.107992 -0.0269158 0 0 0 -3.17959 -0.165282 0.117425 0 -0.000164368 0 0 0 0 0 0 0 0 0 0 0 0 0 0 0 0 0 25 0.002 
1023 1 0.0143164 0.0894887 -0.0200446 0 0 0 -7.20558 -1.27788 5.41069 0 -0.000164368 0 0 0 0 0 0 0 0 0 0 0 0 0 0 0 0 0 8 0.002 
309 1 0.00695645 0.10104 -0.0246396 0 0 0 -1.867 1.69461 -2.43661 0 -0.000164368 0 0 0 0 0 0 0 0 0 0 0 0 0 0 0 0 0 44 0.002 
434 14 0.00320603 0.10735 -0.0226399 0 0 0 0.412006 -0.731064 -0.0765483 0 -0.000164368 0 0 0 0 0 0 0 0 0 0 0 0 0 0 0 0 0 37 0.002 
286 14 0.0169444 0.107241 -0.0238343 0 0 0 -1.12602 -0.483532 -2.34271 0 -0.000164368 0 0 0 0 0 0 0 0 0 0 0 0 0 0 0 0 0 40 0.002 
741 5 0.012521 0.0785477 -0.0208785 0 0 0 1.02431 -1.50197 1.36665 0 -0.000164368 0 0 0 0 0 0 0 0 0 0 0 0 0 0 0 0 0 17 0.002 
722 3 0.00476479 0.0942221 -0.0215892 0 0 0 1.39061 -4.39257 0.208997 0 -0.000164368 0 0 0 0 0 0 0 0 0 0 0 0 0 0 0 0 0 12 0.002 
1028 1 0.0143947 0.0985351 -0.0199544 0 0 0 -6.84412 -6.82759 0.606897 0 -0.000164368 0 0 0 0 0 0 0 0 0 0 0 0 0 0 0 0 0 0 0.002 
182 2 0.00479531 0.103868 -0.0201207 0 0 0 -1.39633 -1.17058 2.42102 0 -0.000164368 0 0 0 0 0 0 0 0 0 0 0 0 0 0 0 0 0 31 0.002 
756 2 0.0148841 0.10366 -0.0202018 0 0 0 0.18487 -2.30504 0.768719 0 -0.000164368 0 0 0 0 0 0 0 0 0 0 0 0 0 0 0 0 0 21 0.002 
527 8 0.015299 0.0911157 -0.0152613 0 0 0 -3.28171 1.32482 8.82064 0 -0.000164368 0 0 0 0 0 0 0 0 0 0 0 0 0 0 0 0 0 25 0.002 
937 4 0.00537656 0.107407 -0.0181654 0 0 0 0.823532 -0.208813 0.350814 0 -0.000164368 0 0 0 0 0 0 0 0 0 0 0 0 0 0 0 0 0 17 0.002 
906 5 0.0118016 0.106688 -0.0196496 0 0 0 0.561773 -0.417458 0.0363542 0 -0.000164368 0 0 0 0 0 0 0 0 0 0 0 0 0 0 0 0 0 19 0.002 
385 7 0.00332611 0.0933497 -0.0161271 0 0 0 0.0232047 -0.264364 0.0394559 0 -0.000164368 0 0 0 0 0 0 0 0 0 0 0 0 0 0 0 0 0 27 0.002 
430 4 0.0102368 0.0941855 -0.0166103 0 0 0 0.540744 -0.447911 -0.378815 0 -0.000164368 0 0 0 0 0 0 0 0 0 0 0 0 0 0 0 0 0 36 0.002 
402 1 0.00633783 0.103361 -0.0162204 0 0 0 0.0121503 -0.505275 0.15812 0 -0.000164368 0 0 0 0 0 0 0 0 0 0 0 0 0 0 0 0 0 30 0.002 
511 2 0.0125756 0.107045 -0.0144894 0 0 0 0.656199 -0.215572 0.716193 0 -0.000164368 0 0 0 0 0 0 0 0 0 0 0 0 0 0 0 0 0 22 0.002 
1129 5 0.0032657 0.100917 -0.0116609 0 0 0 0.186311 -0.961661 0.774024 0 -0.000164368 0 0 0 0 0 0 0 0 0 0 0 0 0 0 0 0 0 1 0.002 
1114 1 0.00560518 0.105298 -0.0121598 0 0 0 -0.667917 -0.296078 0.19788 0 -0.000164368 0 0 0 0 0 0 0 0 0 0 0 0 0 0 0 0 0 1 0.002 
1135 5 0.00884389 0.105449 -0.00834603 0 0 0 -0.42922 1.32568 2.13799 0 -0.000164368 0 0 0 0 0 0 0 0 0 0 0 0 0 0 0 0 0 1 0.002 
288 1 0.00320573 0.107864 -0.00916801 0 0 0 0.080186 -0.067785 0.748072 0 -0.000164368 0 0 0 0 0 0 0 0 0 0 0 0 0 0 0 0 0 24 0.002 
825 1 0.00354974 0.100019 -0.00765677 0 0 0 0.117675 -0.878929 0.927323 0 -0.000164368 0 0 0 0 0 0 0 0 0 0 0 0 0 0 0 0 0 19 0.002 
570 1 0.00359831 0.103697 -0.00597765 0 0 0 0.2159 -0.683933 0.666862 0 -0.000164368 0 0 0 0 0 0 0 0 0 0 0 0 0 0 0 0 0 32 0.002 
496 2 0.0167607 0.105271 -0.00620586 0 0 0 -0.59801 -0.592749 -0.0296441 0 -0.000164368 0 0 0 0 0 0 0 0 0 0 0 0 0 0 0 0 0 23 0.002 
695 2 0.0055666 0.0918819 -0.0054713 0 0 0 -0.348537 0.0102451 -0.00798129 0.0141955 -0.00682607 -0.0303317 0 1 0 0 0 0 0 0 0 0 0 0 0 0 0 0 18 0.002 
572 3 0.00767238 0.101243 -0.00465548 0 0 0 0.256009 -0.566947 2.48028 0 -0.000164368 0 0 0 0 0 0 0 0 0 0 0 0 0 0 0 0 0 19 0.002 
972 3 0.00375223 0.0942363 -0.00284137 0 0 0 -0.0225949 -1.15468 1.26104 -0.0141955 0.00649734 0.0303317 0 1 0 0 0 0 0 0 0 0 0 0 0 0 0 0 10 0.002 
554 3 0.00299363 0.100349 -0.0031782 0 0 0 0.044878 -0.423034 1.03845 0.00388008 0.000538789 -0.00180813 0 0 0 0 0 0 0 0 0 0 0 0 0 0 0 0 8 0.002 
1077 1 0.00387088 0.106531 -0.00307832 0 0 0 0.304947 -0.274273 0.408277 0 -0.000164368 0 0 0 0 0 0 0 0 0 0 0 0 0 0 0 0 0 4 0.002 
118 2 0.00805315 0.106243 -0.00198582 0 0 0 0.286037 -0.731902 0.928318 0 -0.000164368 0 0 0 0 0 0 0 0 0 0 0 0 0 0 0 0 0 28 0.002 
601 8 0.0184539 0.0840249 -0.000478047 0 0 0 -0.448427 -0.324816 0.166072 0 -0.000164368 0 0 0 0 0 0 0 0 0 0 0 0 0 0 0 0 0 32 0.002 
543 1 0.0118482 0.091926 -0.000392059 0 0 0 -0.883628 -3.70636 1.82423 0 -0.000164368 0 0 0 0 0 0 0 0 0 0 0 0 0 0 0 0 0 27 0.002 
712 2 0.0116824 0.0984372 0.000967812 0 0 0 1.7492 -1.88459 1.67055 0 -0.000164368 0 0 0 0 0 0 0 0 0 0 0 0 0 0 0 0 0 20 0.002 
183 9 0.00298486 0.102939 0.000115387 0 0 0 -0.267821 -0.227627 0.780299 0.037732 -0.00967599 -0.0504558 0 0 0 0 0 0 0 0 0 0 0 0 0 0 0 0 23 0.002 
589 5 0.0146316 0.103623 0.000868021 0 0 0 0.969449 -0.69646 0.199333 0 -0.000164368 0 0 0 0 0 0 0 0 0 0 0 0 0 0 0 0 0 26 0.002 
505 2 0.00299666 0.107922 0.000639143 0 0 0 0.00110049 -0.0778673 0.351966 0.00293322 -2.87723e-05 -0.00146033 0 0 0 0 0 0 0 0 0 0 0 0 0 0 0 0 31 0.002 
1024 5 0.0159739 0.108017 0.00120782 0 0 0 -0.230154 -0.137695 2.04503 0.0114599 -0.0183215 -0.0091475 0 0 0 0 1 0 0 0 0 0 0 0 0 0 0 0 1 0.002 
437 8 0.0178491 0.0933592 0.00344577 0 0 0 0.727323 -0.827142 1.39277 0 -0.000164368 0 0 0 0 0 0 0 0 0 0 0 0 0 0 0 0 0 30 0.002 
984 3 0.0142324 0.0954616 0.00303443 0 0 0 0.129258 -0.454316 1.11907 0 -0.000164368 0 0 0 0 0 0 0 0 0 0 0 0 0 0 0 0 0 14 0.002 
55 4 0.00613582 0.0981684 0.00276448 0 0 0 -0.0636013 -1.03919 1.12525 0.00314347 -0.000904314 -0.000846752 0 0 0 1 0 0 0 0 0 0 0 0 0 0 0 0 18 0.002 
699 9 0.00546344 0.10507 0.0023608 0 0 0 -0.157823 -0.522299 0.89956 0.020734 0.0104657 0.013966 0 0 0 0 0 0 0 0 1 0 0 0 0 0 0 0 14 0.002 
657 3 0.0112167 0.107891 0.00181734 0 0 0 0.611128 -0.133522 1.12073 -0.000201283 -0.000207346 4.23979e-05 0 0 1 0 0 0 0 0 0 0 0 0 0 0 0 0 16 0.002 
230 6 0.00328153 0.100613 0.00411734 0 0 0 0.342504 -0.167939 0.371775 -0.00477912 0.0024209 -0.00360245 0 0 0 1 0 0 0 0 0 0 0 0 0 0 0 0 39 0.002 
693 8 0.0105914 0.101767 0.0052022 0 0 0 0.316659 -0.318895 0.957523 0 -0.000164368 0 0 0 0 0 0 0 0 0 0 0 0 0 0 0 0 0 19 0.002 
287 6 0.0153911 0.101425 0.00419176 0 0 0 0.856553 -0.643668 2.19296 0 -0.000164368 0 0 0 0 0 0 0 0 0 0 0 0 0 0 0 0 0 21 0.002 
1071 3 0.00393624 0.108005 0.00458144 0 0 0 0.0713423 -0.0657086 0.43933 0.000946865 0.00950634 0.00854895 0 0 0 0 0 0 0 0 1 0 0 0 0 0 0 0 1 0.002 
1011 6 0.00797333 0.107899 0.00415745 0 0 0 0.142138 0.00681306 0.491672 0.000263918 -0.000141741 0.000329741 0 0 1 0 0 1 0 0 0 0 0 0 0 0 0 0 10 0.002 
904 3 0.00591488 0.0787093 0.00681229 0 0 0 0.0262474 0.467759 -0.919191 0 -0.000164368 0 0 0 0 0 0 0 0 0 0 0 0 0 0 0 0 0 8 0.002 
700 2 0.00972178 0.0802443 0.00552983 0 0 0 -0.262323 1.15089 -1.66697 0 -0.000164368 0 0 0 0 0 0 0 0 0 0 0 0 0 0 0 0 0 15 0.002 
252 6 0.0106596 0.0959232 0.0062076 0 0 0 0.163376 -0.936711 1.04783 0 -0.000164368 0 0 0 0 0 0 0 0 0 0 0 0 0 0 0 0 0 17 0.002 
789 5 0.0165898 0.0960727 0.00776164 0 0 0 0.0195082 -0.431797 0.684614 0 -0.000164368 0 0 0 0 0 0 0 0 0 0 0 0 0 0 0 0 0 22 0.002 
245 1 0.00694264 0.100614 0.00762368 0 0 0 0.110159 -0.182873 0.730458 0 -0.000164368 0 0 0 0 0 0 0 0 0 0 0 0 0 0 0 0 0 27 0.002 
206 6 0.00314299 0.104205 0.00600239 0 0 0 -0.00698512 0.0310445 0.281481 0 -0.000164368 0 0 0 0 0 0 0 0 0 0 0 0 0 0 0 0 0 31 0.002 
54 6 0.0113186 0.106637 0.00788301 0 0 0 0.0523795 -0.167074 0.404751 0 -0.000164368 0 0 0 0 0 0 0 0 0 0 0 0 0 0 0 0 0 33 0.002 
766 7 0.0175392 0.107981 0.00551092 0 0 0 -0.0368171 -0.0847069 0.0697292 0 -0.000164368 0 0 0 0 0 0 0 0 0 0 0 0 0 0 0 0 0 22 0.002 
353 6 0.00371926 0.0769525 0.00968923 0 0 0 0.761375 0.157723 -0.0632001 0 -0.000164368 0 0 0 0 0 0 0 0 0 0 0 0 0 0 0 0 0 14 0.002 
963 3 0.0182479 0.0907628 0.00850607 0 0 0 0.291736 -0.58747 1.24333 0 -0.000164368 0 0 0 0 0 0 0 0 0 0 0 0 0 0 0 0 0 13 0.002 
9 6 0.00302039 0.0995558 0.00795055 0 0 0 -0.0915533 -0.432039 0.394314 0.00163565 -0.00200969 0.0044492 0 0 0 0 0 0 0 0 0 0 0 0 0 0 0 0 36 0.002 
375 4 0.0120691 0.099691 0.00837479 0 0 0 -0.371213 0.445471 0.253328 0 -0.000164368 0 0 0 0 0 0 0 0 0 0 0 0 0 0 0 0 0 25 0.002 
397 3 0.0163134 0.100049 0.00937661 0 0 0 -0.034073 -0.524867 0.400794 0 -0.000164368 0 0 0 0 0 0 0 0 0 0 0 0 0 0 0 0 0 37 0.002 
769 5 0.008504 0.104089 0.0091956 0 0 0 0.0697373 -0.0654351 0.373969 0 -0.000164368 0 0 0 0 0 0 0 0 0 0 0 0 0 0 0 0 0 16 0.002 
798 4 0.018671 0.105197 0.00919766 0 0 0 -0.0607342 -0.208285 0.330124 0 -0.000164368 0 0 0 0 0 0 0 0 0 0 0 0 0 0 0 0 0 15 0.002 
250 5 0.00743728 0.107805 0.00811427 0 0 0 0.109643 0.0890396 0.567287 -0.00163453 8.60688e-07 -0.00298249 0 0 0 0 1 1 0 0 0 0 0 0 0 0 0 0 33 0.002 
669 1 0.00339365 0.107875 0.00854424 0 0 0 0.132827 0.0907998 0.447568 0.000672135 -4.27004e-05 -0.010529 1 0 0 0 0 0 0 0 0 0 0 0 0 0 0 0 34 0.002 
16 3 0.0120635 0.0773125 0.00934506 0 0 0 0.711471 1.11039 -2.49992 0 -0.000164368 0 0 0 0 0 0 0 0 0 0 0 0 0 0 0 0 0 38 0.002 
213 4 0.0179742 0.0867662 -0.0233593 0 0 0 -3.82549 -7.53145 3.78986 0 -0.000164368 0 0 0 0 0 0 0 0 0 0 0 0 0 0 0 0 0 28 0.002 
989 4 0.0132863 0.106728 0.0329957 0 0 0 -0.0262308 0.0430552 0.0104053 0 -0.000164368 0 0 0 0 0 0 0 0 0 0 0 0 0 0 0 0 0 1 0.002 
778 4 0.0168123 0.0763018 0.0104627 0 0 0 -2.13407 -0.0601612 -0.186131 0 -0.000164368 0 0 0 0 0 0 0 0 0 0 0 0 0 0 0 0 0 17 0.002 
211 2 0.0113693 0.0972297 0.0116495 0 0 0 -0.226423 0.413077 0.372482 0 -0.000164368 0 0 0 0 0 0 0 0 0 0 0 0 0 0 0 0 0 17 0.002 
175 5 0.0132519 0.100719 0.0124952 0 0 0 0.0798899 -0.0385941 0.578684 0 -0.000164368 0 0 0 0 0 0 0 0 0 0 0 0 0 0 0 0 0 13 0.002 
624 7 0.0091595 0.100839 0.0117566 0 0 0 0.0100341 -0.233036 0.264527 0 -0.000164368 0 0 0 0 0 0 0 0 0 0 0 0 0 0 0 0 0 20 0.002 
1036 6 0.00463047 0.10442 0.0102398 0 0 0 -0.0799272 -0.0613809 0.331434 0.000900966 0.000780191 -0.00134057 0 0 0 0 0 1 0 0 0 0 0 0 0 0 0 0 15 0.002 
654 3 0.0140534 0.104629 0.0109965 0 0 0 0.145262 0.17061 0.617048 0 -0.000164368 0 0 0 0 0 0 0 0 0 0 0 0 0 0 0 0 0 31 0.002 
1113 4 0.00776076 0.106982 0.0120066 0 0 0 -0.150141 -0.0109936 0.609456 -0.00124991 -0.000152147 0.0013614 0 0 0 2 0 0 0 0 0 0 0 0 0 0 0 0 2 0.002 
130 1 0.011648 0.107888 0.0121785 0 0 0 -0.148287 -0.0719353 0.277742 0.00108615 -0.000733865 0.00138498 1 0 0 1 0 0 0 0 0 0 0 0 0 0 0 0 25 0.002 
403 8 0.0137193 0.0803648 0.0118898 0 0 0 0.187605 1.51065 -0.862538 0 -0.000164368 0 0 0 0 0 0 0 0 0 0 0 0 0 0 0 0 0 27 0.002 
381 2 0.0183181 0.0832443 0.0135973 0 0 0 -0.601923 0.68125 -0.12379 0 -0.000164368 0 0 0 0 0 0 0 0 0 0 0 0 0 0 0 0 0 31 0.002 
214 8 0.00328956 0.0867615 0.0134744 0 0 0 0.62551 -0.180109 0.979059 0 -0.000164368 0 0 0 0 0 0 0 0 0 0 0 0 0 0 0 0 0 4 0.002 
781 2 0.00699727 0.0951388 0.0146861 0 0 0 -0.0663066 -0.0659403 0.361809 0.0156058 -0.0148141 -0.0304372 0 2 0 0 0 0 0 0 0 0 0 0 0 0 0 0 26 0.002 
364 3 0.0174995 0.0952447 0.0136691 0 0 0 -0.0325328 -0.281383 0.0883936 0 -0.000164368 0 0 0 0 0 0 0 0 0 0 0 0 0 0 0 0 0 25 0.002 
368 5 0.00343743 0.0965832 0.0122252 0 0 0 -0.0278196 0.200153 -0.222317 0 -0.000164368 0 0 0 0 0 0 0 0 0 0 0 0 0 0 0 0 0 28 0.002 
830 7 0.00435942 0.101603 0.0130649 0 0 0 0.0249852 -0.0766722 0.241678 0.000991691 2.03376e-05 -0.00146123 0 0 0 0 0 1 1 0 0 0 0 0 0 0 0 0 24 0.002 
261 1 0.0173735 0.102581 0.0128502 0 0 0 0.0877339 -0.222933 0.386666 0.000376717 -0.000380348 -0.000166922 1 0 0 0 0 0 0 0 0 0 0 0 0 0 0 0 23 0.002 
931 4 0.00304244 0.107967 0.0125122 0 0 0 0.00693 -0.00512882 0.441371 -0.000672135 -0.000286036 0.010529 0 0 0 1 0 0 0 0 0 0 0 0 0 0 0 0 11 0.002 
359 3 0.0154084 0.108007 0.0135223 0 0 0 -0.124386 0.0399878 0.225227 -0.00155871 -0.00631824 -0.00202668 1 0 2 0 0 0 0 0 0 0 0 0 0 0 0 0 29 0.002 
760 3 0.00307001 0.0798218 0.016281 0 0 0 0.106855 0.0498027 0.137394 0 -0.000164368 0 0 0 0 0 0 0 0 0 0 0 0 0 0 0 0 0 19 0.002 
758 4 0.00945465 0.0796241 0.0149935 0 0 0 -0.206391 -0.550041 -0.516074 0 -0.000164368 0 0 0 0 0 0 0 0 0 0 0 0 0 0 0 0 0 20 0.002 
517 2 0.013336 0.0800734 0.0163694 0 0 0 -0.0607053 -0.44144 -0.531754 0 -0.000164368 0 0 0 0 0 0 0 0 0 0 0 0 0 0 0 0 0 12 0.002 
792 2 0.0031971 0.0900697 0.0158336 0 0 0 -0.768184 0.360606 0.952815 0 -0.000164368 0 0 0 0 0 0 0 0 0 0 0 0 0 0 0 0 0 13 0.002 
868 5 0.0140187 0.0909153 0.0158701 0 0 0 0.422019 -0.21185 -0.339049 0 -0.000164368 0 0 0 0 0 0 0 0 0 0 0 0 0 0 0 0 0 15 0.002 
979 4 0.00330752 0.0948546 0.0161512 0 0 0 0.0571438 0.0789479 -0.0986762 -0.0214578 -0.00990456 0.0172243 0 1 0 1 0 0 0 0 0 0 0 0 0 0 0 0 10 0.002 
1026 6 0.0124487 0.0960779 0.0161676 0 0 0 -0.297226 -0.266645 0.714688 0 -0.000164368 0 0 0 0 0 0 0 0 0 0 0 0 0 0 0 0 0 13 0.002 
730 3 0.00301323 0.0987986 0.0155712 0 0 0 0.00513658 -0.172638 0.078068 -0.00477712 0.00841367 0.00719955 0 0 0 1 0 0 1 0 0 0 0 0 0 0 0 0 13 0.002 
841 3 0.0077755 0.0990005 0.0152438 0 0 0 0.0719997 -0.0500963 0.0919485 0.00873653 0.0145183 0.00881519 0 1 0 0 0 0 0 0 0 0 0 0 0 0 0 0 18 0.002 
1060 2 0.0177066 0.0991317 0.0149303 0 0 0 -0.109813 -0.226069 0.0483291 0.00128775 0.00198828 -0.0012227 0 1 0 0 0 0 0 0 0 0 0 0 0 0 0 0 3 0.002 
993 8 0.0113658 0.102309 0.0156574 0 0 0 -0.123421 0.0417993 0.246017 -0.0067439 -0.0167254 -0.00931265 0 0 0 0 0 0 0 1 0 0 0 0 0 0 0 0 9 0.002 
331 7 0.00750896 0.103223 0.0149479 0 0 0 -0.107006 0.0818849 0.171167 0 -0.000164368 0 0 0 0 0 0 0 0 0 0 0 0 0 0 0 0 0 29 0.002 
501 2 0.014679 0.104545 0.0153712 0 0 0 0.0298113 0.00151388 0.189795 -0.00091915 -0.00126288 -0.000196507 0 2 1 0 0 0 0 0 0 0 0 0 0 0 0 0 7 0.002 
1104 4 0.00567291 0.106789 0.0154413 0 0 0 0.0182044 0.0976023 0.5184 0 -0.000164368 0 0 0 0 0 0 0 0 0 0 0 0 0 0 0 0 0 1 0.002 
802 4 0.00964755 0.107832 0.0159207 0 0 0 -0.198288 0.149436 0.330237 0 -0.000164368 0 0 0 0 0 0 0 0 0 0 0 0 0 0 0 0 0 10 0.002 
337 8 0.00591899 0.078151 0.0188816 0 0 0 0.359384 0.337526 0.303289 0 -0.000164368 0 0 0 0 0 0 0 0 0 0 0 0 0 0 0 0 0 35 0.002 
948 3 0.016794 0.0779807 0.0165122 0 0 0 0.175338 -0.0027067 -0.508605 0 -0.000164368 0 0 0 0 0 0 0 0 0 0 0 0 0 0 0 0 0 11 0.002 
859 6 0.0166013 0.0831052 0.0184124 0 0 0 -0.00356144 0.125068 -0.432827 0.0205368 -0.0202958 0.00838917 0 0 0 0 0 1 0 0 0 0 0 0 0 0 0 0 21 0.002 
557 5 0.0133027 0.0852688 0.0189594 0 0 0 0.166012 -0.232514 -0.0750636 -0.0205368 0.019967 -0.00838917 0 0 0 0 0 1 0 0 0 0 0 0 0 0 0 0 27 0.002 
77 12 0.0103024 0.0882226 0.0168991 0 0 0 0.105262 0.0698398 0.137031 0 -0.000164368 0 0 0 0 0 0 0 0 0 0 0 0 0 0 0 0 0 33 0.002 
531 1 0.00826938 0.0924557 0.0174678 0 0 0 -0.0895312 -0.46682 0.18788 -0.000891088 -0.00159064 -0.00170139 1 0 0 0 0 0 0 0 0 0 0 0 0 0 0 0 43 0.002 
990 2 0.0164832 0.0954079 0.0183968 0 0 0 -0.069299 -0.226227 0.164655 0.00366439 -0.00499951 -0.00135672 0 1 0 0 0 0 0 0 0 0 0 0 0 0 0 0 7 0.002 
1031 3 0.00671242 0.0970026 0.0186555 0 0 0 0.00573205 -0.163959 0.082849 -0.000583481 0.000688092 -0.00176555 0 0 0 0 0 0 0 0 0 0 0 0 0 0 0 0 3 0.002 
886 5 0.0149706 0.0994401 0.0178301 0 0 0 0.0931601 -0.189724 0.163727 0.00108788 0.00537787 -0.0038595 0 1 0 0 0 0 0 0 0 0 0 0 0 0 0 0 15 0.002 
729 9 0.00748255 0.101247 0.0185443 0 0 0 0.0276874 -0.241217 0.0902747 0 -0.000164368 0 0 0 0 0 0 0 0 0 0 0 0 0 0 0 0 0 11 0.002 
671 3 0.00394625 0.103243 0.0173424 0 0 0 0.0889432 0.12818 0.132246 -4.33604e-05 -0.000326131 -0.000178115 0 0 1 0 0 0 0 0 0 0 0 0 0 0 0 0 33 0.002 
352 4 0.0126926 0.104324 0.0188268 0 0 0 -0.0675999 -0.0796065 0.160622 0.00564092 0.012875 0.00335032 0 1 0 2 0 0 0 1 0 0 0 0 0 0 0 0 19 0.002 
513 4 0.01823 0.105069 0.0171358 0 0 0 -0.0140457 -0.0157201 0.243175 0.000292294 -0.000274337 0.000225952 0 1 0 0 0 0 0 0 0 0 0 0 0 0 0 0 31 0.002 
291 1 0.0152746 0.107923 0.0179092 0 0 0 -0.107973 -0.0416953 0.336514 0 -0.000164368 0 0 0 0 0 0 0 0 0 0 0 0 0 0 0 0 0 28 0.002 
457 6 0.0148307 0.0771592 0.0208051 0 0 0 0.289668 -0.573496 -0.0499566 0 -0.000164368 0 0 0 0 0 0 0 0 0 0 0 0 0 0 0 0 0 25 0.002 
718 11 0.00345515 0.0869536 0.0211947 0 0 0 -0.101598 -0.134768 0.148633 0 -0.000164368 0 0 0 0 0 0 0 0 0 0 0 0 0 0 0 0 0 20 0.002 
1098 3 0.00477641 0.0905537 0.019596 0 0 0 -0.112401 0.127449 0.630963 0 -0.000164368 0 0 0 0 0 0 0 0 0 0 0 0 0 0 0 0 0 4 0.002 
629 8 0.0111393 0.0901548 0.0204117 0 0 0 0.106216 -0.245876 -0.160009 0 -0.000164368 0 0 0 0 0 0 0 0 0 0 0 0 0 0 0 0 0 33 0.002 
400 7 0.0152656 0.0889422 0.0197422 0 0 0 0.017587 -0.397108 -0.0237261 0 -0.000164368 0 0 0 0 0 0 0 0 0 0 0 0 0 0 0 0 0 33 0.002 
892 5 0.0181589 0.0921592 0.0209809 0 0 0 -0.172724 -0.187372 0.443072 0 -0.000164368 0 0 0 0 0 0 0 0 0 0 0 0 0 0 0 0 0 7 0.002 
639 9 0.00307863 0.0944959 0.0208238 0 0 0 0.0237689 -0.153835 0.0629531 0 -0.000164368 0 0 0 0 0 0 0 0 0 0 0 0 0 0 0 0 0 26 0.002 
1003 7 0.0104863 0.094706 0.0199105 0 0 0 -0.11599 -0.199098 -0.0011875 -0.00339532 -0.0019202 0.00315028 1 0 0 0 0 0 1 0 0 0 0 0 0 0 0 0 6 0.002 
1037 5 0.0136485 0.0970081 0.0206974 0 0 0 -0.173395 -0.126612 0.109883 -0.000564974 -0.000287695 0.00113481 0 1 0 0 2 0 1 0 0 0 0 0 0 0 0 0 11 0.002 
1111 4 0.00342995 0.099167 0.0195363 0 0 0 0.05882 -0.0448192 0.0839189 0 -0.000164368 0 0 0 0 0 0 0 0 0 0 0 0 0 0 0 0 0 0 0.002 
1086 9 0.0122114 0.100729 0.0205005 0 0 0 -0.0701858 -0.0858058 0.167736 -0.000735198 0.000715402 -0.0054221 0 0 0 1 1 0 0 0 1 0 0 0 0 0 0 0 3 0.002 
455 1 0.00299921 0.10522 0.0206831 0 0 0 -0.021948 0.108859 0.160745 0.000184863 -0.00270534 -0.00711091 1 0 1 0 0 0 0 0 0 0 0 0 0 0 0 0 27 0.002 
150 7 0.00884093 0.10531 0.0192831 0 0 0 -0.0712629 -0.180648 0.281205 0 -0.000164368 0 0 0 0 0 0 0 0 0 0 0 0 0 0 0 0 0 14 0.002 
399 3 0.0168711 0.103775 0.0207014 0 0 0 -0.0925497 -0.198059 0.182132 0 -0.000164368 0 0 0 0 0 0 0 0 0 0 0 0 0 0 0 0 0 26 0.002 
680 6 0.0056457 0.107893 0.0192973 0 0 0 0.0990849 0.215383 0.492625 0 -0.000164368 0 0 0 0 0 0 0 0 0 0 0 0 0 0 0 0 0 28 0.002 
1092 4 0.0105758 0.0769813 0.0231222 0 0 0 0.0343067 -0.554932 0.0293096 0.00055854 -0.00896526 0.00567533 0 0 0 2 0 0 0 0 0 0 0 0 0 0 0 0 2 0.002 
922 5 0.00301185 0.0780169 0.0216263 0 0 0 0.0616562 -0.0839435 -0.0229245 0 -0.000164368 0 0 0 0 0 0 0 0 0 0 0 0 0 0 0 0 0 4 0.002 
916 8 0.0103882 0.0807892 0.0219546 0 0 0 0.0773198 -0.532886 0.134379 0.000356445 0.00726662 -0.00482705 0 0 0 1 0 0 0 0 0 0 0 0 0 0 0 0 17 0.002 
305 5 0.0172824 0.0801197 0.0223671 0 0 0 -0.632476 0.126674 0.367431 0 -0.000164368 0 0 0 0 0 0 0 0 0 0 0 0 0 0 0 0 0 33 0.002 
306 3 0.00324283 0.0827928 0.021875 0 0 0 0.133581 -0.159662 -0.150085 0 -0.000164368 0 0 0 0 0 0 0 0 0 0 0 0 0 0 0 0 0 33 0.002 
534 13 0.0140152 0.0827919 0.0220949 0 0 0 0.00480194 -0.3304 -0.177663 0 -0.000164368 0 0 0 0 0 0 0 0 0 0 0 0 0 0 0 0 0 26 0.002 
394 6 0.00822317 0.084574 0.0220804 0 0 0 -0.000607264 -0.114913 0.376718 -0.00217504 0.00192839 -0.00160099 0 0 0 0 0 1 0 0 0 0 0 0 0 0 0 0 35 0.002 
719 3 0.0127106 0.0867807 0.0226327 0 0 0 0.0653363 -0.343838 -0.138104 -0.00402481 -0.000107548 -0.000959855 0 0 0 0 0 0 0 0 0 0 0 0 0 0 0 0 15 0.002 
1093 3 0.0166294 0.0865601 0.0233537 0 0 0 0.0579067 -0.369496 0.0179563 0.00402481 -0.000221189 0.000959855 0 0 0 0 0 0 0 0 0 0 0 0 0 0 0 0 7 0.002 
881 1 0.00662538 0.0894523 0.023275 0 0 0 0.0954038 -0.369099 -0.0667121 0 -0.000164368 0 0 0 0 0 0 0 0 0 0 0 0 0 0 0 0 0 16 0.002 
726 1 0.00686691 0.0933728 0.0218591 0 0 0 0.0419566 -0.152072 0.121861 0 -0.000164368 0 0 0 0 0 0 0 0 0 0 0 0 0 0 0 0 0 16 0.002 