ITEM: TIMESTEP
9000000
ITEM: NUMBER OF ATOMS
16224
ITEM: BOX BOUNDS ff ff ff
-0.01 0.45
-0.15 0.15
-0.08 0.1
ITEM: ATOMS id type x y z ix iy iz vx vy vz fx fy fz c_cc_1 c_cc_2 c_cc_3 c_cc_4 c_cc_5 c_cc_6 c_cc_7 c_cc_8 c_cc_9 c_cc_10 c_cc_11 c_cc_12 c_cc_13 c_cc_14 c_cc_15 c_cc_16 f_fppacc radius c_cc_17 
16349 4 0.0132599 -0.00880834 -0.0603094 0 0 0 -0.0124697 -0.304539 0.033494 0 -1.05196e-05 0 0 0 0 0 0 0 0 0 0 0 0 0 0 0 0 0 0 0.0008 0 
5728 2 0.0171574 -0.0055903 -0.0603896 0 0 0 -0.00185001 -0.128832 -0.0137589 0 -1.05196e-05 0 0 0 0 0 0 0 0 0 0 0 0 0 0 0 0 0 56 0.0008 0 
2010 2 0.00318358 -0.0170032 -0.0581175 0 0 0 -0.0100994 -0.549333 0.139896 0 -1.05196e-05 0 0 0 0 0 0 0 0 0 0 0 0 0 0 0 0 0 48 0.0008 0 
5989 3 0.003981 -0.000600647 -0.0578413 0 0 0 -3.77409 -14.3375 -5.25293 0 -1.05196e-05 0 0 0 0 0 0 0 0 0 0 0 0 0 0 0 0 0 66 0.0008 0 
5801 6 0.00530487 -0.0250959 -0.055562 0 0 0 -0.000376831 -0.145604 0.0763426 0 -1.05196e-05 0 0 0 0 0 0 0 0 0 0 0 0 0 0 0 0 0 37 0.0008 0 
17084 10 0.0161352 -0.0249727 -0.0555435 0 0 0 0.00212128 -0.122003 -0.00356137 0 -1.05196e-05 0 0 0 0 0 0 0 0 0 0 0 0 0 0 0 0 0 0 0.0008 0 
17361 2 0.00540825 -0.0170013 -0.0553889 0 0 0 2.11111 -8.75127 2.33744 0 -1.05196e-05 0 0 0 0 0 0 0 0 0 0 0 0 0 0 0 0 0 0 0.0008 0 
12623 3 0.0141832 -0.0209898 -0.0544717 0 0 0 2.64806 -9.64231 4.0847 0 -1.05196e-05 0 0 0 0 0 0 0 0 0 0 0 0 0 0 0 0 0 29 0.0008 0 
16057 4 0.0143411 -0.0304249 -0.0527949 0 0 0 0.00354399 -0.22735 0.0793561 0 -1.05196e-05 0 0 0 0 0 0 0 0 0 0 0 0 0 0 0 0 0 7 0.0008 0 
15203 3 0.0173756 -0.0324787 -0.0515305 0 0 0 -0.412532 3.18818 -2.05749 0 -1.05196e-05 0 0 0 0 0 0 0 0 0 0 0 0 0 0 0 0 0 14 0.0008 0 
13506 3 0.00200335 -0.0198479 -0.0483677 0 0 0 0.0193266 -1.64541 -0.292679 0 -1.05196e-05 0 0 0 0 0 0 0 0 0 0 0 0 0 0 0 0 0 23 0.0008 0 
16369 1 0.0128361 -0.0418376 -0.0444793 0 0 0 -0.0980669 -0.304502 0.364048 0 -1.05196e-05 0 0 0 0 0 0 0 0 0 0 0 0 0 0 0 0 0 0 0.0008 0 
17070 5 0.00930318 -0.0379035 -0.0416512 0 0 0 0.754054 -0.304061 1.06055 0 -1.05196e-05 0 0 0 0 0 0 0 0 0 0 0 0 0 0 0 0 0 0 0.0008 0 
17147 2 0.00888673 -0.0486452 -0.0370885 0 0 0 -0.000378805 -0.0632382 0.0785312 -3.82604e-10 -3.04749e-05 -1.61274e-05 0 0 0 0 0 0 0 0 0 0 0 0 0 0 0 0 0 0.0008 0 
16821 3 0.00519485 -0.0501744 -0.0347177 0 0 0 -0.0489969 -0.0645543 0.103635 5.79342e-09 5.0788e-07 5.09793e-06 0 0 0 0 0 0 0 0 0 0 0 0 0 0 0 0 0 0.0008 0 
17274 2 0.0133676 -0.0493932 -0.0305848 0 0 0 0.699673 -2.44049 1.81071 0 -1.05196e-05 0 0 0 0 0 0 0 0 0 0 0 0 0 0 0 0 0 0 0.0008 0 
14963 1 0.00184299 -0.0470831 -0.029477 0 0 0 1.93864 2.488 9.50148 0 -1.05196e-05 0 0 0 0 0 0 0 0 0 0 0 0 0 0 0 0 0 12 0.0008 0 
10441 10 0.013287 -0.0546176 -0.0275152 0 0 0 0.0495302 0.133741 -0.198089 0 -1.05196e-05 0 0 0 0 0 0 0 0 0 0 0 0 0 0 0 0 0 37 0.0008 0 
12725 1 0.00271139 -0.0525893 -0.0236018 0 0 0 0.0247821 -1.24857 1.76111 0 -1.05196e-05 0 0 0 0 0 0 0 0 0 0 0 0 0 0 0 0 0 22 0.0008 0 
4933 3 0.00847442 -0.0478368 -0.021289 0 0 0 8.64527 -2.74706 30.0345 0 -1.05196e-05 0 0 0 0 0 0 0 0 0 0 0 0 0 0 0 0 0 58 0.0008 0 
17286 7 0.01401 -0.0454945 -0.0214431 0 0 0 1.22322 1.68502 1.25379 0 -1.05196e-05 0 0 0 0 0 0 0 0 0 0 0 0 0 0 0 0 0 0 0.0008 0 
17089 2 0.00645371 -0.0553799 -0.0178957 0 0 0 -1.02642 -3.71918 7.48031 0 -1.05196e-05 0 0 0 0 0 0 0 0 0 0 0 0 0 0 0 0 0 0 0.0008 0 
17255 7 0.00368928 -0.0520606 -0.0181401 0 0 0 -8.08814 -0.40591 11.6951 0 -1.05196e-05 0 0 0 0 0 0 0 0 0 0 0 0 0 0 0 0 0 0 0.0008 0 
2550 3 0.00338785 -0.0270558 -0.0182052 0 0 0 -0.974516 2.58217 0.880985 0 -1.05196e-05 0 0 0 0 0 0 0 0 0 0 0 0 0 0 0 0 0 53 0.0008 0 
13923 7 0.000870217 -0.0588934 -0.0165709 0 0 0 0.0189386 5.61712e-06 -0.0995571 -4.0856e-05 6.9481e-05 1.76864e-05 0 0 0 0 0 0 0 0 0 0 0 0 0 0 0 0 18 0.0008 0 
13645 4 0.00486582 -0.0588774 -0.0166169 0 0 0 0.0959684 0.0110535 -0.081896 0 -1.05196e-05 0 0 0 0 0 0 0 0 0 0 0 0 0 0 0 0 0 37 0.0008 0 
8467 4 0.0105022 -0.0588703 -0.0166948 0 0 0 0.0245972 0.0151283 -0.0809292 -1.10916e-18 -2.53692e-07 1.35713e-06 0 0 0 0 0 0 0 0 0 0 0 0 0 0 0 0 40 0.0008 0 
17342 3 0.00794778 -0.0542483 -0.0169149 0 0 0 -1.01168 -0.921116 11.8116 0 -1.05196e-05 0 0 0 0 0 0 0 0 0 0 0 0 0 0 0 0 0 0 0.0008 0 
17336 10 0.00622211 -0.0590575 -0.015549 0 0 0 0.0873318 -0.106536 0.148298 0 -1.05196e-05 0 0 0 0 0 0 0 0 0 0 0 0 0 0 0 0 0 0 0.0008 0 
10802 6 0.0138741 -0.059028 -0.0158512 0 0 0 0.0506701 0.00802296 -0.042919 9.94401e-18 -2.53692e-07 1.35713e-06 0 0 0 0 0 0 0 0 0 0 0 0 0 0 0 0 0 0.0008 0 
2231 1 0.00592703 -0.0567651 -0.0157289 0 0 0 0.515795 -2.8128 8.53035 0 -1.05196e-05 0 0 0 0 0 0 0 0 0 0 0 0 0 0 0 0 0 45 0.0008 0 
15694 7 0.00137364 -0.0592069 -0.0148945 0 0 0 0.0403748 0.0129843 -0.06946 6.54389e-19 -2.53692e-07 1.35713e-06 0 0 0 0 0 0 0 0 0 0 0 0 0 0 0 0 0 0.0008 0 
15618 1 0.0156575 -0.0591746 -0.0150674 0 0 0 0.0596029 -0.00103115 0.00551614 -1.48668e-17 -2.53692e-07 1.35713e-06 0 0 0 0 0 0 0 0 0 0 0 0 0 0 0 0 0 0.0008 0 
13527 2 0.013836 -0.0593728 -0.0140071 0 0 0 0.0155789 0.00715146 -0.0382569 5.49347e-19 -2.53692e-07 1.35713e-06 0 0 0 0 0 0 0 0 0 0 0 0 0 0 0 0 5 0.0008 0 
15555 3 0.00307476 -0.059607 -0.0126793 0 0 0 -0.0400298 -0.00189752 -0.00241 0 -1.05196e-05 0 0 0 0 0 0 0 0 0 0 0 0 0 0 0 0 0 0 0.0008 0 
1637 5 0.0113535 -0.0595215 -0.0132117 0 0 0 0.141214 -0.00697111 0.0375461 2.85505e-09 3.73262e-06 2.15908e-06 0 0 0 0 0 0 0 0 0 0 0 0 0 0 0 0 59 0.0008 0 
8496 3 0.0180324 -0.0595798 -0.0128996 0 0 0 0.0595962 0.0110943 -0.0593493 -6.6613e-18 -2.53692e-07 1.35713e-06 0 0 0 0 0 0 0 0 0 0 0 0 0 0 0 0 46 0.0008 0 
14749 4 0.0103314 -0.0598403 -0.0113624 0 0 0 0.0934673 0.00452887 0.0116192 0 -1.05196e-05 0 0 0 0 0 0 0 0 0 0 0 0 0 0 0 0 0 3 0.0008 0 
15517 2 0.0126569 -0.0597528 -0.011974 0 0 0 0.167716 -0.00372254 0.0199138 1.29664e-07 -2.16061e-07 1.15582e-06 0 0 0 0 0 0 0 0 0 0 0 0 0 0 0 0 2 0.0008 0 
5338 2 0.00121259 -0.0596686 -0.0110498 0 0 0 0.0662544 -0.00401963 0.0714142 0 -1.05196e-05 0 0 0 0 0 0 0 0 0 0 0 0 0 0 0 0 0 46 0.0008 0 
15381 2 0.00267082 -0.060094 -0.0101489 0 0 0 -0.0170064 -0.00137641 0.00736313 -7.3499e-20 -2.53692e-07 1.35713e-06 0 0 0 0 0 0 0 0 0 0 0 0 0 0 0 0 3 0.0008 0 
11996 1 0.00821084 -0.0599484 -0.0107145 0 0 0 0.0254335 -0.0174651 0.00282597 0 -1.05196e-05 0 0 0 0 0 0 0 0 0 0 0 0 0 0 0 0 0 19 0.0008 0 
12757 3 0.000803041 -0.0602507 -0.00931057 0 0 0 0.00115667 -0.0164475 0.0879873 -9.81747e-07 5.65825e-07 -3.08622e-06 0 0 0 0 0 0 0 0 0 0 0 0 0 0 0 0 21 0.0008 0 
15828 4 0.00458536 -0.0602167 -0.00949266 0 0 0 0.00584871 -0.0147498 0.0789045 6.11656e-19 -2.53692e-07 1.35713e-06 0 0 0 0 0 0 0 0 0 0 0 0 0 0 0 0 0 0.0008 0 
12332 2 0.00624725 -0.0602292 -0.00942572 0 0 0 0.0145628 -0.0100004 0.0534975 9.36721e-19 -2.53692e-07 1.35713e-06 0 0 0 0 0 0 0 0 0 0 0 0 0 0 0 0 11 0.0008 0 
6949 9 0.0104471 -0.0601684 -0.00975216 0 0 0 -0.00542005 -0.00696826 0.0462962 -5.99714e-06 5.69555e-05 -1.87815e-05 0 0 0 0 0 0 0 0 0 0 0 0 0 0 0 0 50 0.0008 0 
16330 3 0.0141101 -0.0601341 -0.00993417 0 0 0 -0.0440906 -0.0173291 0.0926911 1.97459e-06 2.38418e-07 -1.15484e-06 0 0 0 0 0 0 0 0 0 0 0 0 0 0 0 0 0 0.0008 0 
5892 2 0.015735 -0.0601006 -0.0101133 0 0 0 -0.0388307 0.00262731 -0.014039 -3.62046e-08 -2.10024e-07 1.36102e-06 0 0 0 0 0 0 0 0 0 0 0 0 0 0 0 0 32 0.0008 0 
7654 8 0.00226866 -0.0603877 -0.00857765 0 0 0 0.00617289 -0.00363738 0.0194582 -2.55684e-19 -2.53692e-07 1.35713e-06 0 0 0 0 0 0 0 0 0 0 0 0 0 0 0 0 58 0.0008 0 
255 2 0.0080271 -0.0602996 -0.00904918 0 0 0 0.00773569 -0.00452436 0.0242032 -1.63565e-15 -2.53693e-07 1.35713e-06 0 0 0 0 0 0 0 0 0 0 0 0 0 0 0 0 40 0.0008 0 
4848 7 0.0096495 -0.0604457 -0.0082672 0 0 0 0.0260012 -0.00728357 0.0389636 -4.99434e-16 -2.5369e-07 1.35713e-06 0 0 0 0 0 0 0 0 0 0 0 0 0 0 0 0 49 0.0008 0 
15272 2 0.0113333 -0.0604879 -0.00804171 0 0 0 0.0192179 -0.00379261 0.0202886 -2.69605e-18 -2.53692e-07 1.35713e-06 0 0 0 0 0 0 0 0 0 0 0 0 0 0 0 0 1 0.0008 0 
3129 3 0.000839108 -0.0605985 -0.00744983 0 0 0 0.0014595 -0.00654709 0.0350238 1.20244e-19 -2.53692e-07 1.35713e-06 0 0 0 0 0 0 0 0 0 0 0 0 0 0 0 0 21 0.0008 0 
14580 12 0.0036221 -0.0606132 -0.00737108 0 0 0 -0.00419345 -0.000895539 0.00475765 -9.21716e-12 -3.02038e-07 1.34728e-06 0 0 0 0 0 0 0 0 0 0 0 0 0 0 0 0 17 0.0008 0 
14360 4 0.005122 -0.0605088 -0.00791914 0 0 0 0.00515459 -0.00598723 0.0311177 -2.83417e-06 -9.12957e-06 2.8357e-07 0 0 0 1 0 0 0 0 0 0 0 0 0 0 0 0 11 0.0008 0 
4306 9 0.00672155 -0.0605169 -0.00788645 0 0 0 0.00500013 -0.00795546 0.0427162 -2.83207e-06 -3.71199e-07 7.74876e-07 0 0 0 1 0 0 0 0 0 0 0 0 0 0 0 0 29 0.0008 0 
12917 2 0.00826532 -0.0605954 -0.00746668 0 0 0 0.0136455 -0.00443203 0.0237228 2.54363e-12 -2.40662e-07 1.35984e-06 0 0 0 0 0 0 0 0 0 0 0 0 0 0 0 0 28 0.0008 0 
7764 4 0.0130374 -0.0604967 -0.00799474 0 0 0 -0.0450993 -0.00324966 0.0173841 -1.22701e-18 -2.53692e-07 1.35713e-06 0 0 0 0 0 0 0 0 0 0 0 0 0 0 0 0 45 0.0008 0 
5399 2 0.0181261 -0.0606469 -0.00719127 0 0 0 -0.0230867 -0.00116056 0.0062052 4.94539e-06 -6.32182e-07 3.38275e-06 0 0 0 0 0 0 0 0 0 0 0 0 0 0 0 0 38 0.0008 0 
8040 3 0.00221221 -0.0607559 -0.00660584 0 0 0 -0.00993685 -0.00466354 0.00204432 1.377e-07 -8.47659e-06 -3.14701e-06 0 0 1 0 0 0 0 0 0 0 0 0 0 0 0 0 59 0.0008 0 
3837 1 0.00592488 -0.0607657 -0.00648143 0 0 0 0.0195493 -0.00469876 0.0147364 0 -1.05196e-05 0 0 0 0 0 0 0 0 0 0 0 0 0 0 0 0 0 63 0.0008 0 
2015 2 0.00951444 -0.0607795 -0.00648154 0 0 0 0.0184183 -0.00343972 0.0184001 -8.74826e-13 -2.53572e-07 1.35714e-06 0 0 0 0 0 0 0 0 0 0 0 0 0 0 0 0 34 0.0008 0 
12116 6 0.0111153 -0.0608312 -0.00620486 0 0 0 0.0264802 -0.00317247 0.0169625 8.78504e-08 -1.30605e-07 4.12217e-07 0 0 0 0 0 1 0 0 0 0 0 0 0 0 0 0 11 0.0008 0 
10496 1 0.0127419 -0.0608178 -0.00627671 0 0 0 0.0285108 -0.00177449 0.00949268 -1.00467e-18 -2.53692e-07 1.35713e-06 0 0 0 0 0 0 0 0 0 0 0 0 0 0 0 0 29 0.0008 0 
16880 1 0.0159885 -0.0483 -0.00623439 0 0 0 1.06026 -0.119044 2.52811 0 -1.05196e-05 0 0 0 0 0 0 0 0 0 0 0 0 0 0 0 0 0 0 0.0008 0 
7649 2 0.000800827 -0.0609043 -0.00581402 0 0 0 0.00016903 -0.00557664 0.0298323 6.14195e-19 -2.53692e-07 1.35713e-06 0 0 0 0 0 0 0 0 0 0 0 0 0 0 0 0 32 0.0008 0 
10595 5 0.00219098 -0.0609357 -0.0050162 0 0 0 -0.00140667 5.93401e-05 0.0025953 -1.43519e-07 1.81407e-06 1.4029e-06 0 0 1 0 0 0 0 0 0 0 0 0 0 0 0 0 55 0.0008 0 
4413 6 0.00359638 -0.0609074 -0.00579733 0 0 0 -0.00138874 -0.000200503 0.000772598 -5.7418e-06 8.04232e-07 1.94582e-06 0 0 0 0 0 0 0 0 0 0 0 0 0 0 0 0 49 0.0008 0 
5611 3 0.00515315 -0.0609356 -0.00507266 0 0 0 0.0022897 -9.96454e-05 0.0152613 -6.94987e-11 -5.24987e-07 -4.00806e-10 0 0 0 0 0 0 0 0 0 0 0 0 0 0 0 0 46 0.0008 0 
2611 5 0.00737449 -0.0609059 -0.0058054 0 0 0 0.0198875 -0.00269431 0.0142535 -2.75285e-06 1.22377e-06 -2.67879e-06 0 0 0 0 0 0 0 0 0 0 0 0 0 0 0 0 48 0.0008 0 
12304 8 0.0088867 -0.0609356 -0.00501573 0 0 0 0.00578517 3.02659e-11 0.0123242 4.74532e-17 8.51417e-13 1.01173e-16 0 0 0 0 0 0 0 0 0 0 0 0 0 0 0 0 32 0.0008 0 
14256 8 0.0176258 -0.0609356 -0.00522811 0 0 0 -0.00531995 -3.18655e-05 -0.0380155 -2.74047e-06 7.75837e-07 4.93825e-06 0 0 0 0 0 0 0 0 0 0 0 0 0 0 0 0 9 0.0008 0 
7937 2 0.000804837 -0.0609356 -0.00421084 0 0 0 0.00146851 -9.34329e-08 0.0133278 -3.85127e-14 2.56541e-10 -3.49533e-13 0 0 0 0 0 0 0 0 0 0 0 0 0 0 0 0 48 0.0008 0 
9977 6 0.0038022 -0.0609357 -0.00421068 0 0 0 -0.00631459 0.000165222 0.000831613 -7.72083e-07 4.07437e-06 -7.94626e-07 0 0 0 0 0 1 0 0 0 0 0 0 0 0 0 0 35 0.0008 0 
8455 4 0.00664866 -0.0609356 -0.00437799 0 0 0 0.0149253 2.34878e-05 0.0138979 8.71426e-11 -1.10729e-07 1.14349e-10 0 0 0 0 0 0 0 0 0 0 0 0 0 0 0 0 67 0.0008 0 
10360 1 0.0104648 -0.0609356 -0.00474688 0 0 0 0.00508042 3.64244e-06 0.00767947 7.80923e-08 1.08811e-07 5.15213e-07 0 0 0 0 0 1 0 0 0 0 0 0 0 0 0 0 48 0.0008 0 
14724 5 0.0131898 -0.0609356 -0.0042608 0 0 0 0.0124546 5.10159e-10 0.0145835 1.73531e-15 1.43366e-11 2.03214e-15 0 0 0 0 0 0 0 0 0 0 0 0 0 0 0 0 3 0.0008 0 
5953 8 0.0162341 -0.0609358 -0.00428316 0 0 0 0.0306442 -0.00493096 0.0523074 0.000725806 -4.05416e-05 1.27726e-05 0 0 0 0 0 0 0 1 0 0 0 0 0 0 0 0 39 0.0008 0 
894 6 0.00224546 -0.0609356 -0.00341707 0 0 0 -0.00766047 7.15972e-05 0.00333877 -4.71337e-08 -3.9274e-07 -6.14733e-07 0 0 0 0 0 1 0 0 0 0 0 0 0 0 0 0 49 0.0008 0 
9269 5 0.00533707 -0.0609356 -0.00345755 0 0 0 0.00338667 -0.000864909 0.000728959 -4.10679e-09 7.00941e-06 -1.20926e-08 0 0 0 0 1 0 0 0 0 0 0 0 0 0 0 0 46 0.0008 0 
11208 2 0.0068145 -0.0609356 -0.00271497 0 0 0 0.00258464 -1.93291e-12 0.000117245 -9.75721e-19 -4.741e-13 -4.43052e-20 0 0 0 0 0 0 0 0 0 0 0 0 0 0 0 0 34 0.0008 0 
10613 5 0.00816268 -0.0609356 -0.00357787 0 0 0 0.0160328 2.99348e-11 0.0198637 1.15833e-16 -1.55653e-13 1.42375e-16 0 0 0 0 0 0 0 0 0 0 0 0 0 0 0 0 35 0.0008 0 
1063 5 0.0102543 -0.0609356 -0.00299177 0 0 0 0.00874501 -2.71562e-07 0.00659373 -6.56742e-13 1.91109e-09 -5.14406e-13 0 0 0 0 0 0 0 0 0 0 0 0 0 0 0 0 42 0.0008 0 
12691 4 0.0116856 -0.0609356 -0.00370795 0 0 0 0.00832854 1.95387e-07 0.00508196 4.63787e-13 -2.06327e-09 2.82389e-13 0 0 0 0 0 0 0 0 0 0 0 0 0 0 0 0 44 0.0008 0 
9160 14 0.014738 -0.0609354 -0.00372432 0 0 0 0.00958743 0.00606755 -0.0471519 -0.00072783 0.000109065 -5.7508e-05 0 0 0 0 0 0 0 1 0 0 0 0 0 0 0 0 40 0.0008 0 
7286 3 0.0175494 -0.0609356 -0.00312644 0 0 0 -0.00273815 8.27839e-06 -0.0029433 -3.88717e-05 3.32337e-06 -8.73578e-07 0 0 1 0 0 0 0 0 0 0 0 0 0 0 0 0 22 0.0008 0 
5540 9 0.000808536 -0.0609356 -0.00259586 0 0 0 -0.0144739 -4.94167e-11 0.0152219 1.88569e-16 -3.38134e-12 -1.98214e-16 0 0 0 0 0 0 0 0 0 0 0 0 0 0 0 0 69 0.0008 0 
9680 4 0.00247468 -0.0609356 -0.00183357 0 0 0 0.000426427 -6.81349e-05 0.00187684 -4.66785e-08 7.51242e-07 1.08859e-08 0 0 0 0 0 1 0 0 0 0 0 0 0 0 0 0 47 0.0008 0 
1225 1 0.0038879 -0.0609356 -0.00261311 0 0 0 -0.00846102 -0.000593048 0.00117451 -1.54399e-07 -2.36332e-07 -1.8497e-06 1 0 0 0 0 1 0 0 0 0 0 0 0 0 0 0 156 0.0008 0 
6408 2 0.00542331 -0.0609356 -0.00185988 0 0 0 0.00811427 -1.04288e-05 0.000602372 -3.349e-09 -7.40042e-08 -9.09346e-08 0 0 0 0 1 0 0 0 0 0 0 0 0 0 0 0 27 0.0008 0 
4634 2 0.00848663 -0.0609356 -0.00197078 0 0 0 0.0144369 -4.58265e-12 0.00710181 -1.75451e-18 0 1.20326e-18 0 0 0 0 0 0 0 0 0 0 0 0 0 0 0 0 44 0.0008 0 
9715 3 0.0114026 -0.0609356 -0.00176853 0 0 0 0.0157175 5.08545e-12 0.00995894 7.95185e-19 0 4.02544e-19 0 0 0 0 0 0 0 0 0 0 0 0 0 0 0 0 20 0.0008 0 
1200 7 0.000892391 -0.0609356 -0.000990531 0 0 0 -0.00859313 1.28919e-10 0.0165227 -3.06217e-16 1.35631e-12 5.88816e-16 0 0 0 0 0 0 0 0 0 0 0 0 0 0 0 0 65 0.0008 0 
3512 5 0.00389186 -0.0609356 -0.00101323 0 0 0 -0.000251073 6.76842e-05 0.00150489 -8.05599e-09 -6.74109e-06 -1.28869e-06 1 0 0 0 0 0 0 0 0 0 0 0 0 0 0 0 62 0.0008 0 
6702 2 0.00699512 -0.0609356 -0.00112468 0 0 0 0.00544827 1.06484e-12 -5.32366e-05 2.34088e-19 4.77784e-13 -2.33039e-21 0 0 0 0 0 0 0 0 0 0 0 0 0 0 0 0 20 0.0008 0 
4185 5 0.00985139 -0.0609356 -0.00112736 0 0 0 0.0141966 4.28661e-10 0.00782678 1.82305e-15 -3.34229e-11 1.00498e-15 0 0 0 0 0 0 0 0 0 0 0 0 0 0 0 0 63 0.0008 0 
9279 2 0.0163839 -0.0609356 -0.00162861 0 0 0 0.0326197 -4.26038e-12 -0.000451174 4.7916e-18 0 1.11098e-20 0 0 0 0 0 0 0 0 0 0 0 0 0 0 0 0 10 0.0008 0 
414 7 0.00233704 -0.0609356 -0.00023932 0 0 0 0.00279107 0.000199643 0.00219032 -1.73475e-08 2.46036e-07 1.00836e-06 0 0 0 0 0 0 0 0 0 0 0 0 0 0 0 0 43 0.0008 0 
553 2 0.00563575 -0.0609356 -0.000273707 0 0 0 0.00650338 2.32083e-05 0.000947656 9.50561e-11 -7.15797e-07 2.10945e-09 0 0 0 0 0 0 0 0 0 0 0 0 0 0 0 0 44 0.0008 0 
72 4 0.00862971 -0.0609356 -8.88545e-05 0 0 0 0.0155206 3.10602e-07 0.0102551 1.36623e-12 -4.30353e-09 9.02894e-13 0 0 0 0 0 0 0 0 0 0 0 0 0 0 0 0 45 0.0008 0 
4095 1 0.0109738 -0.0609356 0.000369855 0 0 0 0.0322751 2.82956e-12 0.00645423 -9.13169e-19 0 -1.19794e-18 0 0 0 0 0 0 0 0 0 0 0 0 0 0 0 0 45 0.0008 0 
8603 2 0.0126762 -0.0609356 -0.00048533 0 0 0 0.037808 5.89113e-12 0.00306366 3.63658e-18 0 -3.02153e-19 0 0 0 0 0 0 0 0 0 0 0 0 0 0 0 0 33 0.0008 0 
3983 3 0.0150295 -0.0609356 -0.000480332 0 0 0 0.0311736 4.12538e-13 0.00122764 9.34282e-19 0 -1.34198e-19 0 0 0 0 0 0 0 0 0 0 0 0 0 0 0 0 16 0.0008 0 
1871 2 0.000929018 -0.0609356 0.000663085 0 0 0 0.000633329 -5.87173e-12 0.000455784 7.55388e-20 0 -5.51077e-20 0 0 0 0 0 0 0 0 0 0 0 0 0 0 0 0 79 0.0008 0 
690 7 0.00248543 -0.0609355 0.00135437 0 0 0 0.00704032 0.000613664 0.00117774 6.51703e-07 -1.05471e-06 -1.91273e-05 0 0 0 0 0 0 1 0 0 0 0 0 0 0 0 0 56 0.0008 0 
101 5 0.00389408 -0.0609357 0.000586643 0 0 0 0.00320815 0.00016026 0.0021773 1.79057e-09 2.19198e-06 1.22556e-06 0 0 0 0 0 0 0 0 0 0 0 0 0 0 0 0 67 0.0008 0 
585 3 0.0055323 -0.0609356 0.00132538 0 0 0 0.00447722 1.19256e-05 0.00336483 1.72591e-11 1.2658e-07 5.96226e-13 0 0 0 0 0 0 0 0 0 0 0 0 0 0 0 0 77 0.0008 0 
1002 3 0.00713541 -0.0609356 0.000491619 0 0 0 0.0108923 -5.37421e-07 0.00231359 -1.65057e-12 4.16864e-09 -3.5072e-13 0 0 0 0 0 0 0 0 0 0 0 0 0 0 0 0 52 0.0008 0 
9639 4 0.0134296 -0.0609356 0.00106879 0 0 0 0.0263751 4.11864e-12 0.0157305 -4.79227e-18 0 2.3129e-19 0 0 0 0 0 0 0 0 0 0 0 0 0 0 0 0 32 0.0008 0 
7431 2 0.0158642 -0.0609356 0.00115093 0 0 0 0.0199416 -5.54945e-12 0.0182933 -2.32249e-18 0 -2.31344e-18 0 0 0 0 0 0 0 0 0 0 0 0 0 0 0 0 31 0.0008 0 
206 1 0.00108607 -0.0609356 0.00225549 0 0 0 0.00398379 -9.81376e-08 4.92837e-06 1.26097e-10 1.64715e-09 -1.04638e-08 1 0 0 0 0 0 0 0 0 0 0 0 0 0 0 0 107 0.0008 0 
317 1 0.00412113 -0.0609356 0.00217166 0 0 0 0.0144844 -2.92659e-05 0.000985146 -2.61417e-10 -7.27678e-09 -4.66101e-10 0 0 0 0 0 0 0 0 0 0 0 0 0 0 0 0 89 0.0008 0 
1470 6 0.00708523 -0.0609356 0.00209519 0 0 0 0.010611 -2.81016e-12 0.00147988 -2.15897e-19 0 -2.70719e-20 0 0 0 0 0 0 0 0 0 0 0 0 0 0 0 0 77 0.0008 0 
4165 3 0.00867702 -0.0609356 0.00157203 0 0 0 0.0195469 -5.71059e-12 0.0122183 -1.40721e-18 0 -6.89977e-19 0 0 0 0 0 0 0 0 0 0 0 0 0 0 0 0 27 0.0008 0 
4938 7 0.0104222 -0.0609356 0.0019431 0 0 0 0.023921 -6.51626e-12 0.00512202 -2.39606e-18 0 5.99002e-19 0 0 0 0 0 0 0 0 0 0 0 0 0 0 0 0 99 0.0008 0 
1367 1 0.0123044 -0.0609356 0.00228915 0 0 0 0.0329057 -4.26038e-12 0.0261048 -2.45129e-18 0 -2.45155e-18 0 0 0 0 0 0 0 0 0 0 0 0 0 0 0 0 91 0.0008 0 
3427 4 0.0147829 -0.0609306 0.00245218 0 0 0 0.0136763 -0.00122931 0.014355 0 -1.05196e-05 0 0 0 0 0 0 0 0 0 0 0 0 0 0 0 0 0 36 0.0008 0 
280 2 0.00253784 -0.0609357 0.00295316 0 0 0 0.00567401 -0.000364919 0.00231031 -1.12187e-06 8.91036e-06 4.6876e-06 0 0 0 0 0 0 1 0 0 0 0 0 0 0 0 0 100 0.0008 0 
2069 4 0.00566032 -0.0609356 0.00292101 0 0 0 0.0170295 -4.7511e-06 -3.65667e-05 -4.12962e-10 1.08117e-07 4.73144e-09 0 0 0 0 0 0 0 0 0 0 0 0 0 0 0 0 126 0.0008 0 
1920 3 0.00910316 -0.0609357 0.00326085 0 0 0 0.0210566 -0.00187664 -0.00427532 -5.89334e-06 1.81366e-05 -3.24729e-06 0 0 0 0 0 0 0 0 0 0 0 0 0 0 0 0 46 0.0008 0 
7185 2 0.0134366 -0.0609356 0.00342706 0 0 0 0.026746 -7.0867e-14 0.0324214 4.61034e-18 0 4.79204e-18 0 0 0 0 0 0 0 0 0 0 0 0 0 0 0 0 57 0.0008 0 
1366 5 0.0158802 -0.0609356 0.00362314 0 0 0 0.0134264 5.2076e-05 0.0179162 -1.03383e-06 -7.48365e-06 -1.11148e-06 0 0 0 0 0 0 0 0 0 0 0 0 0 0 0 0 29 0.0008 0 
17113 7 0.00878159 -0.0556188 0.00328574 0 0 0 -0.379432 -0.826739 2.69034 0 -1.05196e-05 0 0 0 0 0 0 0 0 0 0 0 0 0 0 0 0 0 0 0.0008 0 
1972 6 0.000801703 -0.0609356 0.00383001 0 0 0 6.58319e-05 2.46663e-06 -0.000696336 7.20767e-09 -7.05252e-09 -7.84909e-08 1 0 0 0 0 1 0 0 0 0 0 0 0 0 0 0 145 0.0008 0 
1894 5 0.00231997 -0.0609356 0.00453943 0 0 0 0.000202002 -0.000261872 -0.000315823 4.86852e-07 -4.22832e-07 -2.774e-06 0 0 0 0 1 0 0 0 0 0 0 0 0 0 0 0 175 0.0008 0 
1705 8 0.00396993 -0.0609356 0.00376502 0 0 0 0.0125076 3.83416e-05 0.00166543 6.72979e-10 -5.0523e-07 7.19846e-10 0 0 0 0 0 0 0 0 0 0 0 0 0 0 0 0 176 0.0008 0 
531 10 0.00549433 -0.0609356 0.00451239 0 0 0 0.00987957 -1.58367e-06 -0.000701963 1.40805e-08 -3.37555e-07 -1.3604e-07 0 0 0 0 0 0 0 0 0 1 0 0 0 0 0 0 170 0.0008 0 
154 3 0.0072947 -0.0609356 0.00369112 0 0 0 0.0188371 -1.07016e-06 0.000639535 3.57396e-12 -3.36554e-09 -6.71421e-11 0 0 0 0 0 0 0 0 0 0 0 0 0 0 0 0 106 0.0008 0 
18 2 0.0102854 -0.0609356 0.00433902 0 0 0 0.0149481 -4.65371e-05 0.00328265 -6.16761e-07 3.19775e-06 5.93149e-07 0 1 0 0 0 0 0 0 0 0 0 0 0 0 0 0 68 0.0008 0 
1036 2 0.0118754 -0.0609356 0.00416112 0 0 0 0.0156888 -1.4963e-05 0.00663024 -1.71005e-06 -2.65185e-06 -2.06916e-06 0 1 0 0 0 0 0 0 0 0 0 0 0 0 0 0 44 0.0008 0 
1887 11 0.0179871 -0.0609354 0.00373912 0 0 0 0.000198702 -0.00119514 0.00659661 0 -1.05196e-05 0 0 0 0 0 0 0 0 0 0 0 0 0 0 0 0 0 33 0.0008 0 
17318 9 0.00825981 -0.0585927 0.00368063 0 0 0 0.962575 0.166252 3.03404 0 -1.05196e-05 0 0 0 0 0 0 0 0 0 0 0 0 0 0 0 0 0 0 0.0008 0 
733 3 0.000891511 -0.0609356 0.00542747 0 0 0 0.0033381 1.0619e-07 -0.000858055 -3.75117e-09 7.39278e-08 -9.88604e-08 0 0 1 0 0 1 0 0 0 0 0 0 0 0 0 0 175 0.0008 0 
2352 2 0.00383115 -0.0609356 0.00535917 0 0 0 0.0028871 -1.75476e-05 0.0012439 -5.24349e-09 8.5001e-07 -1.07347e-08 0 0 0 0 0 0 0 0 0 0 0 0 0 0 0 0 161 0.0008 0 
1045 8 0.00705601 -0.0609356 0.00527322 0 0 0 0.0147064 1.22271e-05 -5.1686e-05 9.42897e-08 7.60453e-08 -2.9443e-07 0 0 0 0 0 0 0 1 0 0 0 0 0 0 0 0 110 0.0008 0 
3087 1 0.00860661 -0.0609359 0.00478549 0 0 0 0.00647827 3.25778e-05 -0.0027546 5.84662e-06 6.55146e-05 -2.39647e-06 0 0 0 0 0 0 0 0 0 0 0 0 0 0 0 0 118 0.0008 0 
4532 9 0.0130288 -0.0609356 0.0052699 0 0 0 0.016124 0.00010336 0.00685802 3.6442e-07 1.98006e-06 6.90102e-07 0 1 0 0 0 0 0 0 0 0 0 0 0 0 0 0 66 0.0008 0 
1118 3 0.0146025 -0.0609331 0.00485951 0 0 0 0.0306273 -0.00307008 0.00926161 0 -1.05196e-05 0 0 0 0 0 0 0 0 0 0 0 0 0 0 0 0 0 73 0.0008 0 
4164 1 0.0169731 -0.0609356 0.00497736 0 0 0 0.0106418 5.75717e-06 0.0163192 1.85617e-10 1.61311e-08 -4.66585e-10 0 0 0 0 0 0 0 0 0 0 0 0 0 0 0 0 26 0.0008 0 
210 4 0.00243263 -0.0608447 0.00613268 0 0 0 0.000325169 2.42315e-05 -0.00095962 -5.80416e-08 2.4976e-06 1.00313e-05 0 0 0 0 1 0 0 0 0 0 0 0 0 0 0 0 129 0.0008 0 
2116 2 0.00526595 -0.060852 0.00609377 0 0 0 0.00258559 -0.000313998 -0.00170252 -3.35233e-08 -3.48747e-08 -1.10852e-06 0 0 0 0 0 0 0 0 0 1 0 0 0 0 0 0 170 0.0008 0 
6076 6 0.0066964 -0.0607169 0.00681681 0 0 0 0.00349329 -0.000477025 -0.00254557 -2.59421e-07 -1.37386e-07 -2.66972e-07 0 0 0 0 0 0 0 1 0 0 0 0 0 0 0 0 82 0.0008 0 
12 4 0.00824921 -0.0608053 0.00634345 0 0 0 0.00497162 -0.00055234 -0.00295715 6.67275e-13 -2.51885e-07 -1.35751e-06 0 0 0 0 0 0 0 0 0 0 0 0 0 0 0 0 98 0.0008 0 
4248 10 0.00979214 -0.0608956 0.00586056 0 0 0 0.00651556 3.52756e-05 0.000658594 -4.78753e-08 7.6156e-07 -1.36219e-06 0 1 0 0 0 0 0 0 0 0 0 0 0 0 0 0 125 0.0008 0 
6544 1 0.0114471 -0.0609108 0.00576531 0 0 0 -0.00245566 -0.000327245 0.00429244 0 -1.05196e-05 0 0 0 0 0 0 0 0 0 0 0 0 0 0 0 0 0 65 0.0008 0 
9210 2 0.0126476 -0.0607184 0.00680876 0 0 0 0.00437819 0.000230617 0.00450212 -4.96396e-07 8.26079e-06 -3.28051e-06 0 0 0 0 0 0 0 0 0 0 0 0 0 0 0 0 50 0.0008 0 
1890 2 0.0142054 -0.060794 0.00640466 0 0 0 0.00896464 -0.00089932 0.00505121 -6.18025e-08 3.88976e-05 -1.03065e-05 0 0 0 0 0 0 0 0 0 0 0 0 0 0 0 0 68 0.0008 0 
10907 2 0.0157686 -0.0608639 0.00603024 0 0 0 0.0127591 0.00360185 0.019277 -7.31717e-12 -1.83378e-07 -1.37079e-06 0 0 0 0 0 0 0 0 0 0 0 0 0 0 0 0 28 0.0008 0 
3630 1 0.0181855 -0.0608538 0.00608398 0 0 0 0.00478873 0.00154316 0.00824954 1.56372e-12 -2.54757e-07 -1.35698e-06 0 0 0 0 0 0 0 0 0 0 0 0 0 0 0 0 25 0.0008 0 
2641 8 0.000801053 -0.0606818 0.00700455 0 0 0 0.000430721 -0.000185745 -0.000984162 -5.78975e-08 -1.89126e-08 1.77705e-07 0 0 1 0 0 0 0 0 0 0 0 0 0 0 0 0 168 0.0008 0 
3865 4 0.0022548 -0.0605525 0.00769603 0 0 0 -0.00114295 -0.000329424 -0.00164807 2.02278e-10 4.13206e-07 -1.48672e-06 0 0 0 0 0 0 0 0 0 0 0 0 0 0 0 0 129 0.0008 0 
3869 8 0.00391252 -0.060694 0.00693916 0 0 0 0.00690963 0.000196045 0.00125318 -2.93638e-11 -3.69047e-07 -1.33077e-06 0 0 0 0 0 0 0 0 0 0 0 0 0 0 0 0 150 0.0008 0 
9441 6 0.0053578 -0.0605555 0.00767987 0 0 0 -0.00695921 -0.00322782 -0.0172289 -6.24877e-11 -3.94032e-07 -1.32893e-06 0 0 0 0 0 0 0 0 0 0 0 0 0 0 0 0 82 0.0008 0 
1541 1 0.00946478 -0.0606077 0.00740062 0 0 0 0.00683219 -6.49573e-05 -0.000330271 9.07495e-10 -1.04536e-07 -1.38646e-06 0 0 0 0 0 0 0 0 0 0 0 0 0 0 0 0 61 0.0008 0 
6574 6 0.0154443 -0.0605721 0.00759108 0 0 0 0.0118964 0.00309748 0.0165701 -4.78561e-14 -2.53843e-07 -1.3571e-06 0 0 0 0 0 0 0 0 0 0 0 0 0 0 0 0 61 0.0008 0 
1749 6 0.0169735 -0.060661 0.00711578 0 0 0 0.01414 0.00367131 0.0196397 5.45984e-14 -2.5361e-07 -1.35715e-06 0 0 0 0 0 0 0 0 0 0 0 0 0 0 0 0 39 0.0008 0 
11044 4 0.018453 -0.0605319 0.00780635 0 0 0 0.0163331 0.00358617 0.0191843 -1.40107e-14 -2.54046e-07 -1.35706e-06 0 0 0 0 0 0 0 0 0 0 0 0 0 0 0 0 31 0.0008 0 
5113 5 0.00108304 -0.060352 0.00876863 0 0 0 -0.00729232 -0.00110846 -0.00586615 -4.92902e-10 -6.33262e-07 -1.28205e-06 0 0 0 0 0 0 0 0 0 0 0 0 0 0 0 0 108 0.0008 0 
1165 1 0.00365133 -0.0604037 0.00849287 0 0 0 -0.00255468 -0.000984867 -0.00356206 -2.57253e-05 1.54388e-05 -9.67365e-06 1 0 0 0 0 0 0 0 0 0 0 0 0 0 0 0 149 0.0008 0 
4050 3 0.00660711 -0.0603431 0.00881639 0 0 0 -0.0037822 -0.00330926 -0.0143948 1.44067e-05 -2.17285e-06 5.30048e-07 0 0 1 0 0 0 0 0 0 0 0 0 0 0 0 0 29 0.0008 0 
3081 3 0.00801182 -0.0604838 0.00806342 0 0 0 0.00189905 -0.000855506 -0.00492402 2.35746e-08 -8.21679e-07 -1.24389e-06 0 0 0 0 0 0 0 0 0 0 0 0 0 0 0 0 86 0.0008 0 
3998 3 0.0115003 -0.0605134 0.00790526 0 0 0 0.0133731 0.00154221 0.00825007 2.54471e-15 -2.53695e-07 -1.35713e-06 0 0 0 0 0 0 0 0 0 0 0 0 0 0 0 0 81 0.0008 0 
5900 8 0.0137749 -0.0605093 0.00792691 0 0 0 -0.00086485 0.00233423 0.0115203 -3.43231e-06 -2.07053e-06 -4.66636e-06 0 0 0 0 0 0 0 0 0 0 0 0 0 0 0 0 50 0.0008 0 
8682 5 0.0050637 -0.0602655 0.00923057 0 0 0 0.00291638 -0.000512287 -0.00840981 2.18773e-05 3.58065e-06 9.29459e-06 1 0 1 0 0 0 0 0 0 0 0 0 0 0 0 0 44 0.0008 0 
9650 1 0.0125511 -0.0602488 0.00932096 0 0 0 0.0131864 0.00191694 0.0102547 2.63434e-20 -2.53692e-07 -1.35713e-06 0 0 0 0 0 0 0 0 0 0 0 0 0 0 0 0 29 0.0008 0 
7843 6 0.0165399 -0.0602892 0.00910472 0 0 0 0.00330418 0.00500661 0.026783 -1.53345e-16 -2.5369e-07 -1.35713e-06 0 0 0 0 0 0 0 0 0 0 0 0 0 0 0 0 41 0.0008 0 
2966 5 0.0183464 -0.0602374 0.00938165 0 0 0 0.0146283 0.00329887 0.0176474 5.55494e-19 -2.53692e-07 -1.35713e-06 0 0 0 0 0 0 0 0 0 0 0 0 0 0 0 0 49 0.0008 0 
4325 3 0.00250679 -0.0601971 0.00959707 0 0 0 -0.00336706 -0.000767539 -0.004106 -5.63501e-15 -2.53577e-07 -1.35715e-06 0 0 0 0 0 0 0 0 0 0 0 0 0 0 0 0 90 0.0008 0 
12874 9 0.0110077 -0.0601634 0.00977753 0 0 0 0.0127565 0.00187932 0.0100535 3.85765e-19 -2.53692e-07 -1.35713e-06 0 0 0 0 0 0 0 0 0 0 0 0 0 0 0 0 25 0.0008 0 
10425 1 0.00105128 -0.0600579 0.0103418 0 0 0 6.38685e-05 -0.000987599 -0.00522944 -1.42488e-09 -6.85018e-07 -1.24451e-06 0 0 0 0 0 0 0 0 0 0 0 0 0 0 0 0 46 0.0008 0 
2858 2 0.00396749 -0.0600513 0.0103774 0 0 0 -0.000589096 -0.00156277 -0.00832844 1.63822e-08 4.65894e-06 -2.42915e-06 0 0 0 0 0 0 0 0 0 0 0 0 0 0 0 0 67 0.0008 0 
13823 5 0.00575354 -0.0599861 0.0107261 0 0 0 -0.00946015 -0.00307846 -0.0164683 9.65061e-19 -2.53692e-07 -1.35713e-06 0 0 0 0 0 0 0 0 0 0 0 0 0 0 0 0 7 0.0008 0 
5875 2 0.00784661 -0.0599275 0.0110393 0 0 0 -0.00182086 -0.000667621 -0.00357145 4.50503e-19 -2.53692e-07 -1.35713e-06 0 0 0 0 0 0 0 0 0 0 0 0 0 0 0 0 40 0.0008 0 
3877 5 0.00912946 -0.0601187 0.0100167 0 0 0 0.000627919 -0.000575535 -0.00307884 -1.54313e-19 -2.53692e-07 -1.35713e-06 0 0 0 0 0 0 0 0 0 0 0 0 0 0 0 0 55 0.0008 0 
11656 4 0.0152855 -0.0600656 0.0103006 0 0 0 0.00652359 0.00615015 0.0329003 1.47655e-19 -2.53692e-07 -1.35713e-06 0 0 0 0 0 0 0 0 0 0 0 0 0 0 0 0 44 0.0008 0 
6493 9 0.0168936 -0.0600009 0.010647 0 0 0 0.0108875 0.0050217 0.0268637 1.60894e-16 -2.53694e-07 -1.35713e-06 0 0 0 0 0 0 0 0 0 0 0 0 0 0 0 0 36 0.0008 0 
7315 2 0.000916155 -0.059765 0.0119089 0 0 0 0.00346968 -0.000887547 -0.0046754 -7.18256e-09 5.45954e-07 -1.44041e-06 0 0 0 0 0 0 0 0 0 0 0 0 0 0 0 0 25 0.0008 0 
5016 1 0.00337454 -0.0597461 0.0120098 0 0 0 0.0207773 -0.00151398 -0.00809906 5.44907e-19 -2.53692e-07 -1.35713e-06 0 0 0 0 0 0 0 0 0 0 0 0 0 0 0 0 45 0.0008 0 
8267 8 0.00914907 -0.0597513 0.011982 0 0 0 -0.013285 0.00328303 0.0175626 5.66167e-18 -2.53692e-07 -1.35713e-06 0 0 0 0 0 0 0 0 0 0 0 0 0 0 0 0 33 0.0008 0 
13214 1 0.0118538 -0.0598729 0.0113318 0 0 0 0.004738 -0.00599098 -0.0320489 -8.25692e-19 -2.53692e-07 -1.35713e-06 0 0 0 0 0 0 0 0 0 0 0 0 0 0 0 0 9 0.0008 0 
3491 3 0.0133387 -0.0597321 0.0120848 0 0 0 -0.00758177 0.00526338 0.0281566 2.33848e-19 -2.53692e-07 -1.35713e-06 0 0 0 0 0 0 0 0 0 0 0 0 0 0 0 0 45 0.0008 0 
6053 1 0.015464 -0.0597332 0.012079 0 0 0 0.0464917 -0.00541485 -0.0289669 6.65138e-18 -2.53692e-07 -1.35713e-06 0 0 0 0 0 0 0 0 0 0 0 0 0 0 0 0 45 0.0008 0 
10974 3 0.0180816 -0.0597899 0.0117755 0 0 0 0.0208817 0.00419308 0.022431 2.69102e-16 -2.5369e-07 -1.35713e-06 0 0 0 0 0 0 0 0 0 0 0 0 0 0 0 0 18 0.0008 0 
11817 5 0.00958458 -0.0576185 0.0119022 0 0 0 -0.0637557 3.45497 14.2837 0 -1.05196e-05 0 0 0 0 0 0 0 0 0 0 0 0 0 0 0 0 0 30 0.0008 0 
13272 1 0.00523745 -0.0595485 0.013067 0 0 0 -3.28737e-05 0.00165684 0.00886333 6.34594e-19 -2.53692e-07 -1.35713e-06 0 0 0 0 0 0 0 0 0 0 0 0 0 0 0 0 9 0.0008 0 
11158 7 0.00685226 -0.0595501 0.0130585 0 0 0 0.00533116 -0.000213334 -0.00393001 -1.20519e-06 -4.00375e-07 2.75165e-06 0 0 0 0 0 0 0 0 0 0 0 0 0 0 0 0 16 0.0008 0 
7002 9 0.0108445 -0.0595553 0.0130307 0 0 0 0.0117147 -0.00425426 -0.0227583 6.20493e-20 -2.53692e-07 -1.35713e-06 0 0 0 0 0 0 0 0 0 0 0 0 0 0 0 0 44 0.0008 0 
2953 2 0.000939712 -0.0594693 0.0134905 0 0 0 0.000672912 -0.00167426 -0.00895649 9.00886e-19 -2.53692e-07 -1.35713e-06 0 0 0 0 0 0 0 0 0 0 0 0 0 0 0 0 49 0.0008 0 
5294 10 0.00331659 -0.0593536 0.0141096 0 0 0 0.0252447 0.00058504 0.00312968 7.80576e-19 -2.53692e-07 -1.35713e-06 0 0 0 0 0 0 0 0 0 0 0 0 0 0 0 0 44 0.0008 0 
2150 5 0.00858717 -0.0594558 0.0135626 0 0 0 0.00434107 0.00540457 0.0289119 -4.08222e-20 -2.53692e-07 -1.35713e-06 0 0 0 0 0 0 0 0 0 0 0 0 0 0 0 0 41 0.0008 0 