ITEM: TIMESTEP
10700000
ITEM: NUMBER OF ATOMS
1308
ITEM: BOX BOUNDS ff ff ff
-0.01 0.45
-0.15 0.15
-0.08 0.1
ITEM: ATOMS id type x y z ix iy iz vx vy vz fx fy fz c_cc_1 c_cc_2 c_cc_3 c_cc_4 c_cc_5 c_cc_6 c_cc_7 c_cc_8 c_cc_9 c_cc_10 c_cc_11 c_cc_12 c_cc_13 c_cc_14 c_cc_15 c_cc_16 f_fppacc radius 
1332 5 0.0116203 -0.0516027 0.0259202 0 0 0 -0.266942 7.92853 17.6482 0 -0.000164368 0 0 0 0 0 0 0 0 0 0 0 0 0 0 0 0 0 0 0.002 
524 5 0.0133894 -0.00843618 -0.0572173 0 0 0 1.22559 -3.46967 0.475478 -0.00319075 -0.00169851 -0.00407989 0 0 0 0 0 0 0 0 0 0 0 0 0 0 0 0 39 0.002 
1323 9 0.00712954 -0.022124 -0.0393691 0 0 0 -3.69117 -23.8668 13.1531 0 -0.000164368 0 0 0 0 0 0 0 0 0 0 0 0 0 0 0 0 0 0 0.002 
1334 15 0.00709019 -0.0102838 0.0567617 0 0 0 7.31808 40.2994 8.62612 0 -0.000164368 0 0 0 0 0 0 0 0 0 0 0 0 0 0 0 0 0 0 0.002 
417 1 0.0144055 0.0341219 0.0392992 0 0 0 0.452433 -0.587994 0.978861 0 -0.000164368 0 0 0 0 0 0 0 0 0 0 0 0 0 0 0 0 0 60 0.002 
1219 5 0.00593495 0.0331377 0.0437434 0 0 0 0.0996317 -0.813614 1.24419 0 -0.000164368 0 0 0 0 0 0 0 0 0 0 0 0 0 0 0 0 0 2 0.002 
41 1 0.0151238 0.052857 -0.0355 0 0 0 -2.22552e-308 -1.20388e-19 6.71706e-12 4.37534e-308 0 0 0 0 0 0 0 0 0 0 0 0 0 0 0 0 0 0 2 0.002 
823 9 0.00447715 0.0730331 -0.0316368 0 0 0 0.992827 -0.780284 1.08869 0 -0.000164368 0 0 0 0 0 0 0 0 0 0 0 0 0 0 0 0 0 22 0.002 
396 3 0.0147555 0.0732553 -0.0302564 0 0 0 -0.308275 3.41956 1.02861 0 -0.000164368 0 0 0 0 0 0 0 0 0 0 0 0 0 0 0 0 0 52 0.002 
545 9 0.00626723 0.0706292 -0.024207 0 0 0 1.64936 1.46341 0.35125 0 -0.000164368 0 0 0 0 0 0 0 0 0 0 0 0 0 0 0 0 0 51 0.002 
1200 1 0.00826345 0.0578588 -0.0183295 0 0 0 0.461402 -0.491526 0.582381 0 -0.000164368 0 0 0 0 0 0 0 0 0 0 0 0 0 0 0 0 0 11 0.002 
1176 6 0.0142632 0.0715905 -0.00733747 0 0 0 0.0523281 0.110018 -1.95101 0 -0.000164368 0 0 0 0 0 0 0 0 0 0 0 0 0 0 0 0 0 16 0.002 
705 14 0.00540919 0.0681209 -0.00509228 0 0 0 1.5426 0.253591 1.6316 0 -0.000164368 0 0 0 0 0 0 0 0 0 0 0 0 0 0 0 0 0 45 0.002 
695 2 0.00997912 0.0553463 0.00043636 0 0 0 -0.187421 -1.76995 -0.985312 0 -0.000164368 0 0 0 0 0 0 0 0 0 0 0 0 0 0 0 0 0 36 0.002 
362 1 0.00892932 0.0646728 0.00995496 0 0 0 -0.418568 -0.0856819 -0.830186 0 -0.000164368 0 0 0 0 0 0 0 0 0 0 0 0 0 0 0 0 0 28 0.002 
1336 7 0.00379807 0.0520734 0.0255081 0 0 0 5.30739 14.0987 -24.785 0 -0.000164368 0 0 0 0 0 0 0 0 0 0 0 0 0 0 0 0 0 0 0.002 
1057 3 0.00648615 0.0693241 0.011118 0 0 0 1.59344 0.480984 0.940519 0 -0.000164368 0 0 0 0 0 0 0 0 0 0 0 0 0 0 0 0 0 14 0.002 
1186 8 0.0111249 0.06227 0.021058 0 0 0 0.520678 -0.925422 0.671058 0 -0.000164368 0 0 0 0 0 0 0 0 0 0 0 0 0 0 0 0 0 18 0.002 
314 6 0.0142892 0.0664632 0.0195017 0 0 0 0.237554 -0.334383 -0.136604 0 -0.000164368 0 0 0 0 0 0 0 0 0 0 0 0 0 0 0 0 0 33 0.002 
718 11 0.010173 0.0668024 0.025211 0 0 0 -0.663696 -0.186752 0.335167 0 -0.000164368 0 0 0 0 0 0 0 0 0 0 0 0 0 0 0 0 0 53 0.002 
338 6 0.0122046 0.0714448 0.0254307 0 0 0 0.193344 -0.127363 0.11409 -0.000210305 -0.000248164 -0.00154253 0 0 0 0 0 1 0 0 0 0 0 0 0 0 0 0 48 0.002 
1044 10 0.0161063 0.0746552 0.0235731 0 0 0 -0.274913 -0.0219116 -0.0176567 0 -0.000164368 0 0 0 0 0 0 0 0 0 0 0 0 0 0 0 0 0 25 0.002 
1328 5 0.0129577 0.0558564 0.0286045 0 0 0 -0.538295 -2.89619 2.25455 0 -0.000164368 0 0 0 0 0 0 0 0 0 0 0 0 0 0 0 0 0 0 0.002 
344 1 0.00324291 0.0593713 0.0267612 0 0 0 -0.877208 -0.385716 -0.439302 0 -0.000164368 0 0 0 0 0 0 0 0 0 0 0 0 0 0 0 0 0 42 0.002 
999 5 0.0148338 0.0654953 0.0268958 0 0 0 -0.549097 -0.283049 0.304322 0 -0.000164368 0 0 0 0 0 0 0 0 0 0 0 0 0 0 0 0 0 32 0.002 
627 2 0.00741133 0.0692048 0.027818 0 0 0 0.128024 -0.204215 -0.0484925 0 -0.000164368 0 0 0 0 0 0 0 0 0 0 0 0 0 0 0 0 0 45 0.002 
397 3 0.00305413 0.0740216 0.0271455 0 0 0 0.0141494 -0.165659 -0.0941446 0 -0.000164368 0 0 0 0 0 0 0 0 0 0 0 0 0 0 0 0 0 66 0.002 
329 7 0.00823547 0.0636786 0.0292487 0 0 0 -1.84871 -0.161258 1.16012 0.0454611 -0.0247929 -0.0694403 0 0 0 0 0 0 1 0 0 0 0 0 0 0 0 0 56 0.002 
1138 3 0.00487943 0.0658371 0.0294596 0 0 0 -0.0854841 -0.195269 -0.0789907 -0.0454611 0.0244642 0.0694403 0 0 0 0 0 0 1 0 0 0 0 0 0 0 0 0 10 0.002 
922 5 0.0176772 0.0681977 0.0288303 0 0 0 -0.0145209 -0.497871 0.323302 0 -0.000164368 0 0 0 0 0 0 0 0 0 0 0 0 0 0 0 0 0 27 0.002 
1172 8 0.0111565 0.0707525 0.0292204 0 0 0 -0.178976 0.0246479 0.0982727 0.000362902 0.000123484 0.000650062 0 0 0 0 0 1 0 1 0 0 0 0 0 0 0 0 26 0.002 
1103 1 0.0151878 0.0724737 0.0281928 0 0 0 0.00398101 -0.267763 0.224312 0.000213049 7.74365e-05 -0.00179762 1 0 0 0 0 0 0 0 0 0 0 0 0 0 0 0 29 0.002 
324 5 0.0122413 0.0665187 0.0302924 0 0 0 0.0228152 -0.303229 -0.0694339 0 -0.000164368 0 0 0 0 0 0 0 0 0 0 0 0 0 0 0 0 0 52 0.002 
378 2 0.00317323 0.0687914 0.0316748 0 0 0 0.0325623 -0.120624 -0.0753436 0 -0.000164368 0 0 0 0 0 0 0 0 0 0 0 0 0 0 0 0 0 41 0.002 
1122 1 0.00866521 0.0688242 0.031711 0 0 0 -0.0500098 -0.200827 0.156078 0 -0.000164368 0 0 0 0 0 0 0 0 0 0 0 0 0 0 0 0 0 28 0.002 
749 4 0.0161417 0.0708524 0.0317211 0 0 0 0.019654 -0.216924 0.18781 -0.000213049 -0.000406173 0.00179762 1 0 0 0 0 0 0 0 0 0 0 0 0 0 0 0 47 0.002 
923 10 0.0031824 0.0727966 0.0312394 0 0 0 0.00918735 -0.0931487 -0.0108227 0 -0.000164368 0 0 0 0 0 0 0 0 0 0 0 0 0 0 0 0 0 31 0.002 
1206 3 0.00733513 0.0728123 0.0324561 0 0 0 0.016066 -0.177754 0.102502 0 -0.000164368 0 0 0 0 0 0 0 0 0 0 0 0 0 0 0 0 0 22 0.002 
403 8 0.0127053 0.0741145 0.0320076 0 0 0 -0.0828733 -0.122615 0.00701022 0.000888942 -0.000306587 0.000313528 0 0 0 0 0 0 0 2 0 0 0 0 0 0 0 0 51 0.002 
92 2 0.0151011 0.0671998 0.0330051 0 0 0 0.0258689 -0.270735 -0.0128725 -0.000500564 0.00203362 -0.00450853 0 0 0 0 0 0 0 0 0 0 0 0 0 0 0 0 59 0.002 
1023 1 0.0123079 0.0701832 0.0330018 0 0 0 0.0572447 -0.110706 0.0627279 -0.00370394 0.00298516 -0.00436426 0 0 0 0 0 0 0 1 0 0 0 0 0 0 0 0 35 0.002 
114 6 0.0165456 0.0746387 0.0329943 0 0 0 -0.080738 -0.0786373 -0.0248375 5.2424e-05 -0.000183076 1.80351e-05 0 0 0 0 0 0 0 1 0 0 0 0 0 0 0 0 42 0.002 
911 6 0.0151007 0.10025 -0.0324215 0 0 0 0.862539 -0.424368 0.363794 0 -0.000164368 0 0 0 0 0 0 0 0 0 0 0 0 0 0 0 0 0 27 0.002 
896 1 0.0072909 0.10086 -0.0322279 0 0 0 -0.95122 -1.11447 0.522347 0 -0.000164368 0 0 0 0 0 0 0 0 0 0 0 0 0 0 0 0 0 38 0.002 
1191 3 0.0038138 0.104153 -0.0317901 0 0 0 0.785989 -0.267928 1.27019 -4.01943e-05 -0.0816809 0.00789077 0 0 1 0 0 0 0 0 0 0 0 0 0 0 0 0 31 0.002 
971 2 0.00305884 0.107965 -0.0322927 0 0 0 -0.251374 -0.0161302 -0.619795 4.01943e-05 0.0813522 -0.00789077 0 0 1 0 0 0 0 0 0 0 0 0 0 0 0 0 25 0.002 
988 10 0.00740517 0.106409 -0.0317995 0 0 0 1.22393 1.03752 0.512733 0 -0.000164368 0 0 0 0 0 0 0 0 0 0 0 0 0 0 0 0 0 21 0.002 
870 2 0.0151449 0.106509 -0.0314327 0 0 0 0.156439 0.826095 0.601225 0 -0.000164368 0 0 0 0 0 0 0 0 0 0 0 0 0 0 0 0 0 4 0.002 
188 6 0.00443501 0.0761936 -0.0277228 0 0 0 0.544796 -0.757679 -0.758184 0 -0.000164368 0 0 0 0 0 0 0 0 0 0 0 0 0 0 0 0 0 53 0.002 
369 6 0.00549934 0.0811763 -0.0281719 0 0 0 -0.597295 1.33604 0.0972318 0 -0.000164368 0 0 0 0 0 0 0 0 0 0 0 0 0 0 0 0 0 40 0.002 
763 3 0.0145434 0.084929 -0.0283832 0 0 0 -2.46824 2.40436 0.758375 0 -0.000164368 0 0 0 0 0 0 0 0 0 0 0 0 0 0 0 0 0 51 0.002 
526 2 0.00715021 0.0985245 -0.0289594 0 0 0 0.827993 -1.50044 0.245814 0 -0.000164368 0 0 0 0 0 0 0 0 0 0 0 0 0 0 0 0 0 34 0.002 
477 2 0.00636892 0.102489 -0.0272015 0 0 0 0.177972 -0.896117 1.44204 0 -0.000164368 0 0 0 0 0 0 0 0 0 0 0 0 0 0 0 0 0 15 0.002 
431 5 0.0112747 0.105504 -0.0272721 0 0 0 1.10881 -0.873032 -0.0797813 0 -0.000164368 0 0 0 0 0 0 0 0 0 0 0 0 0 0 0 0 0 13 0.002 
1193 8 0.0174869 0.095082 -0.0117749 0 0 0 -4.3295 6.64795 -1.52205 0 -0.000164368 0 0 0 0 0 0 0 0 0 0 0 0 0 0 0 0 0 27 0.002 
1212 1 0.0135463 0.101531 -0.0257923 0 0 0 -0.0497339 -0.215184 -0.525652 0 -0.000164368 0 0 0 0 0 0 0 0 0 0 0 0 0 0 0 0 0 10 0.002 
77 12 0.00482809 0.106257 -0.0254989 0 0 0 -0.798948 -0.177544 -0.748991 0 -0.000164368 0 0 0 0 0 0 0 0 0 0 0 0 0 0 0 0 0 55 0.002 
995 2 0.017443 0.0808924 -0.0259166 0 0 0 -1.95374 3.70959 -6.2015 0 -0.000164368 0 0 0 0 0 0 0 0 0 0 0 0 0 0 0 0 0 21 0.002 
539 8 0.00771442 0.0892523 -0.0207663 0 0 0 0.683304 -1.71891 1.59186 0 -0.000164368 0 0 0 0 0 0 0 0 0 0 0 0 0 0 0 0 0 34 0.002 
1320 5 0.0106367 0.0931601 -0.0237092 0 0 0 -1.46708 1.4945 -3.67722 0 -0.000164368 0 0 0 0 0 0 0 0 0 0 0 0 0 0 0 0 0 1 0.002 
209 9 0.0172608 0.0971906 -0.0204546 0 0 0 -1.54713 0.595424 0.931016 0 -0.000164368 0 0 0 0 0 0 0 0 0 0 0 0 0 0 0 0 0 10 0.002 
972 3 0.00963652 0.103255 -0.0222808 0 0 0 -0.873863 0.278237 -2.21162 0 -0.000164368 0 0 0 0 0 0 0 0 0 0 0 0 0 0 0 0 0 26 0.002 
974 2 0.00303305 0.106015 -0.021408 0 0 0 0.0807642 0.236852 0.248392 0 -0.000164368 0 0 0 0 0 0 0 0 0 0 0 0 0 0 0 0 0 33 0.002 
245 1 0.0116365 0.107965 -0.0219963 0 0 0 -0.403101 -0.458966 -1.48969 0 -0.000164368 0 0 0 0 0 0 0 0 0 0 0 0 0 0 0 0 0 34 0.002 
898 1 0.0144137 0.104083 -0.0190534 0 0 0 -0.973361 1.20994 -0.88507 0.00436545 -0.0629498 0.00542142 1 0 0 0 0 0 0 0 0 0 0 0 0 0 0 0 20 0.002 
182 2 0.0149984 0.107814 -0.0177964 0 0 0 -0.373203 -0.0674606 0.0651073 -0.00436545 0.0626211 -0.00542142 1 0 0 0 0 0 0 0 0 0 0 0 0 0 0 0 48 0.002 
508 9 0.0157169 0.100455 -0.0173623 0 0 0 0.27831 0.533596 -0.958059 0 -0.000164368 0 0 0 0 0 0 0 0 0 0 0 0 0 0 0 0 0 60 0.002 
1314 3 0.00333087 0.101944 -0.0171816 0 0 0 -0.172149 0.547601 -0.895746 -0.0698723 0.018186 -0.0038213 0 0 1 0 0 0 0 0 0 0 0 0 0 0 0 0 1 0.002 
1279 4 0.0071917 0.101252 -0.0170886 0 0 0 0.375086 -0.0565894 -1.06504 0.0698723 -0.0185148 0.0038213 0 0 1 0 0 0 0 0 0 0 0 0 0 0 0 0 6 0.002 
790 3 0.00550533 0.107599 -0.0168221 0 0 0 -0.31521 -0.135597 -0.273428 0 -0.000164368 0 0 0 0 0 0 0 0 0 0 0 0 0 0 0 0 0 37 0.002 
1312 4 0.0155605 0.105271 -0.0131558 0 0 0 0.29345 -0.528763 0.108714 0 -0.000164368 0 0 0 0 0 0 0 0 0 0 0 0 0 0 0 0 0 1 0.002 
956 1 0.0083863 0.103039 -0.0110194 0 0 0 -0.234546 -0.692835 0.0050057 0 -0.000164368 0 0 0 0 0 0 0 0 0 0 0 0 0 0 0 0 0 12 0.002 
1195 2 0.0125687 0.0770486 -0.00980701 0 0 0 -4.04568 -0.258689 0.611239 0 -0.000164368 0 0 0 0 0 0 0 0 0 0 0 0 0 0 0 0 0 0 0.002 
536 2 0.00315621 0.096375 -0.0103519 0 0 0 -0.115831 -0.176689 -0.410221 0 -0.000164368 0 0 0 0 0 0 0 0 0 0 0 0 0 0 0 0 0 41 0.002 
735 8 0.00511453 0.10624 -0.0104596 0 0 0 -0.104427 -0.161671 -0.182922 0 -0.000164368 0 0 0 0 0 0 0 0 0 0 0 0 0 0 0 0 0 24 0.002 
311 2 0.0150989 0.107487 -0.00940839 0 0 0 0.0911335 -0.14067 -0.0309469 0 -0.000164368 0 0 0 0 0 0 0 0 0 0 0 0 0 0 0 0 0 48 0.002 
1111 4 0.00985423 0.0892238 -0.00701789 0 0 0 -0.299404 -1.82129 0.995043 0 -0.000164368 0 0 0 0 0 0 0 0 0 0 0 0 0 0 0 0 0 14 0.002 
515 5 0.00505669 0.0991969 -0.00669564 0 0 0 -0.0575849 -0.394438 0.674397 0 -0.000164368 0 0 0 0 0 0 0 0 0 0 0 0 0 0 0 0 0 46 0.002 
453 3 0.00300866 0.104053 -0.00704311 0 0 0 -0.0954708 -0.0981482 -0.0963553 0 -0.000164368 0 0 0 0 0 0 0 0 0 0 0 0 0 0 0 0 0 34 0.002 
1152 2 0.00701222 0.104351 -0.00735508 0 0 0 0.0656311 -0.17597 -0.00573271 0 -0.000164368 0 0 0 0 0 0 0 0 0 0 0 0 0 0 0 0 0 8 0.002 
121 2 0.0187128 0.106527 -0.00785442 0 0 0 0.140228 -0.347863 0.122884 0 -0.000164368 0 0 0 0 0 0 0 0 0 0 0 0 0 0 0 0 0 51 0.002 
368 5 0.00876722 0.107931 -0.00834787 0 0 0 -0.379334 -0.0520853 -0.0138291 0 -0.000164368 0 0 0 0 0 0 0 0 0 0 0 0 0 0 0 0 0 43 0.002 
213 4 0.0181941 0.0809714 0.000342875 0 0 0 -0.951513 -1.05135 8.91507 0 -0.000164368 0 0 0 0 0 0 0 0 0 0 0 0 0 0 0 0 0 47 0.002 
1319 2 0.00548067 0.0868402 -0.00606949 0 0 0 -0.326497 -0.517038 -1.13469 0 -0.000164368 0 0 0 0 0 0 0 0 0 0 0 0 0 0 0 0 0 1 0.002 
1137 1 0.0092928 0.0995796 -0.00521944 0 0 0 0.284098 0.00141725 -0.335297 0 -0.000164368 0 0 0 0 0 0 0 0 0 0 0 0 0 0 0 0 0 3 0.002 
1064 5 0.0131032 0.102882 -0.0046762 0 0 0 -0.0488387 0.540718 0.916875 0 -0.000164368 0 0 0 0 0 0 0 0 0 0 0 0 0 0 0 0 0 25 0.002 
1154 12 0.0123009 0.106858 -0.0055465 0 0 0 0.0296791 0.634574 0.523602 0 -0.000164368 0 0 0 0 0 0 0 0 0 0 0 0 0 0 0 0 0 14 0.002 
1043 8 0.00357385 0.107895 -0.0059925 0 0 0 -0.0751475 -0.0478056 0.0221055 0 -0.000164368 0 0 0 0 0 0 0 0 0 0 0 0 0 0 0 0 0 13 0.002 
553 7 0.0161578 0.107896 -0.00507121 0 0 0 0.152738 -0.19471 0.0219892 0 -0.000164368 0 0 0 0 0 0 0 0 0 0 0 0 0 0 0 0 0 40 0.002 
677 9 0.00590815 0.0901659 -0.0024 0 0 0 -0.49167 -0.134032 -0.681809 0 -0.000164368 0 0 0 0 0 0 0 0 0 0 0 0 0 0 0 0 0 68 0.002 
1115 2 0.00461179 0.0953458 -0.00216811 0 0 0 -0.43384 -0.974371 1.70331 0 -0.000164368 0 0 0 0 0 0 0 0 0 0 0 0 0 0 0 0 0 20 0.002 
835 12 0.00910144 0.0938187 -0.00105462 0 0 0 0.264817 -0.304425 2.09354 0 -0.000164368 0 0 0 0 0 0 0 0 0 0 0 0 0 0 0 0 0 33 0.002 
416 5 0.00419923 0.103061 -0.0022794 0 0 0 0.0328996 0.129791 0.075451 0 -0.000164368 0 0 0 0 0 0 0 0 0 0 0 0 0 0 0 0 0 52 0.002 
621 4 0.00306953 0.107994 -0.00170164 0 0 0 0.0573911 -0.0160301 0.0259265 0 -0.000164368 0 0 0 0 0 0 0 0 0 0 0 0 0 0 0 0 0 39 0.002 
337 8 0.00669561 0.108007 -0.0034054 0 0 0 0.028463 0.0841341 -0.00744566 0.00271057 -0.0168738 -0.0079028 0 0 0 0 0 0 0 0 0 0 0 0 0 0 0 0 44 0.002 
552 8 0.0106519 0.108007 -0.00185721 0 0 0 0.118853 -0.272889 0.124555 -0.00134047 0.0164326 0.000954618 0 0 0 0 0 0 0 1 0 0 0 0 0 0 0 0 59 0.002 
1110 7 0.0138404 0.0972402 -0.00126082 0 0 0 0.712636 0.206483 -0.231651 0 -0.000164368 0 0 0 0 0 0 0 0 0 0 0 0 0 0 0 0 0 19 0.002 
962 6 0.0138968 0.104418 0.000834139 0 0 0 -0.0862234 -0.0126113 0.240484 4.32788e-05 9.26412e-05 -0.000368186 0 0 0 0 0 0 0 0 0 0 0 0 0 0 0 0 35 0.002 
4 6 0.0145654 0.10788 -0.00105305 0 0 0 0.0854562 -0.0156456 0.242217 -0.00227809 -0.000284672 -0.014224 0 0 0 0 0 1 0 1 0 0 0 0 0 0 0 0 34 0.002 
548 4 0.00372856 0.098035 0.00265899 0 0 0 -0.00605678 -0.0294059 -0.297384 0 -0.000164368 0 0 0 0 0 0 0 0 0 0 0 0 0 0 0 0 0 45 0.002 
1280 1 0.00706512 0.100279 0.00229224 0 0 0 0.0838902 0.163856 -0.234902 -0.0541929 0.0963451 -0.0796549 1 0 0 0 0 0 0 0 0 0 0 0 0 0 0 0 1 0.002 
240 1 0.00379537 0.105189 0.00128857 0 0 0 0.0893206 0.128453 0.090374 0 -0.000164368 0 0 0 0 0 0 0 0 0 0 0 0 0 0 0 0 0 44 0.002 
1100 2 0.0100197 0.103315 0.00112583 0 0 0 -0.0542121 -0.211808 0.256836 0 -0.000164368 0 0 0 0 0 0 0 0 0 0 0 0 0 0 0 0 0 13 0.002 
583 1 0.0161931 0.10779 0.00258165 0 0 0 -0.00794221 -0.0356828 0.200227 -0.00017915 -0.00351853 -0.00316351 1 0 0 0 0 1 0 0 0 0 0 0 0 0 0 0 53 0.002 
731 2 0.00774018 0.107863 0.00117314 0 0 0 -0.224794 0.0239292 0.42276 0.00359456 0.00437922 -0.00874536 0 1 0 0 0 0 0 0 0 0 0 0 0 0 0 0 29 0.002 
278 11 0.00434364 0.0777952 0.0031782 0 0 0 -0.0126424 -0.795012 -0.741308 0 -0.000164368 0 0 0 0 0 0 0 0 0 0 0 0 0 0 0 0 0 49 0.002 
1289 4 0.0030889 0.0942538 0.00414507 0 0 0 -0.9077 0.593264 -0.764213 0 -0.000164368 0 0 0 0 0 0 0 0 0 0 0 0 0 0 0 0 0 1 0.002 
821 3 0.0099784 0.098385 0.00415016 0 0 0 -0.0563983 0.651048 -0.88453 0.0541929 -0.0966739 0.0796549 1 0 0 0 0 0 0 0 0 0 0 0 0 0 0 0 31 0.002 
845 3 0.0156561 0.0994964 0.00455177 0 0 0 0.647065 0.268979 0.105786 0 -0.000164368 0 0 0 0 0 0 0 0 0 0 0 0 0 0 0 0 0 33 0.002 
1196 5 0.00318685 0.102379 0.00410264 0 0 0 0.049957 0.081114 0.105208 0 -0.000164368 0 0 0 0 0 0 0 0 0 0 0 0 0 0 0 0 0 9 0.002 
732 4 0.00712212 0.10474 0.00357631 0 0 0 0.099238 -0.14795 0.159175 -0.00359456 -0.00470796 0.00874536 0 1 0 0 0 0 0 0 0 0 0 0 0 0 0 0 41 0.002 
933 1 0.0124511 0.104638 0.00488657 0 0 0 -0.0548444 0.132649 0.167422 0.0306362 0.0519476 -0.00635006 2 0 0 0 0 0 0 0 0 0 0 0 0 0 0 0 30 0.002 
411 1 0.0179328 0.105123 0.00515524 0 0 0 -0.310524 -0.433563 0.27026 0 -0.000164368 0 0 0 0 0 0 0 0 0 0 0 0 0 0 0 0 0 4 0.002 
961 1 0.00300556 0.107821 0.00423602 0 0 0 0.000691599 0.0953687 0.108794 0 -0.000164368 0 0 0 0 0 0 0 0 0 0 0 0 0 0 0 0 0 17 0.002 
480 3 0.0181291 0.0789856 0.00755488 0 0 0 -0.743686 -0.30704 -0.187115 0 -0.000164368 0 0 0 0 0 0 0 0 0 0 0 0 0 0 0 0 0 42 0.002 
179 1 0.0031475 0.0897448 0.00666175 0 0 0 0.0785206 -0.244883 -0.102766 0 -0.000164368 0 0 0 0 0 0 0 0 0 0 0 0 0 0 0 0 0 37 0.002 
488 6 0.00718188 0.0919777 0.00498657 0 0 0 0.12828 0.500008 -1.17207 0 -0.000164368 0 0 0 0 0 0 0 0 0 0 0 0 0 0 0 0 0 50 0.002 
20 3 0.00661888 0.100253 0.00631493 0 0 0 0.111599 0.188966 -0.0105151 0 -0.000164368 0 0 0 0 0 0 0 0 0 0 0 0 0 0 0 0 0 43 0.002 
836 4 0.0114565 0.101311 0.00678653 0 0 0 -0.0357325 0.216599 0.0668777 -0.0307398 -0.0529285 0.00581807 1 0 0 0 0 0 0 0 0 0 0 0 0 0 0 0 41 0.002 
1149 4 0.00464148 0.10514 0.00673679 0 0 0 0.0951333 0.0284705 0.0674674 0.000749383 -0.000228236 -0.000591087 0 0 0 2 0 0 0 0 0 0 0 0 0 0 0 0 4 0.002 
1311 3 0.00848294 0.104219 0.00742666 0 0 0 0.0561021 -0.023192 0.0792361 0 -0.000164368 0 0 0 0 0 0 0 0 0 0 0 0 0 0 0 0 0 0 0.002 
493 5 0.00889625 0.107833 0.00551684 0 0 0 0.0504861 -0.0428443 0.0831064 0 -0.000164368 0 0 0 0 0 0 0 0 0 0 0 0 0 0 0 0 0 54 0.002 
1185 6 0.0152078 0.107782 0.00644185 0 0 0 -0.0704307 -0.0616484 0.0590366 0.00703378 0.00571607 0.0132705 1 0 0 0 0 2 0 0 0 0 0 0 0 0 0 0 12 0.002 
1192 2 0.015306 0.0758185 0.00750678 0 0 0 -1.28612 -0.211525 -0.796067 0 -0.000164368 0 0 0 0 0 0 0 0 0 0 0 0 0 0 0 0 0 14 0.002 
1009 1 0.00503924 0.0972299 0.00872246 0 0 0 -0.595731 0.250175 0.00254938 0 -0.000164368 0 0 0 0 0 0 0 0 0 0 0 0 0 0 0 0 0 13 0.002 
892 5 0.00315456 0.101692 0.00810448 0 0 0 0.0795235 0.0022006 0.0672609 0.000514499 -0.00526495 -0.00403747 0 0 0 1 0 0 0 0 0 0 0 0 0 0 0 0 29 0.002 
1299 5 0.0164421 0.103087 0.00905685 0 0 0 0.103889 -0.187468 0.109374 0 -0.000164368 0 0 0 0 0 0 0 0 0 0 0 0 0 0 0 0 0 2 0.002 
967 2 0.0119598 0.106512 0.00838023 0 0 0 -0.00368314 -0.0191285 0.297326 -0.00382501 0.000521069 0.00136489 1 0 0 0 0 1 0 0 0 0 0 0 0 0 0 0 20 0.002 
920 3 0.00302878 0.108001 0.00900571 0 0 0 0.0139659 0.0696267 0.102455 0.00456163 -0.00383907 -0.00610021 0 0 0 1 0 0 0 0 0 0 0 0 0 0 0 0 26 0.002 
1317 6 0.00743157 0.107817 0.00940126 0 0 0 0.0615408 -0.0173655 0.0817161 0 -0.000164368 0 0 0 0 0 0 0 0 0 0 0 0 0 0 0 0 0 1 0.002 
635 4 0.00470209 0.0752137 -0.00146791 0 0 0 -2.72717 0.545674 -1.95774 0 -0.000164368 0 0 0 0 0 0 0 0 0 0 0 0 0 0 0 0 0 53 0.002 
803 4 0.0135714 0.0792964 0.0119174 0 0 0 0.146797 0.473445 -0.172015 0 -0.000164368 0 0 0 0 0 0 0 0 0 0 0 0 0 0 0 0 0 39 0.002 
262 3 0.00324932 0.0819045 0.0111638 0 0 0 -0.0407686 0.0192923 -0.184653 0 -0.000164368 0 0 0 0 0 0 0 0 0 0 0 0 0 0 0 0 0 40 0.002 
560 4 0.00371069 0.0893899 0.0113076 0 0 0 0.499829 0.268985 0.0574235 0.00449903 -0.0179308 -0.0182155 0 0 0 1 0 0 0 0 0 0 0 0 0 0 0 0 32 0.002 
533 4 0.00629916 0.0932557 0.0113724 0 0 0 -1.12805 0.0753512 -0.53824 0 -0.000164368 0 0 0 0 0 0 0 0 0 0 0 0 0 0 0 0 0 61 0.002 
1229 6 0.00311715 0.100558 0.0119866 0 0 0 -0.0253398 -0.0925399 0.0356497 0 -0.000164368 0 0 0 0 0 0 0 0 0 0 0 0 0 0 0 0 0 5 0.002 
297 3 0.00714547 0.100642 0.0103409 0 0 0 -0.0238654 -0.0982049 0.0925661 0 -0.000164368 0 0 0 0 0 0 0 0 0 0 0 0 0 0 0 0 0 43 0.002 
1218 8 0.0112631 0.100932 0.0108197 0 0 0 0.0100454 -0.0954518 0.0922238 0 -0.000164368 0 0 0 0 0 0 0 0 0 0 0 0 0 0 0 0 0 6 0.002 
998 5 0.00459214 0.104364 0.0106959 0 0 0 0.0506281 -0.0254196 0.0935286 -0.000563151 0.00463129 0.00402364 0 0 0 0 0 0 0 0 0 0 0 0 0 0 0 0 19 0.002 
1153 8 0.00922576 0.104285 0.0116171 0 0 0 0.095644 0.00219994 0.100186 0 -0.000164368 0 0 0 0 0 0 0 0 0 0 0 0 0 0 0 0 0 25 0.002 
641 1 0.0139741 0.10467 0.0122193 0 0 0 0.0507028 -0.0949809 0.0943998 0 -0.000164368 0 0 0 0 0 0 0 0 0 0 0 0 0 0 0 0 0 24 0.002 
1223 2 0.0156121 0.107955 0.0104109 0 0 0 0.0365711 0.00355341 0.0110161 0.000424553 -0.00395252 -0.00576136 0 2 0 0 0 0 0 0 0 0 0 0 0 0 0 0 6 0.002 
1071 3 0.00810821 0.0798665 0.0131229 0 0 0 -0.561551 0.674938 -0.164392 0 -0.000164368 0 0 0 0 0 0 0 0 0 0 0 0 0 0 0 0 0 17 0.002 
719 3 0.0107928 0.0836207 0.0126781 0 0 0 0.185124 0.263879 -0.276484 0 -0.000164368 0 0 0 0 0 0 0 0 0 0 0 0 0 0 0 0 0 33 0.002 
1077 1 0.00655847 0.0877531 0.0140385 0 0 0 -0.0935164 0.157817 -0.0129876 0 -0.000164368 0 0 0 0 0 0 0 0 0 0 0 0 0 0 0 0 0 14 0.002 
336 9 0.00308611 0.0917895 0.014408 0 0 0 -0.00241694 0.0409537 0.205942 -0.00449903 0.017602 0.0182155 0 0 0 1 0 0 0 0 0 0 0 0 0 0 0 0 48 0.002 
1008 4 0.0127872 0.092982 0.0136871 0 0 0 -0.246922 -0.127552 -0.116412 0.000944062 -0.00346204 -0.00427106 0 0 0 1 0 0 0 0 0 0 0 0 0 0 0 0 15 0.002 
726 1 0.00301808 0.0960752 0.0126378 0 0 0 -1.55537 0.79721 0.492488 0 -0.000164368 0 0 0 0 0 0 0 0 0 0 0 0 0 0 0 0 0 37 0.002 
721 5 0.0131014 0.0970099 0.0122536 0 0 0 -0.2207 0.167724 -0.146621 0 -0.000164368 0 0 0 0 0 0 0 0 0 0 0 0 0 0 0 0 0 37 0.002 
225 4 0.00637572 0.0993728 0.0140773 0 0 0 -0.014619 0.00264366 0.108969 -0.000820478 0.00469801 -0.0139927 0 0 0 2 0 0 0 0 0 0 0 0 0 0 0 0 24 0.002 
467 1 0.0149518 0.100617 0.0124888 0 0 0 0.266487 0.249605 -0.00703248 0 -0.000164368 0 0 0 0 0 0 0 0 0 0 0 0 0 0 0 0 0 42 0.002 
125 10 0.00303021 0.103956 0.0144997 0 0 0 -0.0578055 0.0248816 -0.024023 0.000301287 0.00115698 -0.0027931 0 0 0 0 0 0 0 0 0 1 0 0 0 0 0 0 44 0.002 
827 2 0.0064787 0.107212 0.0132568 0 0 0 0.000821796 -0.00159451 0.111092 0 -0.000164368 0 0 0 0 0 0 0 0 0 0 0 0 0 0 0 0 0 25 0.002 
1293 6 0.0113531 0.107859 0.0123381 0 0 0 0.0763179 -0.0338613 0.102104 0 -0.000164368 0 0 0 0 0 0 0 0 0 0 0 0 0 0 0 0 0 0 0.002 
626 1 0.0152098 0.108011 0.0143748 0 0 0 0.0672259 0.00460607 0.0226731 -0.00462153 0.00435648 -0.00196346 1 1 0 0 0 0 0 0 0 0 0 0 0 0 0 0 36 0.002 
1016 8 0.00528772 0.0776923 0.0150162 0 0 0 -0.413922 -0.252008 -0.393484 0 -0.000164368 0 0 0 0 0 0 0 0 0 0 0 0 0 0 0 0 0 28 0.002 
632 6 0.00517598 0.0824658 0.0163743 0 0 0 0.0802242 -0.105806 -0.225157 0 -0.000164368 0 0 0 0 0 0 0 0 0 0 0 0 0 0 0 0 0 50 0.002 
58 1 0.00302269 0.0855144 0.0149333 0 0 0 -0.00471525 -0.328958 0.0144133 0 -0.000164368 0 0 0 0 0 0 0 0 0 0 0 0 0 0 0 0 0 51 0.002 
582 7 0.00660738 0.0910835 0.0163032 0 0 0 -0.0288603 0.0971313 0.0860137 0 -0.000164368 0 0 0 0 0 0 0 0 0 0 0 0 0 0 0 0 0 36 0.002 
576 2 0.0162667 0.0940271 0.0157611 0 0 0 0.108857 0.92236 0.216241 0 -0.000164368 0 0 0 0 0 0 0 0 0 0 0 0 0 0 0 0 0 27 0.002 
568 1 0.00983329 0.0964375 0.0148418 0 0 0 0.00211611 -0.0709062 -0.0686762 0 -0.000164368 0 0 0 0 0 0 0 0 0 0 0 0 0 0 0 0 0 20 0.002 
926 2 0.00303165 0.0986501 0.0161428 0 0 0 -0.0137238 0.0434366 0.106881 0.00263747 0.0102752 -0.00480839 0 1 0 1 0 0 0 0 0 0 0 0 0 0 0 0 25 0.002 
570 1 0.0102069 0.100472 0.0146782 0 0 0 0.00925781 -0.0247493 0.103689 0 -0.000164368 0 0 0 0 0 0 0 0 0 0 0 0 0 0 0 0 0 38 0.002 
987 4 0.00717793 0.103276 0.0149265 0 0 0 0.0134316 -0.00929311 0.0701056 0 -0.000164368 0 0 0 0 0 0 0 0 0 0 0 0 0 0 0 0 0 16 0.002 
257 6 0.0114165 0.104358 0.0153142 0 0 0 0.0904515 -0.0388711 0.14734 0 -0.000164368 0 0 0 0 0 0 0 0 0 0 0 0 0 0 0 0 0 35 0.002 
927 3 0.0160888 0.104502 0.016024 0 0 0 0.00581012 0.0912145 0.0829024 0.00036852 -0.00676053 -0.000281664 1 0 1 0 0 0 0 0 0 0 0 0 0 0 0 0 25 0.002 
339 4 0.00299965 0.107958 0.0150976 0 0 0 -0.000461417 -0.0220078 0.0658111 0.000124571 -0.000131171 -5.27014e-05 0 0 0 0 0 0 0 0 0 0 0 0 0 0 0 0 39 0.002 
230 6 0.00936424 0.107828 0.0160049 0 0 0 0.0196684 -0.0494937 0.105219 0 -0.000164368 0 0 0 0 0 0 0 0 0 0 0 0 0 0 0 0 0 52 0.002 
448 2 0.0126635 0.0754314 0.0174477 0 0 0 -0.969253 -0.50372 -0.696287 0 -0.000164368 0 0 0 0 0 0 0 0 0 0 0 0 0 0 0 0 0 35 0.002 
1136 1 0.0116765 0.0802349 0.0174065 0 0 0 -0.752119 0.988267 -0.100439 0.0167768 -0.141354 0.137469 1 0 0 0 0 0 0 0 0 0 0 0 0 0 0 0 20 0.002 
661 2 0.00303259 0.0862393 0.0188909 0 0 0 0.0351359 -0.0745024 0.00520244 -0.000400595 -0.00102482 -0.000870974 0 1 0 0 0 0 0 0 0 0 0 0 0 0 0 0 30 0.002 
1084 2 0.0128893 0.0839599 0.0181616 0 0 0 -0.292385 -1.50536 -0.112156 -0.0132092 0.144066 -0.135314 1 1 0 0 0 0 0 0 0 0 0 0 0 0 0 0 12 0.002 
601 8 0.0166353 0.0852358 0.0187165 0 0 0 -0.553755 -0.372149 0.319155 -0.00356751 -0.00320439 -0.00215521 0 1 0 0 0 0 0 0 0 0 0 0 0 0 0 0 40 0.002 
1215 2 0.0071002 0.0868485 0.0181127 0 0 0 0.0954698 -0.226409 -0.108459 0 -0.000164368 0 0 0 0 0 0 0 0 0 0 0 0 0 0 0 0 0 4 0.002 
151 8 0.00304543 0.0908176 0.0183523 0 0 0 0.0223414 0.034465 0.0627863 0 -0.000164368 0 0 0 0 0 0 0 0 0 0 0 0 0 0 0 0 0 24 0.002 
951 10 0.0126212 0.0938111 0.0175781 0 0 0 -0.051398 0.504844 -0.0640252 0.0152057 -0.0309582 -0.0329412 0 0 0 1 0 0 0 0 0 2 0 0 0 0 0 0 27 0.002 
1117 1 0.00648337 0.0966813 0.0170172 0 0 0 0.0274385 -0.0124789 -0.0365853 0.00185272 -0.00404402 0.0130612 0 0 0 1 0 0 0 0 0 0 0 0 0 0 0 0 2 0.002 
989 4 0.00643619 0.10033 0.0187858 0 0 0 -0.0179847 0.0351585 -0.0117133 0.00322217 -0.000984128 0.000762233 0 0 0 2 0 0 0 0 0 0 0 0 0 0 0 0 17 0.002 
1250 6 0.0102562 0.0992147 0.0185876 0 0 0 -0.0383603 0.0458429 -0.0433861 0.00760585 -0.00294913 0.000883917 0 0 0 1 0 1 0 0 0 0 0 0 0 0 0 0 10 0.002 
824 6 0.0142139 0.100286 0.0169251 0 0 0 -0.10845 0.1105 0.115604 0 -0.000164368 0 0 0 0 0 0 0 0 0 0 0 0 0 0 0 0 0 38 0.002 
140 4 0.00298803 0.102178 0.0180732 0 0 0 0.00358499 0.0629709 0.0266409 0.00110888 0.000873312 -0.00140071 0 0 0 1 0 0 0 0 0 1 0 0 0 0 0 0 41 0.002 
143 7 0.0177229 0.101708 0.0183349 0 0 0 0.037826 0.115804 0.0664714 0.00530732 -0.00638564 0.00666082 0 0 1 0 0 0 1 0 0 0 0 0 0 0 0 0 10 0.002 
799 3 0.00556523 0.105225 0.0180463 0 0 0 -0.00622723 0.0513524 0.0422703 -5.07342e-05 0.00199294 -0.00115741 0 0 2 1 0 0 0 0 0 0 0 0 0 0 0 0 45 0.002 
1160 2 0.00946788 0.10371 0.0189981 0 0 0 -0.0216755 0.00999073 0.12993 0 -0.000164368 0 0 0 0 0 0 0 0 0 0 0 0 0 0 0 0 0 12 0.002 
189 5 0.0130113 0.107984 0.0179614 0 0 0 -0.0123849 -0.0226916 0.00270552 0 -0.000164368 0 0 0 0 0 0 0 0 0 0 0 0 0 0 0 0 0 28 0.002 
1116 4 0.00307644 0.0797181 0.0190575 0 0 0 0.0285363 -0.184222 -0.0886095 0 -0.000164368 0 0 0 0 0 0 0 0 0 0 0 0 0 0 0 0 0 24 0.002 
479 9 0.010098 0.0814479 0.0210709 0 0 0 -0.18214 -0.34274 -0.244171 0 -0.000164368 0 0 0 0 0 0 0 0 0 0 0 0 0 0 0 0 0 40 0.002 
930 3 0.00644568 0.0828922 0.0202042 0 0 0 -0.0350611 -0.147934 -0.0696853 0 -0.000164368 0 0 0 0 0 0 0 0 0 0 0 0 0 0 0 0 0 54 0.002 
1133 6 0.00924174 0.0908675 0.0194678 0 0 0 0.0433216 -0.0609691 -0.0364851 0 -0.000164368 0 0 0 0 0 0 0 0 0 0 0 0 0 0 0 0 0 8 0.002 
963 3 0.0157779 0.0899825 0.0208692 0 0 0 -0.354923 -0.198039 -0.00164309 -0.000124883 -0.00137718 -0.00277473 0 0 1 0 0 0 0 0 0 0 0 0 0 0 0 0 25 0.002 
149 7 0.00598429 0.0934059 0.0195276 0 0 0 -0.00864819 -0.000754491 0.13441 -0.000942774 -0.00483781 0.00416321 0 0 0 0 0 0 2 0 0 0 0 0 0 0 0 0 58 0.002 
650 3 0.00299352 0.0960133 0.0191315 0 0 0 0.0234373 0.0338934 0.0267782 -0.0035145 -0.00479667 -0.000396107 0 1 0 0 0 0 1 0 0 0 0 0 0 0 0 0 46 0.002 
680 6 0.00946727 0.0953537 0.0194023 0 0 0 -0.203429 0.232285 0.477619 0.00841471 -0.00939681 -0.0354282 0 0 0 0 0 2 1 0 0 1 0 0 0 0 0 0 61 0.002 
1183 1 0.0163853 0.0942233 0.0209859 0 0 0 -0.0134635 0.10265 -0.0829531 0 -0.000164368 0 0 0 0 0 0 0 0 0 0 0 0 0 0 0 0 0 18 0.002 
685 7 0.00634947 0.0970959 0.021121 0 0 0 -0.521117 0.173397 0.15407 0.000807918 -0.00864788 -0.00449854 0 0 0 1 0 1 1 0 0 0 0 0 0 0 0 0 38 0.002 
696 4 0.0134865 0.0971109 0.0196171 0 0 0 0.0838918 0.174144 0.0188704 0.0146744 0.0126643 0.0263817 0 0 0 1 0 1 0 0 0 1 0 0 0 0 0 0 50 0.002 
886 5 0.0173737 0.0980085 0.0197707 0 0 0 0.0833132 0.0604339 0.0559205 0.00419502 -0.00451715 0.00684786 0 0 0 1 0 0 1 0 0 0 0 0 0 0 0 0 28 0.002 
222 8 0.01457 0.100772 0.0209031 0 0 0 -0.0613378 -0.0101108 0.0921369 0 -0.000164368 0 0 0 0 0 0 0 0 0 0 0 0 0 0 0 0 0 33 0.002 
948 3 0.0135437 0.104497 0.0198481 0 0 0 -0.0524118 -0.00387279 0.0532014 0 -0.000164368 0 0 0 0 0 0 0 0 0 0 0 0 0 0 0 0 0 28 0.002 
717 2 0.0164556 0.10772 0.0206122 0 0 0 0.0560284 0.0659156 0.0546663 0 -0.000164368 0 0 0 0 0 0 0 0 0 0 0 0 0 0 0 0 0 32 0.002 
1292 9 0.00309127 0.107981 0.0195447 0 0 0 -0.0324876 0.00134384 0.0569782 -0.00100195 0.00222826 0.000139976 0 0 1 0 0 0 0 0 0 0 0 0 0 0 0 0 2 0.002 
639 9 0.00790257 0.107971 0.0197598 0 0 0 -0.000946894 -0.00109164 0.108428 0.00130584 0.00122627 0.00029367 0 0 1 0 0 0 0 0 1 0 0 0 0 0 0 0 47 0.002 
531 1 0.00329277 0.0764782 0.0220917 0 0 0 -0.0393306 0.0105711 -0.147121 5.56789e-05 -0.000146955 4.01527e-05 1 0 0 0 0 0 0 0 0 0 0 0 0 0 0 0 68 0.002 
1188 4 0.00300626 0.0837727 0.0220585 0 0 0 0.0101351 -0.0936707 0.0143879 0 -0.000164368 0 0 0 0 0 0 0 0 0 0 0 0 0 0 0 0 0 13 0.002 
1214 5 0.0129659 0.0841384 0.0225886 0 0 0 0.00759509 -0.537612 0.295906 -0.00444771 0.00425226 -0.00396612 0 0 0 0 0 0 0 0 0 0 0 0 0 0 0 0 12 0.002 
1155 5 0.016769 0.0853536 0.0227993 0 0 0 -0.260949 -0.026417 0.465038 0.00444771 -0.004581 0.00396612 0 0 0 0 0 0 0 0 0 0 0 0 0 0 0 0 26 0.002 
887 1 0.00300661 0.0879451 0.0225071 0 0 0 0.00287549 -0.105364 -0.0128529 0.000467036 0.000340975 -0.000367376 1 1 0 0 0 0 0 0 0 0 0 0 0 0 0 0 31 0.002 
224 5 0.0114724 0.0887848 0.0222004 0 0 0 -0.160829 -0.112983 0.180443 -0.000623852 -2.06771e-06 -0.000649796 0 0 0 0 1 0 0 0 0 0 0 0 0 0 0 0 57 0.002 
1001 4 0.00659386 0.0897422 0.0223228 0 0 0 0.0284521 -0.105041 -0.00912096 0 -0.000164368 0 0 0 0 0 0 0 0 0 0 0 0 0 0 0 0 0 32 0.002 
253 2 0.00304741 0.0920922 0.0223133 0 0 0 0.0427886 -0.00539005 -0.0571439 0 -0.000164368 0 0 0 0 0 0 0 0 0 0 0 0 0 0 0 0 0 40 0.002 
2 6 0.00993514 0.0925172 0.0230638 0 0 0 0.00610215 0.0162626 0.0054402 0 -0.000164368 0 0 0 0 0 0 0 0 0 0 0 0 0 0 0 0 0 50 0.002 
176 2 0.00301389 0.09626 0.0231305 0 0 0 -0.0958882 0.0353146 0.082693 -0.0243374 0.0141128 0.0250083 0 2 0 0 0 0 1 0 0 0 0 0 0 0 0 0 48 0.002 
1237 4 0.0103553 0.0976939 0.0224881 0 0 0 -0.123444 0.381259 0.32932 -0.00705991 0.0113528 0.0147774 0 0 0 1 0 1 0 0 0 0 0 0 0 0 0 0 6 0.002 
327 3 0.00299931 0.0998311 0.0213331 0 0 0 -0.000403835 0.0329111 0.0194878 0.000223019 -0.000461063 9.88386e-05 0 1 0 0 0 0 0 0 0 0 0 0 0 0 0 0 11 0.002 
84 8 0.00973466 0.101713 0.0227664 0 0 0 -0.0354895 0.0144777 0.160171 0 -0.000164368 0 0 0 0 0 0 0 0 0 0 0 0 0 0 0 0 0 52 0.002 
1062 4 0.00509378 0.103307 0.0215611 0 0 0 -0.0772455 0.0148634 0.00538473 0 -0.000164368 0 0 0 0 0 0 0 0 0 0 0 0 0 0 0 0 0 21 0.002 