ITEM: TIMESTEP
10400000
ITEM: NUMBER OF ATOMS
1274
ITEM: BOX BOUNDS ff ff ff
-0.01 0.45
-0.15 0.15
-0.08 0.1
ITEM: ATOMS id type x y z ix iy iz vx vy vz fx fy fz c_cc_1 c_cc_2 c_cc_3 c_cc_4 c_cc_5 c_cc_6 c_cc_7 c_cc_8 c_cc_9 c_cc_10 c_cc_11 c_cc_12 c_cc_13 c_cc_14 c_cc_15 c_cc_16 f_fppacc radius 
218 4 0.00386345 -0.056195 -0.00977279 0 0 0 0.377042 2.9931 -3.64634 0 -0.000164368 0 0 0 0 0 0 0 0 0 0 0 0 0 0 0 0 0 18 0.002 
69 6 0.00587951 -0.0234048 -0.033068 0 0 0 0.067713 -0.152327 1.51491 0 -0.000164368 0 0 0 0 0 0 0 0 0 0 0 0 0 0 0 0 0 33 0.002 
1031 3 0.00809436 0.0242671 -0.0522659 0 0 0 0.525299 -1.57868 -2.2856 0 -0.000164368 0 0 0 0 0 0 0 0 0 0 0 0 0 0 0 0 0 26 0.002 
1000 4 0.00928339 0.00932795 0.0321494 0 0 0 0.835517 4.79882 -0.357239 0 -0.000164368 0 0 0 0 0 0 0 0 0 0 0 0 0 0 0 0 0 16 0.002 
1068 4 0.0140236 0.016451 0.0317744 0 0 0 1.48229 -3.06775 -0.19592 0 -0.000164368 0 0 0 0 0 0 0 0 0 0 0 0 0 0 0 0 0 14 0.002 
1159 4 0.00567793 0.0190011 0.0544211 0 0 0 5.86731 36.8958 -13.6242 0 -0.000164368 0 0 0 0 0 0 0 0 0 0 0 0 0 0 0 0 0 15 0.002 
41 1 0.015124 0.0528572 -0.0355 0 0 0 0 3.24482e-19 -6.7269e-12 -0 0 0 0 0 0 0 0 0 0 0 0 0 0 0 0 0 0 0 2 0.002 
1162 3 0.0135395 0.0575375 -0.0235744 0 0 0 -0.19188 -2.53202 2.10628 0 -0.000164368 0 0 0 0 0 0 0 0 0 0 0 0 0 0 0 0 0 12 0.002 
843 4 0.00427674 0.0652335 -0.00373991 0 0 0 -5.55977 6.152 -16.3806 0 -0.000164368 0 0 0 0 0 0 0 0 0 0 0 0 0 0 0 0 0 11 0.002 
801 5 0.0136633 0.0410804 -0.0186268 0 0 0 0.490864 -1.56187 0.639151 0 -0.000164368 0 0 0 0 0 0 0 0 0 0 0 0 0 0 0 0 0 29 0.002 
554 3 0.00847562 0.0460777 -0.0145439 0 0 0 0.267511 -0.632118 -1.8116 0 -0.000164368 0 0 0 0 0 0 0 0 0 0 0 0 0 0 0 0 0 27 0.002 
972 3 0.00544386 0.054225 -0.0049065 0 0 0 -2.11261 -1.06637 1.10087 0 -0.000164368 0 0 0 0 0 0 0 0 0 0 0 0 0 0 0 0 0 26 0.002 
137 1 0.00368962 0.0685631 0.00185651 0 0 0 1.00925 -1.78064 -1.61513 0 -0.000164368 0 0 0 0 0 0 0 0 0 0 0 0 0 0 0 0 0 30 0.002 
515 5 0.0039074 0.055207 0.00889227 0 0 0 -1.16722 1.00672 -4.29606 0 -0.000164368 0 0 0 0 0 0 0 0 0 0 0 0 0 0 0 0 0 46 0.002 
490 2 0.0156003 0.073024 0.0329918 0 0 0 -0.0166314 -0.174423 -0.017187 0 -0.000164368 0 0 0 0 0 0 0 0 0 0 0 0 0 0 0 0 0 70 0.002 
1008 4 0.00401451 0.0721099 0.011655 0 0 0 0.00266159 -0.684385 -0.461376 0 -0.000164368 0 0 0 0 0 0 0 0 0 0 0 0 0 0 0 0 0 13 0.002 
813 6 0.0144951 0.073876 0.0157397 0 0 0 -0.662067 -0.515745 -1.55201 0 -0.000164368 0 0 0 0 0 0 0 0 0 0 0 0 0 0 0 0 0 36 0.002 
1302 3 0.018531 0.041744 0.0194349 0 0 0 2 -1.04905 -0.0001 0 -0.000164368 0 0 0 0 0 0 0 0 0 0 0 0 0 0 0 0 0 0 0.002 
499 2 0.014395 0.0442546 0.0208547 0 0 0 1.86778 -0.567845 -1.84497 0 -0.000164368 0 0 0 0 0 0 0 0 0 0 0 0 0 0 0 0 0 42 0.002 
252 6 0.00345117 0.0619884 0.0229656 0 0 0 0.0591124 -0.355098 -0.130756 0 -0.000164368 0 0 0 0 0 0 0 0 0 0 0 0 0 0 0 0 0 31 0.002 
395 6 0.00911915 0.0689984 0.0220524 0 0 0 -0.849083 -0.410907 -0.502651 0 -0.000164368 0 0 0 0 0 0 0 0 0 0 0 0 0 0 0 0 0 52 0.002 
505 2 0.00330486 0.0509511 0.0228626 0 0 0 0.0990651 1.47688 -1.28334 0 -0.000164368 0 0 0 0 0 0 0 0 0 0 0 0 0 0 0 0 0 50 0.002 
230 6 0.00331611 0.0661124 0.0244077 0 0 0 -0.0487919 -0.352739 0.00384246 0 -0.000164368 0 0 0 0 0 0 0 0 0 0 0 0 0 0 0 0 0 51 0.002 
983 5 0.00335797 0.0740769 0.0247174 0 0 0 -0.0248202 -0.117647 0.00214467 0 -0.000164368 0 0 0 0 0 0 0 0 0 0 0 0 0 0 0 0 0 20 0.002 
976 5 0.00844659 0.0730449 0.0252808 0 0 0 0.00450924 -0.0948626 -0.167308 0.0060119 -0.00112059 0.00047741 0 0 0 0 2 0 0 0 0 0 0 0 0 0 0 0 22 0.002 
527 8 0.0175028 0.0738829 0.0250341 0 0 0 -0.383589 -0.418807 -0.529205 0.000318132 -0.00512949 -0.000683645 0 0 0 0 0 0 0 1 0 0 0 0 0 0 0 0 37 0.002 
971 2 0.00319634 0.0627019 0.0270613 0 0 0 -0.199959 -0.324027 -0.140745 0 -0.000164368 0 0 0 0 0 0 0 0 0 0 0 0 0 0 0 0 0 24 0.002 
984 3 0.00716527 0.064192 0.0263952 0 0 0 -0.0520557 0.079088 -0.750463 0 -0.000164368 0 0 0 0 0 0 0 0 0 0 0 0 0 0 0 0 0 30 0.002 
987 4 0.0143078 0.0654744 0.0251808 0 0 0 1.11869 4.23568 -1.40514 0 -0.000164368 0 0 0 0 0 0 0 0 0 0 0 0 0 0 0 0 0 15 0.002 
1153 8 0.00595451 0.0680594 0.02737 0 0 0 -0.161434 0.157118 0.0257827 -0.000302346 -0.00890375 0.000895227 0 0 0 0 0 0 0 2 0 0 0 0 0 0 0 0 23 0.002 
322 2 0.00953629 0.0698053 0.0273368 0 0 0 -0.0652985 -0.0486927 0.0492276 0.00691161 0.000836652 -0.00234864 0 1 0 0 1 0 0 1 0 0 0 0 0 0 0 0 52 0.002 
417 1 0.00869696 0.0603862 0.0288384 0 0 0 -0.686256 0.507077 0.262226 0 -0.000164368 0 0 0 0 0 0 0 0 0 0 0 0 0 0 0 0 0 60 0.002 
883 2 0.0132812 0.0648017 0.029739 0 0 0 -0.0265416 0.179791 0.00581363 -0.011874 -0.00478737 -0.00711268 0 1 0 0 0 0 0 0 0 0 0 0 0 0 0 0 24 0.002 
548 4 0.00298579 0.0677414 0.0300156 0 0 0 -0.014283 0.0655671 0.075724 0.0201738 -0.00543829 -0.00104717 0 0 0 0 0 0 0 1 0 0 0 0 0 0 0 0 45 0.002 
1074 10 0.00958799 0.0665111 0.0296048 0 0 0 -0.307337 0.185612 0.453522 0.000190763 0.000184214 -0.000475452 0 1 0 0 0 0 0 0 0 0 0 0 0 0 0 0 14 0.002 
998 5 0.0183652 0.0664767 0.0293142 0 0 0 -0.455171 0.256242 0.225501 0 -0.000164368 0 0 0 0 0 0 0 0 0 0 0 0 0 0 0 0 0 19 0.002 
1186 8 0.00299547 0.0717473 0.0279905 0 0 0 0.00220822 -0.168478 -0.0183468 0.00161891 0.00161737 0.0010719 0 0 0 0 0 0 0 1 0 0 0 0 0 0 0 0 11 0.002 
553 7 0.0130023 0.0716662 0.0285216 0 0 0 -0.0302952 0.211293 -0.143118 0 -0.000164368 0 0 0 0 0 0 0 0 0 0 0 0 0 0 0 0 0 38 0.002 
416 5 0.0172383 0.0711655 0.0298197 0 0 0 -0.0998719 -0.165891 -0.104034 0 -0.000164368 0 0 0 0 0 0 0 0 0 0 0 0 0 0 0 0 0 50 0.002 
665 2 0.00642194 0.0736767 0.0286887 0 0 0 0.0331399 -0.21216 -0.0447786 0.00295425 0.000118208 -8.85181e-05 0 0 0 0 0 0 0 1 0 0 0 0 0 0 0 0 32 0.002 
603 7 0.00459542 0.0552342 0.0322405 0 0 0 0.139084 -0.547157 0.213398 0 -0.000164368 0 0 0 0 0 0 0 0 0 0 0 0 0 0 0 0 0 40 0.002 
716 5 0.0170013 0.0562157 0.0315502 0 0 0 -0.119269 -0.363435 -0.137235 0 -0.000164368 0 0 0 0 0 0 0 0 0 0 0 0 0 0 0 0 0 28 0.002 
835 12 0.00336148 0.0597052 0.0318555 0 0 0 0.138314 0.174398 1.11486 0 -0.000164368 0 0 0 0 0 0 0 0 0 0 0 0 0 0 0 0 0 33 0.002 
493 5 0.0036705 0.064401 0.0322205 0 0 0 -0.721097 -0.157172 0.199456 0 -0.000164368 0 0 0 0 0 0 0 0 0 0 0 0 0 0 0 0 0 52 0.002 
764 4 0.0180103 0.0631871 0.0320828 0 0 0 0.111816 -0.38804 0.761753 0 -0.000164368 0 0 0 0 0 0 0 0 0 0 0 0 0 0 0 0 0 44 0.002 
326 4 0.00891146 0.07117 0.0318636 0 0 0 0.0795268 0.12454 -0.16676 0.00216626 -0.0204554 -0.00146439 0 0 0 1 0 0 0 0 0 0 0 0 0 0 0 0 57 0.002 
369 6 0.0108675 0.0631874 0.0327934 0 0 0 0.719124 -0.0421634 -0.179795 0 -0.000164368 0 0 0 0 0 0 0 0 0 0 0 0 0 0 0 0 0 40 0.002 
314 6 0.00694408 0.0676651 0.0328684 0 0 0 0.114129 -0.00894197 -0.229887 0 -0.000164368 0 0 0 0 0 0 0 0 0 0 0 0 0 0 0 0 0 31 0.002 
741 5 0.0148552 0.0665226 0.0329526 0 0 0 0.198422 0.104611 0.278085 0.011874 0.00445864 0.00711268 0 1 0 0 0 0 0 0 0 0 0 0 0 0 0 0 31 0.002 
240 1 0.0128543 0.0700825 0.0328565 0 0 0 0.155039 -0.0106209 0.00302568 0 -0.000164368 0 0 0 0 0 0 0 0 0 0 0 0 0 0 0 0 0 44 0.002 
1104 4 0.00367226 0.0703687 0.0329384 0 0 0 0.00672883 -0.0253454 0.0609459 -0.000785898 -0.0026465 0.00548279 0 0 0 1 0 0 0 0 0 0 0 0 0 0 0 0 10 0.002 
1071 3 0.00300381 0.0742918 0.0328956 0 0 0 0.0113114 0.0698165 0.0550767 -0.00697968 0.00742936 -0.00223797 0 0 1 1 0 0 0 0 0 0 0 0 0 0 0 0 14 0.002 
928 2 0.0069894 0.0744753 0.0329741 0 0 0 -0.0262805 -0.103362 0.017628 0.00467671 0.0238253 0.00256064 0 0 1 1 0 0 0 0 0 0 0 0 0 0 0 0 39 0.002 
845 3 0.0116168 0.073971 0.0329872 0 0 0 0.358172 -0.0272546 0.00788288 0 -0.000164368 0 0 0 0 0 0 0 0 0 0 0 0 0 0 0 0 0 30 0.002 
300 1 0.0138193 0.0760483 -0.00258411 0 0 0 -2.35559 6.70964 -11.231 0 -0.000164368 0 0 0 0 0 0 0 0 0 0 0 0 0 0 0 0 0 41 0.002 
1123 3 0.0090418 0.0949079 -0.0324597 0 0 0 -5.65163 7.81619 -1.4121 0 -0.000164368 0 0 0 0 0 0 0 0 0 0 0 0 0 0 0 0 0 8 0.002 
156 4 0.0183167 0.0849874 -0.0274353 0 0 0 -0.136675 0.0994787 0.482162 0 -0.000164368 0 0 0 0 0 0 0 0 0 0 0 0 0 0 0 0 0 38 0.002 
336 9 0.00973459 0.0998073 -0.0246131 0 0 0 -1.61213 1.58294 1.98694 0 -0.000164368 0 0 0 0 0 0 0 0 0 0 0 0 0 0 0 0 0 45 0.002 
1099 2 0.00989562 0.106723 0.0089054 0 0 0 0.954578 0.254333 0.46239 0 -0.000164368 0 0 0 0 0 0 0 0 0 0 0 0 0 0 0 0 0 14 0.002 
125 10 0.00299055 0.0804072 -0.0220355 0 0 0 0.207778 0.208249 -1.72755 -0.00641133 -0.00414731 0.00442441 0 0 0 0 0 0 0 0 0 0 0 0 0 0 0 0 43 0.002 
1286 9 0.0176221 0.107988 0.0086017 0 0 0 0.592109 -0.0970008 1.10321 0 -0.000164368 0 0 0 0 0 0 0 0 0 0 0 0 0 0 0 0 0 1 0.002 
814 13 0.0116454 0.103127 -0.0223699 0 0 0 -1.52624 0.146024 -0.364029 0 -0.000164368 0 0 0 0 0 0 0 0 0 0 0 0 0 0 0 0 0 44 0.002 
873 6 0.0160629 0.103001 -0.0218171 0 0 0 0.294394 2.10076 -0.0658034 0 -0.000164368 0 0 0 0 0 0 0 0 0 0 0 0 0 0 0 0 0 18 0.002 
888 1 0.00827975 0.100892 -0.0195969 0 0 0 0.711736 -1.69892 -1.18241 -0.0186607 0.0170891 0.0300092 1 0 0 0 0 0 0 0 0 0 0 0 0 0 0 0 29 0.002 
293 1 0.0100364 0.104089 -0.0176205 0 0 0 2.40679 -2.06075 0.441169 0 -0.000164368 0 0 0 0 0 0 0 0 0 0 0 0 0 0 0 0 0 41 0.002 
76 2 0.0178211 0.0845995 -0.0149425 0 0 0 1.1064 2.69371 1.4204 0 -0.000164368 0 0 0 0 0 0 0 0 0 0 0 0 0 0 0 0 0 32 0.002 
258 6 0.00615893 0.102202 -0.0164741 0 0 0 1.11772 -2.92597 1.10991 0.0186607 -0.0174178 -0.0300092 1 0 0 0 0 0 0 0 0 0 0 0 0 0 0 0 24 0.002 
327 3 0.0136041 0.106522 -0.0160598 0 0 0 2.01122 -1.22713 -0.2405 0 -0.000164368 0 0 0 0 0 0 0 0 0 0 0 0 0 0 0 0 0 9 0.002 
425 1 0.00648257 0.0762433 -0.0160872 0 0 0 -0.211276 -1.43052 -1.53849 0 -0.000164368 0 0 0 0 0 0 0 0 0 0 0 0 0 0 0 0 0 47 0.002 
1270 6 0.00550683 0.0952222 -0.0134078 0 0 0 0.919993 0.475743 0.0189464 0 -0.000164368 0 0 0 0 0 0 0 0 0 0 0 0 0 0 0 0 0 0 0.002 
350 8 0.0162223 0.100967 -0.0144905 0 0 0 0.563117 -0.594666 1.31477 0 -0.000164368 0 0 0 0 0 0 0 0 0 0 0 0 0 0 0 0 0 43 0.002 
1026 6 0.0032847 0.107492 -0.0110475 0 0 0 0.230937 -0.00249778 0.792889 0 -0.000164368 0 0 0 0 0 0 0 0 0 0 0 0 0 0 0 0 0 29 0.002 
896 1 0.0144958 0.0781962 -0.00994208 0 0 0 -0.545608 0.635246 -2.11303 0 -0.000164368 0 0 0 0 0 0 0 0 0 0 0 0 0 0 0 0 0 38 0.002 
877 4 0.015357 0.0870004 -0.00942593 0 0 0 0.314792 -0.00445453 -1.04324 0 -0.000164368 0 0 0 0 0 0 0 0 0 0 0 0 0 0 0 0 0 23 0.002 
84 8 0.00445654 0.0920626 -0.00964307 0 0 0 0.462078 -0.418322 -0.407715 0 -0.000164368 0 0 0 0 0 0 0 0 0 0 0 0 0 0 0 0 0 47 0.002 
920 3 0.00734873 0.107599 -0.00882344 0 0 0 0.682904 -0.116736 0.443807 0 -0.000164368 0 0 0 0 0 0 0 0 0 0 0 0 0 0 0 0 0 23 0.002 
886 5 0.00888697 0.087755 -0.00840281 0 0 0 -0.459334 0.640814 -0.184256 0 -0.000164368 0 0 0 0 0 0 0 0 0 0 0 0 0 0 0 0 0 26 0.002 
1218 8 0.0134431 0.107476 -0.00643795 0 0 0 0.870537 -0.113709 2.01779 0 -0.000164368 0 0 0 0 0 0 0 0 0 0 0 0 0 0 0 0 0 5 0.002 
203 3 0.00470563 0.0941195 -0.00538466 0 0 0 -1.24014 -0.23721 0.37686 0 -0.000164368 0 0 0 0 0 0 0 0 0 0 0 0 0 0 0 0 0 47 0.002 
1273 2 0.00415297 0.0997412 -0.0031097 0 0 0 -0.774132 1.50118 1.80602 0 -0.000164368 0 0 0 0 0 0 0 0 0 0 0 0 0 0 0 0 0 0 0.002 
938 2 0.0150835 0.0839366 -0.00247888 0 0 0 0.374695 1.09674 -1.52707 0 -0.000164368 0 0 0 0 0 0 0 0 0 0 0 0 0 0 0 0 0 14 0.002 
491 2 0.0106345 0.0966115 0.000990835 0 0 0 1.68688 -0.0879031 0.687848 0 -0.000164368 0 0 0 0 0 0 0 0 0 0 0 0 0 0 0 0 0 29 0.002 
574 5 0.00463543 0.107712 -0.00126803 0 0 0 0.286373 -0.131061 0.444354 0 -0.000164368 0 0 0 0 0 0 0 0 0 0 0 0 0 0 0 0 0 26 0.002 
1092 4 0.00353557 0.0791603 0.00307088 0 0 0 -0.610154 -0.940065 0.17552 0 -0.000164368 0 0 0 0 0 0 0 0 0 0 0 0 0 0 0 0 0 12 0.002 
809 1 0.0166841 0.0850767 0.00157683 0 0 0 0.815508 -0.158913 -0.581642 0 -0.000164368 0 0 0 0 0 0 0 0 0 0 0 0 0 0 0 0 0 26 0.002 
192 7 0.00780953 0.0868614 0.00142396 0 0 0 -0.353121 -0.443238 -0.596554 0 -0.000164368 0 0 0 0 0 0 0 0 0 0 0 0 0 0 0 0 0 49 0.002 
721 5 0.0049744 0.0996094 0.00233336 0 0 0 0.507347 0.534678 0.920478 0 -0.000164368 0 0 0 0 0 0 0 0 0 0 0 0 0 0 0 0 0 36 0.002 
1051 10 0.00323605 0.104641 0.00174727 0 0 0 0.191922 0.496715 0.126283 0 -0.000164368 0 0 0 0 0 0 0 0 0 0 0 0 0 0 0 0 0 15 0.002 
707 2 0.00728309 0.106684 0.00160624 0 0 0 0.280602 -0.36689 0.321416 0 -0.000164368 0 0 0 0 0 0 0 0 0 0 0 0 0 0 0 0 0 51 0.002 
70 6 0.00989155 0.0977857 0.00585332 0 0 0 0.862266 0.444799 1.5628 0 -0.000164368 0 0 0 0 0 0 0 0 0 0 0 0 0 0 0 0 0 41 0.002 
591 9 0.00405103 0.076964 0.00693371 0 0 0 -0.0689935 0.0659899 -0.762356 0 -0.000164368 0 0 0 0 0 0 0 0 0 0 0 0 0 0 0 0 0 28 0.002 
706 9 0.0169522 0.0784739 0.00592572 0 0 0 0.474793 0.0336896 -0.915924 0 -0.000164368 0 0 0 0 0 0 0 0 0 0 0 0 0 0 0 0 0 59 0.002 
696 4 0.00561906 0.0821031 0.00532529 0 0 0 -1.03489 2.70463 -1.09967 0 -0.000164368 0 0 0 0 0 0 0 0 0 0 0 0 0 0 0 0 0 44 0.002 
1237 4 0.00459249 0.10083 0.00674506 0 0 0 0.151177 0.150694 0.34149 0 -0.000164368 0 0 0 0 0 0 0 0 0 0 0 0 0 0 0 0 0 1 0.002 
261 1 0.0065136 0.0754164 -0.0212227 0 0 0 -2.24149 1.23001 0.2094 0 -0.000164368 0 0 0 0 0 0 0 0 0 0 0 0 0 0 0 0 0 38 0.002 
176 2 0.00303804 0.104502 0.00632576 0 0 0 0.0507017 0.274829 0.194371 0 -0.000164368 0 0 0 0 0 0 0 0 0 0 0 0 0 0 0 0 0 39 0.002 
2 6 0.0107843 0.103588 0.00623965 0 0 0 0.413409 0.482474 0.363576 0 -0.000164368 0 0 0 0 0 0 0 0 0 0 0 0 0 0 0 0 0 41 0.002 
1139 5 0.0152956 0.105275 0.00663153 0 0 0 1.01363 -0.105044 0.901574 0 -0.000164368 0 0 0 0 0 0 0 0 0 0 0 0 0 0 0 0 0 9 0.002 
1290 7 0.00546123 0.108018 0.00570891 0 0 0 0.227993 -0.0905477 0.233585 -0.0133898 -0.0278536 0.00351943 0 0 0 0 0 0 0 0 0 0 0 0 0 0 0 0 0 0.002 
573 1 0.0166204 0.0837562 0.00783154 0 0 0 0.163542 0.17278 -0.20077 0 -0.000164368 0 0 0 0 0 0 0 0 0 0 0 0 0 0 0 0 0 46 0.002 
650 3 0.00456331 0.0865687 0.00973188 0 0 0 0.11518 0.126175 -0.292148 0 -0.000164368 0 0 0 0 0 0 0 0 0 0 0 0 0 0 0 0 0 42 0.002 
151 8 0.00490709 0.0926417 0.00790303 0 0 0 -0.124639 0.30086 -0.581162 0 -0.000164368 0 0 0 0 0 0 0 0 0 0 0 0 0 0 0 0 0 21 0.002 
1204 4 0.00902402 0.101071 0.00905076 0 0 0 -0.0123288 0.530051 0.416813 0 -0.000164368 0 0 0 0 0 0 0 0 0 0 0 0 0 0 0 0 0 6 0.002 
680 6 0.00333287 0.0820684 0.0104929 0 0 0 0.0476355 0.0486733 -0.209538 0 -0.000164368 0 0 0 0 0 0 0 0 0 0 0 0 0 0 0 0 0 53 0.002 
907 8 0.00883098 0.0882126 0.011543 0 0 0 -1.02577 1.3534 -1.21147 0.00163226 0.013219 0.00368147 0 0 0 0 0 0 0 1 0 0 0 0 0 0 0 0 29 0.002 
926 2 0.00558524 0.0952328 0.011337 0 0 0 0.171331 0.0427524 -0.195573 0 -0.000164368 0 0 0 0 0 0 0 0 0 0 0 0 0 0 0 0 0 23 0.002 
253 2 0.00379372 0.100336 0.0108703 0 0 0 -0.0365623 0.197945 1.01218 0 -0.000164368 0 0 0 0 0 0 0 0 0 0 0 0 0 0 0 0 0 38 0.002 
1118 6 0.0139108 0.102084 0.011026 0 0 0 0.0492616 -0.558565 0.655259 0 -0.000164368 0 0 0 0 0 0 0 0 0 0 0 0 0 0 0 0 0 8 0.002 
308 1 0.00714803 0.107703 0.0125098 0 0 0 0.0579249 -0.191657 0.604165 0 -0.000164368 0 0 0 0 0 0 0 0 0 0 0 0 0 0 0 0 0 55 0.002 
1043 8 0.0125017 0.0795307 0.0144328 0 0 0 -0.0121146 -0.17607 0.400398 0 -0.000164368 0 0 0 0 0 0 0 0 0 0 0 0 0 0 0 0 0 13 0.002 
735 8 0.0159931 0.082813 0.0133236 0 0 0 0.00697416 -0.413543 0.321913 0 -0.000164368 0 0 0 0 0 0 0 0 0 0 0 0 0 0 0 0 0 23 0.002 
560 4 0.00952556 0.0913776 0.0138445 0 0 0 -0.226961 0.85074 0.376355 -0.00974303 -0.0586761 -0.0465169 0 0 0 1 0 0 0 1 0 0 0 0 0 0 0 0 30 0.002 
606 4 0.00309417 0.0924051 0.0136119 0 0 0 0.017372 0.237262 -0.109966 0 -0.000164368 0 0 0 0 0 0 0 0 0 0 0 0 0 0 0 0 0 54 0.002 
1133 6 0.00834502 0.0971712 0.013633 0 0 0 0.103527 0.0215558 -0.0554586 0 -0.000164368 0 0 0 0 0 0 0 0 0 0 0 0 0 0 0 0 0 7 0.002 
898 1 0.0149091 0.0970931 0.0129822 0 0 0 0.31775 -0.414399 0.367885 0 -0.000164368 0 0 0 0 0 0 0 0 0 0 0 0 0 0 0 0 0 19 0.002 
1250 6 0.010549 0.101297 0.0139851 0 0 0 -0.108356 -0.153232 0.605158 0.00680588 0.000859764 0.00252407 0 0 0 0 0 1 0 0 0 0 0 0 0 0 0 0 2 0.002 
1140 12 0.0120049 0.106014 0.0129474 0 0 0 0.659857 0.222791 0.299381 0 -0.000164368 0 0 0 0 0 0 0 0 0 0 0 0 0 0 0 0 0 12 0.002 
1220 2 0.00726739 0.077104 0.0145716 0 0 0 -1.32238 -0.655104 -0.619256 0 -0.000164368 0 0 0 0 0 0 0 0 0 0 0 0 0 0 0 0 0 3 0.002 
570 1 0.00342628 0.083497 0.0146167 0 0 0 -0.0826099 -0.072644 -0.129756 0 -0.000164368 0 0 0 0 0 0 0 0 0 0 0 0 0 0 0 0 0 36 0.002 
406 5 0.0135968 0.0836358 0.0166727 0 0 0 -0.0795907 -0.300625 0.0822475 0 -0.000164368 0 0 0 0 0 0 0 0 0 0 0 0 0 0 0 0 0 50 0.002 
297 3 0.00304213 0.0869472 0.0166795 0 0 0 -0.0330734 -0.102788 -0.0631772 0 -0.000164368 0 0 0 0 0 0 0 0 0 0 0 0 0 0 0 0 0 43 0.002 
467 1 0.0154077 0.0901415 0.0147851 0 0 0 -0.135099 -0.365783 0.0364853 0 -0.000164368 0 0 0 0 0 0 0 0 0 0 0 0 0 0 0 0 0 41 0.002 
1212 1 0.00659431 0.0932092 0.0158356 0 0 0 0.0268677 0.0559706 0.127855 0.00811078 0.044964 0.0428355 0 0 0 1 0 0 0 0 0 0 0 0 0 0 0 0 10 0.002 
481 2 0.00302988 0.0957872 0.0158821 0 0 0 0.00157249 -0.20258 0.0428174 0 -0.000164368 0 0 0 0 0 0 0 0 0 0 0 0 0 0 0 0 0 23 0.002 
1136 1 0.0126151 0.0971888 0.0164639 0 0 0 -0.164459 -0.166728 0.14731 -0.00110726 0.00164654 0.00284693 1 0 0 0 0 0 0 0 0 0 0 0 0 0 0 0 18 0.002 
1001 4 0.00510497 0.0997455 0.0154404 0 0 0 0.0464107 -0.0453143 0.143925 0.000848429 0.00308889 -0.0057408 0 0 0 1 0 0 0 0 0 0 0 0 0 0 0 0 28 0.002 
658 8 0.0133466 0.101253 0.0168356 0 0 0 0.214011 -0.0964567 0.62816 -0.00680588 -0.0011885 -0.00252407 0 0 0 0 0 1 0 0 0 0 0 0 0 0 0 0 31 0.002 
507 6 0.00325594 0.103756 0.0166219 0 0 0 0.0889861 -0.000790395 0.130479 0 -0.000164368 0 0 0 0 0 0 0 0 0 0 0 0 0 0 0 0 0 41 0.002 
364 3 0.00793962 0.103954 0.0157732 0 0 0 -0.219385 0.442049 0.429979 0 -0.000164368 0 0 0 0 0 0 0 0 0 0 0 0 0 0 0 0 0 37 0.002 
854 2 0.0183252 0.106033 0.0157112 0 0 0 0.448096 0.252728 0.678667 0.0274877 -0.0538787 -0.0935188 0 1 0 0 0 0 0 0 0 0 0 0 0 0 0 0 26 0.002 
1228 8 0.0112058 0.108012 0.0164455 0 0 0 0.27852 0.11912 0.327588 -0.00915435 -0.0331379 0.00643087 0 0 0 0 0 0 0 1 0 0 0 0 0 0 0 0 3 0.002 
193 8 0.00650751 0.0795471 0.0183018 0 0 0 0.115662 -0.259053 0.172735 0 -0.000164368 0 0 0 0 0 0 0 0 0 0 0 0 0 0 0 0 0 53 0.002 
572 3 0.0155992 0.0800785 0.0171102 0 0 0 0.105805 -0.332837 -0.149832 0 -0.000164368 0 0 0 0 0 0 0 0 0 0 0 0 0 0 0 0 0 36 0.002 
1244 12 0.0178436 0.0835581 0.0171887 0 0 0 0.0190212 -0.396108 0.13952 0 -0.000164368 0 0 0 0 0 0 0 0 0 0 0 0 0 0 0 0 0 7 0.002 
446 9 0.00751234 0.0845507 0.0168742 0 0 0 -0.0954569 -0.0545597 -0.106113 0 -0.000164368 0 0 0 0 0 0 0 0 0 0 0 0 0 0 0 0 0 54 0.002 
1185 6 0.0107712 0.0859474 0.0188635 0 0 0 -0.0590673 -0.0953506 -0.0328972 0 -0.000164368 0 0 0 0 0 0 0 0 0 0 0 0 0 0 0 0 0 8 0.002 
1009 1 0.0168028 0.0874528 0.0176832 0 0 0 0.0212397 -0.346409 0.0295225 0 -0.000164368 0 0 0 0 0 0 0 0 0 0 0 0 0 0 0 0 0 12 0.002 
827 2 0.00629764 0.0900098 0.0186396 0 0 0 0.0122672 -0.0119622 -0.0789203 4.79373e-05 4.75179e-05 0.000194903 0 1 0 0 0 0 0 0 0 0 0 0 0 0 0 0 24 0.002 
674 10 0.00299594 0.0923538 0.0185358 0 0 0 -0.0440097 0.0157524 0.0113746 0.00759143 -0.0015596 0.00352998 0 0 0 0 0 0 0 0 0 0 0 0 0 0 0 0 31 0.002 
179 1 0.0109912 0.0923093 0.0177854 0 0 0 0.0373895 -0.282557 0.0321034 0.00369719 0.00202787 -0.00308717 0 0 0 0 0 0 0 0 0 0 0 0 0 0 0 0 37 0.002 
967 2 0.0154167 0.0931864 0.017479 0 0 0 -0.200832 -0.351326 0.125087 0 -0.000164368 0 0 0 0 0 0 0 0 0 0 0 0 0 0 0 0 0 17 0.002 
1215 2 0.00628146 0.096134 0.0186142 0 0 0 0.040516 0.000813823 0.13658 0 -0.000164368 0 0 0 0 0 0 0 0 0 0 0 0 0 0 0 0 0 1 0.002 
887 1 0.00303436 0.098737 0.0186988 0 0 0 0.0155825 -0.150389 0.0745533 0.000589162 0.00113381 0.00436476 1 0 0 1 0 0 0 0 0 0 0 0 0 0 0 0 24 0.002 
224 5 0.00864453 0.0990436 0.0171921 0 0 0 0.0304458 -0.0415918 0.00840002 0 -0.000164368 0 0 0 0 0 0 0 0 0 0 0 0 0 0 0 0 0 51 0.002 
108 2 0.00612237 0.101886 0.0187284 0 0 0 -0.150895 -0.0960336 0.362588 0 -0.000164368 0 0 0 0 0 0 0 0 0 0 0 0 0 0 0 0 0 53 0.002 
1232 7 0.0146047 0.105224 0.0178728 0 0 0 -0.0308926 0.0223723 0.235474 0 -0.000164368 0 0 0 0 0 0 0 0 0 0 0 0 0 0 0 0 0 5 0.002 
1203 5 0.00503306 0.107756 0.0169519 0 0 0 0.0591438 -0.00808067 0.109354 0 -0.000164368 0 0 0 0 0 0 0 0 0 0 0 0 0 0 0 0 0 7 0.002 
863 1 0.0175226 0.107927 0.0190466 0 0 0 -0.0670202 0.333886 0.796629 -0.0274877 0.0535499 0.0935188 0 1 0 0 0 0 0 0 0 0 0 0 0 0 0 0 23 0.002 
951 10 0.0113482 0.0754463 0.0200216 0 0 0 0.119639 -0.202655 -0.0119434 0 -0.000164368 0 0 0 0 0 0 0 0 0 0 0 0 0 0 0 0 0 22 0.002 
338 6 0.00299519 0.0778 0.0191737 0 0 0 -0.0155753 -0.154601 0.278102 0.00652884 0.0028336 -0.00129174 0 0 0 0 0 0 0 0 0 0 0 0 0 0 0 0 45 0.002 
941 3 0.0146641 0.0787497 0.0207746 0 0 0 0.218513 -0.302266 -0.145319 0 -0.000164368 0 0 0 0 0 0 0 0 0 0 0 0 0 0 0 0 0 30 0.002 
1229 6 0.0030026 0.0830585 0.0195735 0 0 0 0.00354368 0.123496 -0.0212691 -0.00712739 -0.000531943 -0.000667377 0 0 0 0 0 1 0 0 0 0 0 0 0 0 0 0 5 0.002 
321 7 0.00662669 0.0824526 0.0211293 0 0 0 -0.0735072 -0.0443476 0.0145712 0.00661921 0.00121326 -0.000999715 0 0 0 0 0 1 1 0 0 0 0 0 0 0 0 0 36 0.002 
959 6 0.0136338 0.083172 0.0206845 0 0 0 0.0781751 -0.0855451 0.120252 -0.00625953 -0.00927309 -0.00766246 0 0 0 0 0 0 0 0 0 0 0 0 0 0 0 0 36 0.002 
703 3 0.0187006 0.0818631 0.0207572 0 0 0 0.0507477 -0.46305 0.115545 -0.00181268 0.00155261 -0.00208023 0 0 1 0 0 0 0 0 0 0 0 0 0 0 0 0 38 0.002 
126 2 0.00658844 0.0863844 0.0203151 0 0 0 0.0200724 -0.0414943 -0.130382 0 -0.000164368 0 0 0 0 0 0 0 0 0 0 0 0 0 0 0 0 0 32 0.002 
1223 2 0.00301503 0.0882936 0.0204482 0 0 0 0.0621594 -0.0687788 -0.0564288 0 -0.000164368 0 0 0 0 0 0 0 0 0 0 0 0 0 0 0 0 0 4 0.002 
245 1 0.00975988 0.0898996 0.0207201 0 0 0 -0.0483649 -0.158442 0.0755284 -0.00369719 -0.00235661 0.00308717 0 0 0 0 0 0 0 0 0 0 0 0 0 0 0 0 32 0.002 
319 4 0.0133408 0.0890541 0.0190757 0 0 0 -0.00438283 -0.076471 -0.0250951 0 -0.000164368 0 0 0 0 0 0 0 0 0 0 0 0 0 0 0 0 0 8 0.002 
902 3 0.0187448 0.0917775 0.0196786 0 0 0 0.0989265 -0.408117 -0.0852034 -0.00147026 0.0040396 -0.00350419 0 0 3 0 0 0 0 0 0 0 0 0 0 0 0 0 22 0.002 
1188 4 0.00301195 0.0955882 0.0211551 0 0 0 -0.0597168 -0.0870249 0.0863594 -0.00143759 -0.00471581 0.00137604 1 0 0 0 0 0 0 0 0 0 0 0 0 0 0 0 7 0.002 
287 6 0.0113013 0.0981682 0.0201024 0 0 0 -0.0984376 0.0298443 0.341454 0.00190668 0.000401599 -0.00491179 1 0 0 0 0 1 0 0 0 0 0 0 0 0 0 0 35 0.002 
576 2 0.0157029 0.0989502 0.0204445 0 0 0 0.0854375 -0.044867 0.195665 -0.00233683 0.00108114 0.0014974 0 1 0 0 0 0 0 0 0 0 0 0 0 0 0 0 24 0.002 
996 2 0.0105756 0.102426 0.0200374 0 0 0 0.151554 -0.0195547 0.314752 0 -0.000164368 0 0 0 0 0 0 0 0 0 0 0 0 0 0 0 0 0 26 0.002 
1002 1 0.00304978 0.103703 0.0206357 0 0 0 0.0296016 -0.072731 0.110361 0 -0.000164368 0 0 0 0 0 0 0 0 0 0 0 0 0 0 0 0 0 18 0.002 
1096 8 0.00724297 0.10545 0.0202726 0 0 0 0.0639918 0.00271852 0.0261463 0 -0.000164368 0 0 0 0 0 0 0 0 0 0 0 0 0 0 0 0 0 14 0.002 
1208 12 0.0180716 0.10395 0.020122 0 0 0 0.120043 0.00671471 0.127495 0 -0.000164368 0 0 0 0 0 0 0 0 0 0 0 0 0 0 0 0 0 6 0.002 
990 2 0.0112536 0.107739 0.0204335 0 0 0 0.137013 0.126975 0.284703 -0.000435676 -0.00115086 0.000881807 0 1 0 0 0 0 0 1 0 0 0 0 0 0 0 0 21 0.002 
1101 3 0.00301297 0.107979 0.02051 0 0 0 -0.0318017 0.00206812 0.0833678 0 -0.000164368 0 0 0 0 0 0 0 0 0 0 0 0 0 0 0 0 0 8 0.002 
1196 5 0.0107869 0.0813769 0.0229203 0 0 0 -0.0766861 -0.0989707 -0.117045 4.90508e-05 -0.000415238 -0.000185062 0 0 0 0 1 0 0 0 0 0 0 0 0 0 0 0 9 0.002 
278 11 0.00299924 0.0851428 0.0230606 0 0 0 0.00399563 -0.0921113 0.000775679 0.000115185 -0.000115505 3.04842e-05 0 0 0 0 0 0 0 0 0 0 0 0 0 0 0 0 49 0.002 
601 8 0.0126787 0.0864068 0.0232625 0 0 0 0.0188723 -0.0910977 0.190295 0 -0.000164368 0 0 0 0 0 0 0 0 0 0 0 0 0 0 0 0 0 35 0.002 
753 6 0.0164056 0.0859548 0.0213716 0 0 0 0.0978154 -0.239263 0.130231 0.0047156 0.00714199 0.0052213 0 0 0 0 0 1 0 0 0 0 0 0 0 0 0 0 63 0.002 
661 2 0.0066082 0.0891257 0.0233215 0 0 0 -0.00963818 -0.101444 -0.010074 1.87401e-05 7.88509e-05 0.000157957 0 1 0 0 0 0 0 0 0 0 0 0 0 0 0 0 22 0.002 
262 3 0.0150995 0.0897014 0.0226145 0 0 0 -0.0543751 -0.0974487 -0.0188101 0 -0.000164368 0 0 0 0 0 0 0 0 0 0 0 0 0 0 0 0 0 39 0.002 
582 7 0.00300513 0.0917816 0.0225022 0 0 0 0.0315571 -0.038135 -0.0190378 0 -0.000164368 0 0 0 0 0 0 0 0 0 0 0 0 0 0 0 0 0 31 0.002 
58 1 0.00687377 0.0927371 0.0215068 0 0 0 -0.0146447 -0.0352483 -0.0235353 -4.79373e-05 -0.000376254 -0.000194903 0 1 0 0 0 0 0 0 0 0 0 0 0 0 0 0 47 0.002 
128 4 0.011125 0.0943501 0.0212575 0 0 0 0.0405959 -0.0986656 -0.0248155 -0.000356071 -0.0017148 0.00106632 0 0 0 1 0 1 0 0 0 0 0 0 0 0 0 0 46 0.002 
963 3 0.0157721 0.0944805 0.0213333 0 0 0 0.183954 -0.0332727 0.0982899 0 -0.000164368 0 0 0 0 0 0 0 0 0 0 0 0 0 0 0 0 0 21 0.002 
296 2 0.00643636 0.0964114 0.0230528 0 0 0 -0.00239111 -0.0668355 0.0112627 0.000346716 -0.000197586 -0.000624078 0 2 0 0 0 0 0 0 0 0 0 0 0 0 0 0 26 0.002 
1214 5 0.01357 0.0973488 0.0234333 0 0 0 0.0522934 -0.231707 0.0414734 -0.000129919 3.47701e-06 -0.000756167 0 0 0 0 1 0 0 0 0 0 0 0 0 0 0 0 3 0.002 
952 3 0.00337408 0.0997681 0.0225725 0 0 0 -0.0551596 -0.134699 0.0470118 0 -0.000164368 0 0 0 0 0 0 0 0 0 0 0 0 0 0 0 0 0 16 0.002 
806 8 0.00802273 0.0998592 0.0217933 0 0 0 -0.00351706 -0.0303404 0.0877496 -0.00330921 -0.00189139 -0.00251298 0 1 0 0 0 0 0 1 0 0 0 0 0 0 0 0 34 0.002 
797 6 0.0142479 0.102505 0.0217101 0 0 0 0.0380696 -0.00147415 -0.0631528 0.000172615 -0.000296307 0.000261934 0 0 0 0 0 1 0 0 0 0 0 0 0 0 0 0 34 0.002 
229 6 0.0148407 0.107239 0.0221239 0 0 0 0.116513 -0.1056 0.251056 0.000709296 -6.30982e-05 0.00143787 0 1 0 0 0 1 0 0 0 0 0 0 0 0 0 0 48 0.002 
882 3 0.00877168 0.107961 0.0236073 0 0 0 0.0258825 -0.018844 0.254096 0 -0.000164368 0 0 0 0 0 0 0 0 0 0 0 0 0 0 0 0 0 25 0.002 
18 3 0.00663909 0.0761885 0.0236287 0 0 0 -0.0447096 -2.18535e-06 -0.0946995 -0.00404898 0.00508992 -0.00295974 0 0 1 0 0 0 0 0 0 0 0 0 0 0 0 0 49 0.002 
9 6 0.0115534 0.0767074 0.0245265 0 0 0 -0.00269571 -0.0406367 -0.00726021 0 -0.000164368 0 0 0 0 0 0 0 0 0 0 0 0 0 0 0 0 0 60 0.002 
892 5 0.00345305 0.0781207 0.0251246 0 0 0 -0.0135347 -0.0877008 -0.0183882 0 -0.000164368 0 0 0 0 0 0 0 0 0 0 0 0 0 0 0 0 0 26 0.002 
1078 1 0.0157876 0.0774284 0.0245551 0 0 0 -0.190485 0.332408 0.31053 -0.0111162 -0.0103776 0.00194361 2 0 0 0 0 0 0 0 0 0 0 0 0 0 0 0 17 0.002 
503 7 0.00710274 0.0801287 0.0243639 0 0 0 -0.162487 -0.0774487 0.0430408 0 -0.000164368 0 0 0 0 0 0 0 0 0 0 0 0 0 0 0 0 0 42 0.002 
1064 5 0.0153073 0.0814829 0.0239301 0 0 0 -0.0627403 -0.322098 0.104203 0 -0.000164368 0 0 0 0 0 0 0 0 0 0 0 0 0 0 0 0 0 22 0.002 
1193 8 0.0086654 0.0846552 0.0237734 0 0 0 -0.0649086 -0.0860036 -0.0423031 0.000431915 -0.000974714 0.00173519 0 0 0 0 1 0 1 1 0 0 0 0 0 0 0 0 24 0.002 
1116 4 0.00304475 0.088508 0.0255327 0 0 0 0.043096 -0.0759109 0.0503496 -0.000361505 -0.00107723 2.52085e-05 0 0 0 1 0 0 0 0 0 0 0 0 0 0 0 0 23 0.002 
836 4 0.0170632 0.0869917 0.0251709 0 0 0 -0.0805671 -0.168614 0.151636 0.00119786 0.000903013 -0.00151744 0 0 0 2 0 1 0 0 0 0 0 0 0 0 0 0 37 0.002 
1077 1 0.0113662 0.0900115 0.0244052 0 0 0 0.00280899 -0.0461879 0.0526478 0 -0.000164368 0 0 0 0 0 0 0 0 0 0 0 0 0 0 0 0 0 12 0.002 
584 8 0.00930872 0.0936052 0.02474 0 0 0 0.0502894 -0.0630371 -0.0356836 -0.000443351 -0.000990816 0.000998542 0 0 0 1 0 0 0 0 0 0 0 0 0 0 0 0 53 0.002 
1025 4 0.0136827 0.093313 0.0245388 0 0 0 0.0124914 -0.0167359 0.00114368 0 -0.000164368 0 0 0 0 0 0 0 0 0 0 0 0 0 0 0 0 0 26 0.002 
934 1 0.018666 0.092686 0.024301 0 0 0 0.0733098 -0.181281 -0.0637458 0 -0.000164368 0 0 0 0 0 0 0 0 0 0 0 0 0 0 0 0 0 32 0.002 
419 10 0.00300472 0.0963642 0.0251048 0 0 0 0.00402325 -0.0704736 -0.00703752 -0.000396835 -0.000187268 0.000621156 0 1 0 0 0 0 0 0 0 0 0 0 0 0 0 0 58 0.002 
698 6 0.0175529 0.0977918 0.0242442 0 0 0 0.109966 -0.100749 0.0711913 0 -0.000164368 0 0 0 0 0 0 0 0 0 0 0 0 0 0 0 0 0 37 0.002 
598 1 0.00850284 0.0987259 0.0257869 0 0 0 -0.0129179 -0.16994 0.0956252 0 -0.000164368 0 0 0 0 0 0 0 0 0 0 0 0 0 0 0 0 0 37 0.002 
860 11 0.0108101 0.101563 0.0240854 0 0 0 -0.044513 -0.0099417 0.143271 -0.000692346 0.00210235 -0.000136886 0 0 0 0 0 0 0 1 0 0 1 0 0 0 0 0 32 0.002 
243 5 0.0145307 0.100893 0.0253588 0 0 0 0.0576318 -0.135864 -0.102184 0.0019299 0.00050708 -0.00174352 0 0 0 0 1 1 0 0 0 0 1 0 0 0 0 0 24 0.002 
1256 2 0.00713745 0.103352 0.023683 0 0 0 0.0058255 -0.0366177 0.0061654 0 -0.000164368 0 0 0 0 0 0 0 0 0 0 0 0 0 0 0 0 0 4 0.002 
59 3 0.0170975 0.10446 0.0239898 0 0 0 -0.0103327 -0.00223932 0.119585 0 -0.000164368 0 0 0 0 0 0 0 0 0 0 0 0 0 0 0 0 0 17 0.002 
268 5 0.0030214 0.105942 0.0239894 0 0 0 0.0193701 -0.00832211 0.106176 1.75988e-05 -6.01063e-05 -0.000363239 0 0 0 0 1 0 0 0 0 0 0 0 0 0 0 0 55 0.002 
815 10 0.0120191 0.105656 0.0244981 0 0 0 -0.0306098 0.00735576 0.191918 0 -0.000164368 0 0 0 0 0 0 0 0 0 0 0 0 0 0 0 0 0 37 0.002 
769 5 0.016181 0.107967 0.025821 0 0 0 0.0652406 -0.0241748 0.279893 6.79847e-05 -0.000318767 -0.000461702 0 0 0 0 0 1 0 0 0 0 0 0 0 0 0 0 32 0.002 
552 8 0.00894343 0.0786386 0.027588 0 0 0 -0.139785 0.0341897 0.0861031 0 -0.000164368 0 0 0 0 0 0 0 0 0 0 0 0 0 0 0 0 0 53 0.002 
632 6 0.00638684 0.0817719 0.0279836 0 0 0 0.0886492 -0.0923501 0.0288922 0 -0.000164368 0 0 0 0 0 0 0 0 0 0 0 0 0 0 0 0 0 45 0.002 
695 2 0.0128046 0.0796899 0.0276451 0 0 0 -0.0804889 -0.124852 -0.0534802 0 -0.000164368 0 0 0 0 0 0 0 0 0 0 0 0 0 0 0 0 0 33 0.002 
988 10 0.00300535 0.0821483 0.025859 0 0 0 0.0155218 -0.103264 0.0944654 0 -0.000164368 0 0 0 0 0 0 0 0 0 0 0 0 0 0 0 0 0 19 0.002 
823 9 0.012284 0.0835397 0.0261076 0 0 0 -0.0907941 -0.227257 0.0861154 0 -0.000164368 0 0 0 0 0 0 0 0 0 0 0 0 0 0 0 0 0 21 0.002 
288 1 0.0178262 0.083291 0.0264633 0 0 0 -0.147962 -0.235931 0.0493785 -0.0010925 -0.000786618 -0.00168899 1 0 0 1 0 0 0 0 0 0 0 0 0 0 0 0 43 0.002 
719 3 0.005479 0.0852771 0.0262396 0 0 0 0.0211595 -0.0738014 0.045747 0 -0.000164368 0 0 0 0 0 0 0 0 0 0 0 0 0 0 0 0 0 27 0.002 
930 3 0.00875528 0.0876317 0.0264414 0 0 0 0.0086114 -0.0746784 -0.0416552 -0.00144419 0.00220631 -0.00346015 0 0 1 0 0 0 0 1 0 0 0 0 0 0 0 0 51 0.002 
999 5 0.0132815 0.0876504 0.0270264 0 0 0 0.0306617 -0.118089 -0.019152 0 -0.000164368 0 0 0 0 0 0 0 0 0 0 0 0 0 0 0 0 0 27 0.002 