ITEM: TIMESTEP
10350000
ITEM: NUMBER OF ATOMS
1264
ITEM: BOX BOUNDS ff ff ff
-0.01 0.45
-0.15 0.15
-0.08 0.1
ITEM: ATOMS id type x y z ix iy iz vx vy vz fx fy fz c_cc_1 c_cc_2 c_cc_3 c_cc_4 c_cc_5 c_cc_6 c_cc_7 c_cc_8 c_cc_9 c_cc_10 c_cc_11 c_cc_12 c_cc_13 c_cc_14 c_cc_15 c_cc_16 f_fppacc radius 
104 1 0.015 -0.0460982 0.0351703 0 0 0 -0.530614 39.4799 56.0055 0.167149 1.08663 -0.328898 0 0 0 0 0 0 0 0 0 0 0 0 0 0 0 0 23 0.002 
228 11 0.0119238 -0.0283498 0.0504142 0 0 0 2.50516 8.19682 5.43747 0.16983 0.0956559 -0.173819 0 0 0 0 0 0 0 0 0 0 0 0 0 0 0 0 5 0.002 
164 4 0.00857392 -0.0197804 0.0542241 0 0 0 1.42608 6.08121 2.62432 0 -0.000164368 0 0 0 0 0 0 0 0 0 0 0 0 0 0 0 0 0 48 0.002 
1149 4 0.0155875 -0.0250947 0.0521898 0 0 0 -4.85923 46.2667 19.7256 -0.137482 0.373532 -0.259264 0 0 0 0 0 0 0 0 0 0 0 0 0 0 0 0 0 0.002 
69 6 0.00954927 0.014923 -0.0417519 0 0 0 -0.520218 -3.3661 -1.12961 0 -0.000164368 0 0 0 0 0 0 0 0 0 0 0 0 0 0 0 0 0 33 0.002 
41 1 0.015124 0.0528572 -0.0355 0 0 0 0 3.24482e-19 -6.7269e-12 -0 0 0 0 0 0 0 0 0 0 0 0 0 0 0 0 0 0 0 2 0.002 
373 7 0.0162736 0.070998 -0.0313986 0 0 0 0.10795 -0.75124 1.13697 0 -0.000164368 0 0 0 0 0 0 0 0 0 0 0 0 0 0 0 0 0 43 0.002 
507 6 0.0158968 0.0715866 0.00877955 0 0 0 -1.7868 2.45219 -3.78091 0 -0.000164368 0 0 0 0 0 0 0 0 0 0 0 0 0 0 0 0 0 41 0.002 
112 6 0.0138647 0.0629468 -0.0247097 0 0 0 2.65065 -2.71551 2.3678 0 -0.000164368 0 0 0 0 0 0 0 0 0 0 0 0 0 0 0 0 0 47 0.002 
937 4 0.00540881 0.0547591 -0.00302695 0 0 0 1.32123 -1.36034 0.0542036 0 -0.000164368 0 0 0 0 0 0 0 0 0 0 0 0 0 0 0 0 0 20 0.002 
989 4 0.011466 0.0412538 0.00719429 0 0 0 0.421662 -1.19992 -0.528816 0 -0.000164368 0 0 0 0 0 0 0 0 0 0 0 0 0 0 0 0 0 12 0.002 
65 2 0.00754485 0.0748891 -0.00692937 0 0 0 9.00434 17.4327 -32.4717 0 -0.000164368 0 0 0 0 0 0 0 0 0 0 0 0 0 0 0 0 0 31 0.002 
1003 7 0.0059015 0.0522018 0.01315 0 0 0 0.804224 -4.4138 5.58542 0 -0.000164368 0 0 0 0 0 0 0 0 0 0 0 0 0 0 0 0 0 25 0.002 
258 6 0.0181243 0.0722933 0.0184338 0 0 0 -1.46562 2.25389 1.87589 0 -0.000164368 0 0 0 0 0 0 0 0 0 0 0 0 0 0 0 0 0 23 0.002 
55 4 0.0129335 0.0688942 0.0120028 0 0 0 -0.00169512 -0.0694233 -0.689447 0 -0.000164368 0 0 0 0 0 0 0 0 0 0 0 0 0 0 0 0 0 32 0.002 
125 10 0.0162192 0.0749325 0.0159158 0 0 0 -1.69739 1.29813 -1.69834 0 -0.000164368 0 0 0 0 0 0 0 0 0 0 0 0 0 0 0 0 0 43 0.002 
1220 2 0.0121062 0.0693343 0.0179873 0 0 0 -1.04361 -0.276815 -0.320772 0 -0.000164368 0 0 0 0 0 0 0 0 0 0 0 0 0 0 0 0 0 3 0.002 
929 3 0.0180299 0.056842 0.0197021 0 0 0 0.103642 -0.654536 -0.370559 0 -0.000164368 0 0 0 0 0 0 0 0 0 0 0 0 0 0 0 0 0 35 0.002 
1000 4 0.0150432 0.0606622 0.0207223 0 0 0 0.0319642 -0.285823 -0.557178 0 -0.000164368 0 0 0 0 0 0 0 0 0 0 0 0 0 0 0 0 0 16 0.002 
1123 3 0.00526984 0.0637634 0.019695 0 0 0 -0.307785 -0.147034 -0.0941114 0 -0.000164368 0 0 0 0 0 0 0 0 0 0 0 0 0 0 0 0 0 8 0.002 
70 6 0.00785191 0.0720383 0.0196256 0 0 0 -0.387224 -0.0713051 -0.77578 -0.0052757 0.00451618 -0.00401485 0 0 0 0 0 1 0 0 0 0 0 0 0 0 0 0 41 0.002 
591 9 0.00421461 0.0736024 0.0200715 0 0 0 -0.585715 0.286896 -0.464688 0.0052757 -0.00484491 0.00401485 0 0 0 0 0 1 0 0 0 0 0 0 0 0 0 0 28 0.002 
1008 4 0.00447044 0.0671444 0.0219925 0 0 0 -0.872156 0.0881704 -0.939372 0 -0.000164368 0 0 0 0 0 0 0 0 0 0 0 0 0 0 0 0 0 13 0.002 
726 1 0.0106333 0.0670847 0.0229398 0 0 0 -0.127879 -0.536338 -0.101277 0 -0.000164368 0 0 0 0 0 0 0 0 0 0 0 0 0 0 0 0 0 37 0.002 
230 6 0.00560487 0.0710091 0.0231111 0 0 0 0.0633827 -0.11785 -0.102648 0 -0.000164368 0 0 0 0 0 0 0 0 0 0 0 0 0 0 0 0 0 51 0.002 
480 3 0.0114326 0.0709955 0.0220773 0 0 0 -0.791322 -0.341115 0.0179784 -0.0106489 -0.0109136 -0.0361154 0 0 1 0 0 0 0 0 0 0 0 0 0 0 0 0 42 0.002 
938 2 0.0154374 0.0714897 0.0236385 0 0 0 -0.585389 -0.0128495 0.566166 0 -0.000164368 0 0 0 0 0 0 0 0 0 0 0 0 0 0 0 0 0 14 0.002 
491 2 0.00557398 0.0418231 0.0244417 0 0 0 2.93317 -1.23289 1.67135 0 -0.000164368 0 0 0 0 0 0 0 0 0 0 0 0 0 0 0 0 0 29 0.002 
554 3 0.00384226 0.0574901 0.0245576 0 0 0 0.0816068 -0.650702 -0.0801571 0 -0.000164368 0 0 0 0 0 0 0 0 0 0 0 0 0 0 0 0 0 27 0.002 
151 8 0.0176158 0.0581526 0.0237896 0 0 0 -0.278194 -0.495313 -0.307499 0 -0.000164368 0 0 0 0 0 0 0 0 0 0 0 0 0 0 0 0 0 21 0.002 
1031 3 0.0174595 0.066661 0.0237194 0 0 0 0.976317 -2.47376 -3.4185 0 -0.000164368 0 0 0 0 0 0 0 0 0 0 0 0 0 0 0 0 0 26 0.002 
983 5 0.00309339 0.0736541 0.0251154 0 0 0 0.0597407 -0.155004 -0.0621595 0 -0.000164368 0 0 0 0 0 0 0 0 0 0 0 0 0 0 0 0 0 20 0.002 
706 9 0.0106868 0.0747721 0.0240803 0 0 0 -1.39018 -0.175277 -0.846216 0.103701 0.0333692 0.0425492 0 0 0 0 0 0 0 0 3 0 0 0 0 0 0 0 59 0.002 
971 2 0.00304023 0.0657881 0.0260423 0 0 0 0.0495346 0.153122 0.060209 0 -0.000164368 0 0 0 0 0 0 0 0 0 0 0 0 0 0 0 0 0 24 0.002 
395 6 0.0117213 0.0704608 0.0260173 0 0 0 -1.15611 -0.79049 -0.595291 -0.0148956 -0.0360918 0.0244068 0 0 1 0 0 2 0 0 0 0 0 0 0 0 0 0 52 0.002 
976 5 0.00723166 0.0740389 0.0258354 0 0 0 -0.29675 0.00690823 -0.107522 -0.118766 -0.0189581 -0.00212125 0 0 0 0 0 0 0 0 1 0 0 0 0 0 0 0 20 0.002 
951 10 0.0137098 0.0738107 0.0265412 0 0 0 -0.915836 -0.241752 -1.07005 0.00225883 0.0463045 -0.0106231 0 0 0 0 0 1 0 0 0 1 0 0 0 0 0 0 22 0.002 
76 2 0.015811 0.0478952 0.0291687 0 0 0 -0.817506 -0.99248 0.08899 0 -0.000164368 0 0 0 0 0 0 0 0 0 0 0 0 0 0 0 0 0 32 0.002 
786 1 0.00754692 0.0531294 0.029827 0 0 0 0.0308479 -0.557702 -0.193451 0.000598855 -0.000519874 0.000900112 1 0 0 0 0 0 0 0 0 0 0 0 0 0 0 0 36 0.002 
505 2 0.00303065 0.0544252 0.030027 0 0 0 0.025599 -0.268778 -0.139522 0 -0.000164368 0 0 0 0 0 0 0 0 0 0 0 0 0 0 0 0 0 50 0.002 
764 4 0.0137787 0.0545752 0.0299316 0 0 0 -0.256253 -0.546502 -0.110258 0 -0.000164368 0 0 0 0 0 0 0 0 0 0 0 0 0 0 0 0 0 44 0.002 
835 12 0.00933935 0.0580814 0.0298335 0 0 0 -0.224243 -0.4782 -0.239958 -0.000524955 -0.000529577 -8.04018e-05 0 0 0 0 0 0 0 0 0 0 0 1 0 0 0 0 33 0.002 
417 1 0.00341829 0.0594421 0.0296322 0 0 0 0.0968419 -0.467901 -0.115172 0 -0.000164368 0 0 0 0 0 0 0 0 0 0 0 0 0 0 0 0 0 60 0.002 
984 3 0.011605 0.0624297 0.0283221 0 0 0 -0.314683 -0.527991 -0.0211449 0 -0.000164368 0 0 0 0 0 0 0 0 0 0 0 0 0 0 0 0 0 30 0.002 
252 6 0.00732284 0.0660205 0.0281132 0 0 0 0.464936 -0.0576304 -0.683313 -0.0272485 -0.00440573 -0.00987967 0 0 0 0 0 1 0 0 0 0 0 0 0 0 0 0 31 0.002 
798 4 0.0154527 0.0661429 0.0300407 0 0 0 -0.401683 -1.57022 0.437391 0.000268925 -0.0124749 0.0309758 0 0 0 1 0 0 0 0 0 0 0 0 0 0 0 0 31 0.002 
548 4 0.0030348 0.0700277 0.0297894 0 0 0 0.0361344 -0.259992 0.163744 0 -0.000164368 0 0 0 0 0 0 0 0 0 0 0 0 0 0 0 0 0 44 0.002 
998 5 0.0104405 0.0682952 0.0291055 0 0 0 -0.0309827 -0.342522 0.194797 0.0214547 -0.00601664 0.0151275 0 0 0 0 0 2 0 0 0 0 0 0 0 0 0 0 19 0.002 
1153 8 0.00692633 0.0706502 0.02891 0 0 0 -0.0598988 -0.095613 -0.0848171 -1.73536e-05 -0.000145434 4.46915e-05 0 0 0 0 0 0 0 1 0 0 0 0 0 0 0 0 21 0.002 
553 7 0.0131599 0.0711777 0.0299949 0 0 0 0.0530129 0.000923522 0.0381573 -0.000119725 -0.00014608 -6.65486e-05 0 0 0 0 0 0 1 0 0 0 0 0 0 0 0 0 38 0.002 
107 2 0.0160232 0.0689835 0.0273756 0 0 0 -2.1798 -1.64302 -1.30295 -0.000268925 0.0121462 -0.0309758 0 0 0 1 0 0 0 0 0 0 0 0 0 0 0 0 28 0.002 
1186 8 0.00300901 0.0741443 0.0291107 0 0 0 0.00705905 -0.0876066 0.0150962 0 -0.000164368 0 0 0 0 0 0 0 0 0 0 0 0 0 0 0 0 0 10 0.002 
322 2 0.0102206 0.0734215 0.0284707 0 0 0 0.087034 -0.0295982 -0.0949382 0.000119725 -0.000182656 6.65486e-05 0 0 0 0 0 0 1 0 0 0 0 0 0 0 0 0 49 0.002 
636 8 0.0108191 0.0530035 0.0321231 0 0 0 -0.104442 -0.705575 0.0819908 -0.000598855 0.000191138 -0.000900112 1 0 0 0 0 0 0 0 0 0 0 0 0 0 0 0 20 0.002 
300 1 0.0158625 0.0616798 0.0320157 0 0 0 -0.126711 -0.85573 0.019626 0.026236 -1.94203e-05 -0.000953925 1 0 0 0 0 0 0 0 0 0 0 0 0 0 0 0 41 0.002 
326 4 0.0068183 0.0733674 0.0318429 0 0 0 -0.0335916 -0.187283 0.0078735 0.000243251 -0.000268991 -7.87446e-05 0 0 0 1 0 0 0 1 0 0 0 0 0 0 0 0 56 0.002 
1183 1 0.016804 0.0732206 0.0289374 0 0 0 -0.230977 -0.140151 -1.48053 0.0290796 0.0101371 0.017084 0 0 0 0 0 0 0 0 0 1 0 0 0 0 0 0 17 0.002 
1068 4 0.00481427 0.0521908 0.0329193 0 0 0 -0.0356216 -0.151225 -0.0380961 0 -0.000164368 0 0 0 0 0 0 0 0 0 0 0 0 0 0 0 0 0 14 0.002 
886 5 0.018115 0.0530439 0.0328599 0 0 0 -0.740834 -1.05294 -0.245771 0 -0.000164368 0 0 0 0 0 0 0 0 0 0 0 0 0 0 0 0 0 26 0.002 
499 2 0.00300957 0.0572603 0.0329829 0 0 0 0.0104627 -0.314444 0.0214027 -0.000705687 3.53603e-05 -0.00027726 0 0 0 0 0 0 0 0 0 0 0 0 0 0 0 0 42 0.002 
883 2 0.00700507 0.0573701 0.0330026 0 0 0 0.0179925 -0.367502 -0.0122175 0.0013231 0.000579386 -0.000813574 0 0 0 0 0 0 0 0 0 0 0 1 0 0 0 0 23 0.002 
603 7 0.0046298 0.0623108 0.0329477 0 0 0 -0.3022 -0.383755 -0.0213027 0 -0.000164368 0 0 0 0 0 0 0 0 0 0 0 0 0 0 0 0 0 40 0.002 
1074 10 0.0121288 0.0626861 0.0329285 0 0 0 -0.01824 -0.401528 -0.067038 -0.026236 -0.000309316 0.000953925 1 0 0 0 0 0 0 0 0 0 0 0 0 0 0 0 13 0.002 
369 6 0.00820016 0.0647439 0.032801 0 0 0 -0.0412984 -0.488299 -0.083916 0 -0.000164368 0 0 0 0 0 0 0 0 0 0 0 0 0 0 0 0 0 40 0.002 
493 5 0.00346073 0.0661588 0.0324111 0 0 0 0.134687 -0.254119 -0.182536 0 -0.000164368 0 0 0 0 0 0 0 0 0 0 0 0 0 0 0 0 0 52 0.002 
314 6 0.00602653 0.0693584 0.0328163 0 0 0 -0.049751 -0.20458 -0.0571913 0 -0.000164368 0 0 0 0 0 0 0 0 0 0 0 0 0 0 0 0 0 31 0.002 
741 5 0.0121387 0.0679459 0.0329859 0 0 0 0.0286546 -0.125812 -0.00231179 0 -0.000164368 0 0 0 0 0 0 0 0 0 0 0 0 0 0 0 0 0 30 0.002 
1104 4 0.00300615 0.0724549 0.0329918 0 0 0 -0.0121309 0.0650414 -0.0353257 0 -0.000164368 0 0 0 0 0 0 0 0 0 0 0 0 0 0 0 0 0 9 0.002 
240 1 0.0101229 0.0714342 0.0329991 0 0 0 0.026319 -0.12005 -0.00174186 -0.000225897 -7.868e-05 3.40531e-05 0 0 0 1 0 0 0 0 0 0 0 0 0 0 0 0 44 0.002 
416 5 0.016071 0.0703926 0.0327897 0 0 0 0.142377 -0.110313 -0.0715073 0 -0.000164368 0 0 0 0 0 0 0 0 0 0 0 0 0 0 0 0 0 50 0.002 
490 2 0.0144595 0.0744414 0.0329701 0 0 0 0.0292613 -0.110593 -0.02401 0 -0.000164368 0 0 0 0 0 0 0 0 0 0 0 0 0 0 0 0 0 70 0.002 
131 7 0.00668756 0.0441918 0.0358183 0 0 0 -0.405895 2.51652 -3.07353 0 -0.000164368 0 0 0 0 0 0 0 0 0 0 0 0 0 0 0 0 0 53 0.002 
425 1 0.0115006 0.0749553 0.0202338 0 0 0 -0.332047 -0.147661 -1.22322 0.0249284 -0.0182096 -0.0468936 0 0 0 0 0 0 0 0 1 0 0 0 0 0 0 0 47 0.002 
801 5 0.00526738 0.0786749 -0.0319294 0 0 0 0.122433 -1.51475 -0.353956 0 -0.000164368 0 0 0 0 0 0 0 0 0 0 0 0 0 0 0 0 0 29 0.002 
414 7 0.00654128 0.0852564 -0.0313361 0 0 0 -0.311396 -0.570296 0.405969 0 -0.000164368 0 0 0 0 0 0 0 0 0 0 0 0 0 0 0 0 0 47 0.002 
1026 6 0.00361347 0.0891557 -0.0328303 0 0 0 0.455673 -1.27179 0.369867 -0.0684882 -0.191704 -0.0343654 0 0 0 0 0 1 0 0 0 0 0 0 0 0 0 0 29 0.002 
947 4 0.0037666 0.0930736 -0.03285 0 0 0 -0.867763 -2.20234 -0.265514 0.0684882 0.191375 0.0343654 0 0 0 0 0 1 0 0 0 0 0 0 0 0 0 0 22 0.002 
84 8 0.00759511 0.0944335 -0.0317204 0 0 0 -0.874544 -2.32191 2.53624 0 -0.000164368 0 0 0 0 0 0 0 0 0 0 0 0 0 0 0 0 0 47 0.002 
261 1 0.0038047 0.0974236 -0.0323196 0 0 0 -0.90201 -1.07397 -0.969045 0 -0.000164368 0 0 0 0 0 0 0 0 0 0 0 0 0 0 0 0 0 38 0.002 
522 2 0.0115192 0.100095 -0.0329014 0 0 0 -0.407225 1.40602 0.112682 0 -0.000164368 0 0 0 0 0 0 0 0 0 0 0 0 0 0 0 0 0 56 0.002 
873 6 0.00855011 0.103929 -0.0328595 0 0 0 -1.04469 2.33041 0.195374 0.124044 -0.113611 0.0039586 0 0 0 0 0 1 0 0 0 0 0 0 0 0 0 0 18 0.002 
1118 6 0.0146459 0.103792 -0.0318947 0 0 0 1.24387 2.02081 0.564122 0 -0.000164368 0 0 0 0 0 0 0 0 0 0 0 0 0 0 0 0 0 8 0.002 
814 13 0.00383062 0.105621 -0.0325317 0 0 0 -0.586173 -0.463067 1.05528 -0.456929 -0.128302 -0.183156 0 0 0 0 0 0 0 0 0 0 0 0 2 0 0 0 44 0.002 
710 2 0.0132275 0.107724 -0.0320813 0 0 0 -0.521825 -0.0149969 -0.121042 0 -0.000164368 0 0 0 0 0 0 0 0 0 0 0 0 0 0 0 0 0 31 0.002 
1254 3 0.0171241 0.107477 -0.032967 0 0 0 -0.578558 0.0428617 0.0100602 0 -0.000164368 0 0 0 0 0 0 0 0 0 0 0 0 0 0 0 0 0 1 0.002 
1218 8 0.0071022 0.107635 -0.0327249 0 0 0 -1.69069 -0.899001 1.20991 0.345253 0.189229 0.0932838 0 0 0 0 0 1 0 0 0 0 0 0 1 0 0 0 5 0.002 
293 1 0.00306391 0.100952 -0.030082 0 0 0 -3.89371 -0.683891 -0.0579985 0 -0.000164368 0 0 0 0 0 0 0 0 0 0 0 0 0 0 0 0 0 41 0.002 
1286 9 0.0072342 0.10591 -0.0288398 0 0 0 -0.974833 -0.0524017 1.51142 0.384208 0.0289549 -0.0413013 0 0 0 0 0 0 0 0 1 0 0 0 0 0 0 0 1 0.002 
920 3 0.0150812 0.0769431 -0.0291321 0 0 0 -5.19258 1.34528 -1.41768 0 -0.000164368 0 0 0 0 0 0 0 0 0 0 0 0 0 0 0 0 0 23 0.002 
843 4 0.00675947 0.0792086 -0.0271417 0 0 0 0.981795 -1.35161 0.170648 0 -0.000164368 0 0 0 0 0 0 0 0 0 0 0 0 0 0 0 0 0 11 0.002 
855 7 0.00603144 0.0986109 -0.0283256 0 0 0 -6.05158 0.853108 -0.375671 0 -0.000164368 0 0 0 0 0 0 0 0 0 0 0 0 0 0 0 0 0 50 0.002 
1139 5 0.00341355 0.105935 -0.0285956 0 0 0 -1.19801 -3.75169 0.131974 -0.396576 0.0229076 0.127215 0 0 0 0 0 0 0 0 1 0 0 0 1 0 0 0 9 0.002 
350 8 0.0112166 0.104427 -0.0283564 0 0 0 -1.10013 -4.78671 -2.31409 0 -0.000164368 0 0 0 0 0 0 0 0 0 0 0 0 0 0 0 0 0 43 0.002 
1163 5 0.0153779 0.10744 -0.02865 0 0 0 -0.638957 -0.134507 0.0955565 0 -0.000164368 0 0 0 0 0 0 0 0 0 0 0 0 0 0 0 0 0 18 0.002 
1224 1 0.00494368 0.0996619 -0.0245109 0 0 0 -2.97907 -0.532785 3.37121 0 -0.000164368 0 0 0 0 0 0 0 0 0 0 0 0 0 0 0 0 0 1 0.002 
430 4 0.00637934 0.108003 -0.0252727 0 0 0 -2.92509 -0.377894 2.04067 0.00599925 0.0258514 -0.0115418 0 0 0 0 0 0 0 0 0 0 0 0 0 0 0 0 42 0.002 
343 2 0.00368508 0.0856954 -0.0229869 0 0 0 0.0674899 0.151221 -0.307257 0 -0.000164368 0 0 0 0 0 0 0 0 0 0 0 0 0 0 0 0 0 43 0.002 
574 5 0.0160847 0.0907337 -0.0249256 0 0 0 -0.472226 -0.488579 -1.06817 0 -0.000164368 0 0 0 0 0 0 0 0 0 0 0 0 0 0 0 0 0 26 0.002 
137 1 0.00560393 0.106073 -0.019182 0 0 0 -8.93604 2.41647 7.75055 0 -0.000164368 0 0 0 0 0 0 0 0 0 0 0 0 0 0 0 0 0 30 0.002 
2 6 0.01201 0.101423 -0.0174103 0 0 0 -1.38515 -1.74306 3.98241 0 -0.000164368 0 0 0 0 0 0 0 0 0 0 0 0 0 0 0 0 0 41 0.002 
888 1 0.015188 0.107905 -0.0204978 0 0 0 -0.685176 -0.0864205 0.243627 0 -0.000164368 0 0 0 0 0 0 0 0 0 0 0 0 0 0 0 0 0 28 0.002 
707 2 0.0114049 0.107165 -0.01799 0 0 0 -0.677257 0.774703 1.30043 0 -0.000164368 0 0 0 0 0 0 0 0 0 0 0 0 0 0 0 0 0 51 0.002 
721 5 0.0157838 0.0870258 -0.0159012 0 0 0 -2.35229 0.187567 1.38051 0 -0.000164368 0 0 0 0 0 0 0 0 0 0 0 0 0 0 0 0 0 36 0.002 
1099 2 0.00853786 0.102882 -0.0157161 0 0 0 -2.70913 0.407299 3.69501 0 -0.000164368 0 0 0 0 0 0 0 0 0 0 0 0 0 0 0 0 0 14 0.002 
203 3 0.00421513 0.0787106 -0.0146765 0 0 0 0.354231 -0.0716135 -0.80625 0 -0.000164368 0 0 0 0 0 0 0 0 0 0 0 0 0 0 0 0 0 47 0.002 
573 1 0.0174337 0.0930365 -0.0143607 0 0 0 -0.52127 -1.27667 1.59944 0 -0.000164368 0 0 0 0 0 0 0 0 0 0 0 0 0 0 0 0 0 46 0.002 
1053 9 0.00548113 0.094238 -0.0137009 0 0 0 0.538441 -0.961371 -0.468677 0 -0.000164368 0 0 0 0 0 0 0 0 0 0 0 0 0 0 0 0 0 15 0.002 
1273 2 0.0156366 0.106736 -0.0143952 0 0 0 -0.588804 -0.322677 0.353846 0 -0.000164368 0 0 0 0 0 0 0 0 0 0 0 0 0 0 0 0 0 0 0.002 
1259 7 0.01501 0.0980108 -0.0112787 0 0 0 -0.52489 -0.427052 0.359655 0 -0.000164368 0 0 0 0 0 0 0 0 0 0 0 0 0 0 0 0 0 1 0.002 
898 1 0.0178148 0.103782 -0.0124094 0 0 0 -0.488547 -0.47537 0.882192 0 -0.000164368 0 0 0 0 0 0 0 0 0 0 0 0 0 0 0 0 0 19 0.002 
308 1 0.0164634 0.10798 -0.00997454 0 0 0 -0.431014 -0.0275829 0.975252 0 -0.000164368 0 0 0 0 0 0 0 0 0 0 0 0 0 0 0 0 0 55 0.002 
1237 4 0.00695993 0.0959839 -0.00650657 0 0 0 0.312763 0.181312 -0.377825 0 -0.000164368 0 0 0 0 0 0 0 0 0 0 0 0 0 0 0 0 0 1 0.002 
467 1 0.00536894 0.102066 -0.00651162 0 0 0 0.470909 -0.667798 0.940876 0 -0.000164368 0 0 0 0 0 0 0 0 0 0 0 0 0 0 0 0 0 41 0.002 
784 7 0.0134812 0.102324 -0.00786868 0 0 0 1.65116 -1.33154 0.480207 0 -0.000164368 0 0 0 0 0 0 0 0 0 0 0 0 0 0 0 0 0 32 0.002 
1140 12 0.00396975 0.107289 -0.00563473 0 0 0 0.124469 -0.227405 1.61422 0 -0.000164368 0 0 0 0 0 0 0 0 0 0 0 0 0 0 0 0 0 12 0.002 
339 4 0.00950967 0.0989864 -0.00477294 0 0 0 -0.2099 -0.378919 -0.295463 0 -0.000164368 0 0 0 0 0 0 0 0 0 0 0 0 0 0 0 0 0 38 0.002 
1280 1 0.0171844 0.0983359 -0.00514651 0 0 0 0.594765 -0.755434 0.615776 0.010634 0.0357759 -0.0509029 0 0 0 0 0 0 0 0 0 0 0 0 0 0 0 0 0 0.002 
593 1 0.0130636 0.102374 -0.00335107 0 0 0 0.202439 0.0696566 1.72435 0 -0.000164368 0 0 0 0 0 0 0 0 0 0 0 0 0 0 0 0 0 37 0.002 
891 2 0.018657 0.106501 -0.00505294 0 0 0 0.129932 -0.538732 0.949701 0 -0.000164368 0 0 0 0 0 0 0 0 0 0 0 0 0 0 0 0 0 17 0.002 
1135 5 0.00752448 0.0782487 -0.00285564 0 0 0 0.159573 -0.117182 -0.231683 0 -0.000164368 0 0 0 0 0 0 0 0 0 0 0 0 0 0 0 0 0 10 0.002 
1111 4 0.0157382 0.0922972 -0.00399352 0 0 0 -1.38922 0.407748 -2.66665 0 -0.000164368 0 0 0 0 0 0 0 0 0 0 0 0 0 0 0 0 0 13 0.002 
626 1 0.0148616 0.096249 -0.00269725 0 0 0 -0.244728 1.34392 0.884348 -0.010634 -0.0361046 0.0509029 0 0 0 0 0 0 0 0 0 0 0 0 0 0 0 0 34 0.002 
1051 10 0.00426482 0.0974687 -0.00234751 0 0 0 -0.121785 -0.41748 0.415694 0 -0.000164368 0 0 0 0 0 0 0 0 0 0 0 0 0 0 0 0 0 15 0.002 
658 8 0.0092167 0.10727 -0.0015308 0 0 0 -0.11636 -0.190001 1.15654 0 -0.000164368 0 0 0 0 0 0 0 0 0 0 0 0 0 0 0 0 0 30 0.002 
931 4 0.00989555 0.0759748 -0.000238481 0 0 0 1.02214 -0.855321 -0.31525 0 -0.000164368 0 0 0 0 0 0 0 0 0 0 0 0 0 0 0 0 0 20 0.002 
915 9 0.00355023 0.0914954 0.000783778 0 0 0 0.841744 0.504889 0.177912 0 -0.000164368 0 0 0 0 0 0 0 0 0 0 0 0 0 0 0 0 0 32 0.002 
1136 1 0.0053898 0.101763 0.000255725 0 0 0 -0.274488 -1.10345 1.59436 0 -0.000164368 0 0 0 0 0 0 0 0 0 0 0 0 0 0 0 0 0 17 0.002 
669 1 0.0153605 0.102185 0.000177212 0 0 0 0.514355 -0.0585419 0.786456 0 -0.000164368 0 0 0 0 0 0 0 0 0 0 0 0 0 0 0 0 0 53 0.002 
863 1 0.012498 0.105382 0.000226071 0 0 0 0.408961 0.150561 1.11034 0 -0.000164368 0 0 0 0 0 0 0 0 0 0 0 0 0 0 0 0 0 22 0.002 
176 2 0.00833761 0.088066 0.0020005 0 0 0 -0.730771 0.321439 0.186062 0 -0.000164368 0 0 0 0 0 0 0 0 0 0 0 0 0 0 0 0 0 39 0.002 
1250 6 0.00350948 0.0967383 0.00227846 0 0 0 0.057101 0.0145472 -0.0428599 0 -0.000164368 0 0 0 0 0 0 0 0 0 0 0 0 0 0 0 0 0 1 0.002 
1203 5 0.00497251 0.104214 0.00354562 0 0 0 0.0699549 0.646624 1.25214 0 -0.000164368 0 0 0 0 0 0 0 0 0 0 0 0 0 0 0 0 0 7 0.002 
1232 7 0.0115755 0.0979984 0.00482388 0 0 0 0.422416 2.46958 -1.07245 0 -0.000164368 0 0 0 0 0 0 0 0 0 0 0 0 0 0 0 0 0 5 0.002 
1230 3 0.0171399 0.106472 0.00466921 0 0 0 0.240725 0.27864 1.06867 0 -0.000164368 0 0 0 0 0 0 0 0 0 0 0 0 0 0 0 0 0 1 0.002 
254 10 0.00537636 0.0863712 0.00604404 0 0 0 0.720925 0.361826 0.141714 0 -0.000164368 0 0 0 0 0 0 0 0 0 0 0 0 0 0 0 0 0 42 0.002 
1133 6 0.00500834 0.098702 0.00618286 0 0 0 0.294989 -0.471131 0.555564 0 -0.000164368 0 0 0 0 0 0 0 0 0 0 0 0 0 0 0 0 0 7 0.002 
364 3 0.00416438 0.103313 0.00737439 0 0 0 0.283813 -0.303264 1.27958 0.000125277 -0.000393315 -0.000294776 0 0 1 0 0 0 0 0 0 0 0 0 0 0 0 0 37 0.002 
576 2 0.0120896 0.103123 0.00741454 0 0 0 0.411715 -0.496705 0.675787 0 -0.000164368 0 0 0 0 0 0 0 0 0 0 0 0 0 0 0 0 0 23 0.002 
877 4 0.00866367 0.0882735 0.00834344 0 0 0 -1.10638 0.366783 -0.502195 0 -0.000164368 0 0 0 0 0 0 0 0 0 0 0 0 0 0 0 0 0 23 0.002 
990 2 0.0102168 0.107395 0.00937881 0 0 0 -0.0698305 -0.173644 0.301589 0 -0.000164368 0 0 0 0 0 0 0 0 0 0 0 0 0 0 0 0 0 19 0.002 
926 2 0.00422148 0.095157 0.00850833 0 0 0 -0.0848894 -0.294262 -0.159416 0 -0.000164368 0 0 0 0 0 0 0 0 0 0 0 0 0 0 0 0 0 23 0.002 
1207 4 0.0148624 0.100246 0.00846224 0 0 0 -0.0318651 -0.754019 0.147326 0 -0.000164368 0 0 0 0 0 0 0 0 0 0 0 0 0 0 0 0 0 1 0.002 
1096 8 0.00390617 0.107485 0.00829028 0 0 0 0.223341 -0.050613 0.534518 0 -0.000164368 0 0 0 0 0 0 0 0 0 0 0 0 0 0 0 0 0 14 0.002 
1212 1 0.00694894 0.0925369 0.0109011 0 0 0 0.0860169 -0.0254046 -0.210521 0 -0.000164368 0 0 0 0 0 0 0 0 0 0 0 0 0 0 0 0 0 9 0.002 
253 2 0.0033976 0.0999349 0.0103729 0 0 0 0.0999987 -0.291496 0.108558 0 -0.000164368 0 0 0 0 0 0 0 0 0 0 0 0 0 0 0 0 0 38 0.002 
1288 10 0.0161836 0.101333 0.0120812 0 0 0 -0.477435 -0.0178278 0.306439 0 -0.000164368 0 0 0 0 0 0 0 0 0 0 0 0 0 0 0 0 0 0 0.002 
108 2 0.00300194 0.103974 0.0111327 0 0 0 -0.260922 -0.259225 1.24986 -0.000125277 6.45788e-05 0.000294776 0 1 0 0 0 0 0 0 0 0 0 0 0 0 0 0 53 0.002 
996 2 0.00792518 0.104574 0.0110551 0 0 0 -0.101756 0.0238563 0.450216 0 -0.000164368 0 0 0 0 0 0 0 0 0 0 0 0 0 0 0 0 0 26 0.002 
1101 3 0.00305243 0.107871 0.0122384 0 0 0 0.0375732 -0.0891684 0.323173 0 -0.000164368 0 0 0 0 0 0 0 0 0 0 0 0 0 0 0 0 0 8 0.002 
1204 4 0.0113703 0.0803338 0.012504 0 0 0 -0.376852 -0.26879 -0.255709 0 -0.000164368 0 0 0 0 0 0 0 0 0 0 0 0 0 0 0 0 0 6 0.002 
1287 2 0.0186331 0.0816145 0.0138721 0 0 0 0.000434829 -0.351218 -0.120332 0 -0.000164368 0 0 0 0 0 0 0 0 0 0 0 0 0 0 0 0 0 1 0.002 
606 4 0.00359146 0.0870917 0.0127264 0 0 0 0.0399059 -0.0839295 -0.131169 0 -0.000164368 0 0 0 0 0 0 0 0 0 0 0 0 0 0 0 0 0 54 0.002 
481 2 0.00303929 0.093509 0.0125256 0 0 0 -0.00600045 -0.225926 0.0359941 0 -0.000164368 0 0 0 0 0 0 0 0 0 0 0 0 0 0 0 0 0 23 0.002 
560 4 0.00971145 0.0930899 0.0142482 0 0 0 0.0374075 -0.232682 -0.128379 0 -0.000164368 0 0 0 0 0 0 0 0 0 0 0 0 0 0 0 0 0 28 0.002 
967 2 0.0152322 0.0946704 0.014181 0 0 0 0.0227593 -0.216411 -0.0669082 0 -0.000164368 0 0 0 0 0 0 0 0 0 0 0 0 0 0 0 0 0 17 0.002 
1001 4 0.0046165 0.0994068 0.0141602 0 0 0 0.195913 -0.246625 0.158342 0 -0.000164368 0 0 0 0 0 0 0 0 0 0 0 0 0 0 0 0 0 27 0.002 
224 5 0.00862184 0.0999814 0.0124582 0 0 0 -0.645766 -0.18687 0.332379 0.00690588 -0.000247418 0.00043206 0 0 0 0 1 0 0 0 0 0 0 0 0 0 0 0 51 0.002 
287 6 0.0125671 0.0996051 0.0128951 0 0 0 -0.373871 -0.307267 0.772032 -0.00690588 -8.1318e-05 -0.00043206 0 0 0 0 1 0 0 0 0 0 0 0 0 0 0 0 33 0.002 
797 6 0.0116778 0.103661 0.0129773 0 0 0 0.0209515 -0.0514038 0.609108 0 -0.000164368 0 0 0 0 0 0 0 0 0 0 0 0 0 0 0 0 0 33 0.002 
1208 12 0.0154626 0.105209 0.0148398 0 0 0 -0.0832367 -0.0509861 0.992926 0 -0.000164368 0 0 0 0 0 0 0 0 0 0 0 0 0 0 0 0 0 6 0.002 
882 3 0.00844251 0.107957 0.0131536 0 0 0 0.0122479 0.112484 0.3455 4.28007e-05 -0.000136462 2.43503e-05 0 0 1 0 0 0 0 0 0 0 0 0 0 0 0 0 25 0.002 
229 6 0.0125711 0.107931 0.0125735 0 0 0 -0.0621714 -0.0202776 0.301305 0 -0.000164368 0 0 0 0 0 0 0 0 0 0 0 0 0 0 0 0 0 46 0.002 
192 7 0.0094065 0.083774 0.0164351 0 0 0 0.470728 -0.249619 0.19246 0 -0.000164368 0 0 0 0 0 0 0 0 0 0 0 0 0 0 0 0 0 49 0.002 
297 3 0.00440626 0.0885738 0.0165639 0 0 0 -0.103534 -0.273239 -0.105644 0 -0.000164368 0 0 0 0 0 0 0 0 0 0 0 0 0 0 0 0 0 43 0.002 
572 3 0.0114823 0.0892004 0.0147843 0 0 0 0.124826 -0.35471 0.0627134 0 -0.000164368 0 0 0 0 0 0 0 0 0 0 0 0 0 0 0 0 0 36 0.002 
1009 1 0.0144227 0.0911702 0.0103199 0 0 0 0.131978 1.96718 1.12458 0 -0.000164368 0 0 0 0 0 0 0 0 0 0 0 0 0 0 0 0 0 12 0.002 
827 2 0.0060227 0.0922521 0.0163911 0 0 0 -0.0326345 -0.193333 -0.0274623 0 -0.000164368 0 0 0 0 0 0 0 0 0 0 0 0 0 0 0 0 0 23 0.002 
1215 2 0.00660948 0.0960473 0.0152079 0 0 0 -0.0671232 -0.250867 0.068445 0 -0.000164368 0 0 0 0 0 0 0 0 0 0 0 0 0 0 0 0 0 1 0.002 
179 1 0.010297 0.0973336 0.0163683 0 0 0 0.023289 -0.273194 0.0043779 0.000165298 -0.000283932 -0.000346508 1 0 0 0 0 0 0 0 0 0 0 0 0 0 0 0 37 0.002 
860 11 0.00867272 0.102951 0.0156125 0 0 0 -0.0721428 -0.190894 0.508021 0 -0.000164368 0 0 0 0 0 0 0 0 0 0 0 0 0 0 0 0 0 30 0.002 
1002 1 0.00299883 0.1055 0.0159356 0 0 0 0.00719931 -0.130621 0.267101 0.000201202 -6.75791e-05 2.74311e-05 0 0 0 0 0 0 0 0 0 0 0 0 0 0 0 0 18 0.002 
1256 2 0.00683136 0.106367 0.0167122 0 0 0 -0.0354658 -0.109667 0.414047 0 -0.000164368 0 0 0 0 0 0 0 0 0 0 0 0 0 0 0 0 0 4 0.002 
815 10 0.0109553 0.107101 0.0161438 0 0 0 -0.0100684 -0.0453763 0.335732 0.000289212 -0.00017526 9.65738e-05 0 0 1 0 0 0 0 0 0 1 0 0 0 0 0 0 37 0.002 
400 7 0.00932348 0.0783816 0.0189049 0 0 0 -0.178594 -0.173009 -0.175533 0.00122533 -0.00986215 0.000296749 0 0 0 0 0 0 1 0 0 0 0 0 0 0 0 0 51 0.002 
680 6 0.00639368 0.0810936 0.0187951 0 0 0 0.0523413 -0.105033 -0.0550154 -0.00122533 0.00953342 -0.000296749 0 0 0 0 0 0 1 0 0 0 0 0 0 0 0 0 53 0.002 
924 7 0.0186174 0.0837968 0.0189151 0 0 0 0.132481 -0.386745 0.00553706 0 -0.000164368 0 0 0 0 0 0 0 0 0 0 0 0 0 0 0 0 0 20 0.002 
570 1 0.00537897 0.085042 0.0188186 0 0 0 0.114957 -0.11032 -0.0223059 0 -0.000164368 0 0 0 0 0 0 0 0 0 0 0 0 0 0 0 0 0 36 0.002 
1185 6 0.00924451 0.0875119 0.0179255 0 0 0 -0.0763422 -0.115471 0.034096 0 -0.000164368 0 0 0 0 0 0 0 0 0 0 0 0 0 0 0 0 0 8 0.002 
406 5 0.0136713 0.0872308 0.018747 0 0 0 -0.181719 -0.25446 -0.337306 0 -0.000164368 0 0 0 0 0 0 0 0 0 0 0 0 0 0 0 0 0 50 0.002 
319 4 0.0126753 0.0933321 0.0169587 0 0 0 -0.00825176 -0.250861 -0.0507416 0 -0.000164368 0 0 0 0 0 0 0 0 0 0 0 0 0 0 0 0 0 8 0.002 
674 10 0.00306066 0.09693 0.0170038 0 0 0 -0.0320658 -0.20071 0.105735 0 -0.000164368 0 0 0 0 0 0 0 0 0 0 0 0 0 0 0 0 0 31 0.002 
902 3 0.0163008 0.0976654 0.0185648 0 0 0 -0.00256655 -0.165166 0.136754 0 -0.000164368 0 0 0 0 0 0 0 0 0 0 0 0 0 0 0 0 0 19 0.002 
963 3 0.0133594 0.100137 0.0174322 0 0 0 0.00339446 -0.185134 0.220331 7.12799e-05 -0.000154344 -0.000253121 0 0 1 0 0 0 0 0 0 0 0 0 0 0 0 0 21 0.002 
887 1 0.00372445 0.101574 0.0174214 0 0 0 -0.0111695 -0.254718 0.0572064 0.000163155 -0.000236094 0.000559728 1 0 0 0 0 0 0 0 0 0 0 0 0 0 0 0 22 0.002 
769 5 0.0137683 0.106644 0.0189502 0 0 0 0.215111 -0.0978442 0.129087 -0.000332013 -0.000181382 -0.000120924 0 0 0 0 0 0 0 0 0 1 0 0 0 0 0 0 31 0.002 
1063 3 0.0152856 0.105799 0.0328667 0 0 0 0.0365211 -0.11362 -0.00232039 0 -0.000164368 0 0 0 0 0 0 0 0 0 0 0 0 0 0 0 0 0 13 0.002 
650 3 0.012257 0.0811254 0.0193022 0 0 0 -0.21631 -0.0998879 -0.218156 0 -0.000164368 0 0 0 0 0 0 0 0 0 0 0 0 0 0 0 0 0 42 0.002 
959 6 0.0146231 0.0840577 0.0210623 0 0 0 -0.283273 -0.262229 -0.0963169 0 -0.000164368 0 0 0 0 0 0 0 0 0 0 0 0 0 0 0 0 0 36 0.002 
1223 2 0.00360074 0.0912599 0.019952 0 0 0 -0.00611107 -0.160514 -0.0517404 0 -0.000164368 0 0 0 0 0 0 0 0 0 0 0 0 0 0 0 0 0 4 0.002 
245 1 0.0101635 0.0911971 0.0192261 0 0 0 -0.0126022 -0.118901 0.105158 0 -0.000164368 0 0 0 0 0 0 0 0 0 0 0 0 0 0 0 0 0 32 0.002 
1244 12 0.0175479 0.0907844 0.0202021 0 0 0 -0.00813337 -0.170203 -0.132234 -0.00121655 0.00166322 -0.00116287 0 0 0 0 0 0 0 0 0 0 0 1 0 0 0 0 7 0.002 
58 1 0.00673446 0.0942682 0.0200165 0 0 0 -0.0852517 -0.114155 -0.0309961 0 -0.000164368 0 0 0 0 0 0 0 0 0 0 0 0 0 0 0 0 0 46 0.002 
262 3 0.0129916 0.0939505 0.0209666 0 0 0 0.135045 -0.0681399 -0.0449742 -0.00261945 0.0014043 -0.00316992 0 0 1 0 0 0 0 0 0 0 0 0 0 0 0 0 39 0.002 
1188 4 0.00308753 0.0979612 0.0208846 0 0 0 -0.096889 -0.133097 0.0752575 0 -0.000164368 0 0 0 0 0 0 0 0 0 0 0 0 0 0 0 0 0 6 0.002 
128 4 0.00961419 0.0970327 0.0202965 0 0 0 -0.0594607 -0.121287 0.0010785 -0.000165298 -4.48044e-05 0.000346508 1 0 0 0 0 0 0 0 0 0 0 0 0 0 0 0 44 0.002 
806 8 0.0072366 0.100837 0.0192197 0 0 0 0.0409935 -0.152321 -0.0166523 7.53691e-05 -9.32306e-05 -0.000841527 0 0 0 0 0 0 0 1 0 0 0 0 0 0 0 0 32 0.002 
1214 5 0.0112046 0.101306 0.0205863 0 0 0 -0.0107965 -0.169834 0.271549 -7.12799e-05 -0.000174392 0.000253121 0 0 1 0 0 0 0 0 0 0 0 0 0 0 0 0 2 0.002 
787 3 0.00906871 0.104613 0.0195821 0 0 0 0.0449033 -0.103346 0.419193 0.00890223 -0.00485411 -0.00215678 0 0 1 0 0 0 0 0 0 0 0 0 0 0 0 0 29 0.002 
59 3 0.0178934 0.105615 0.019328 0 0 0 -0.0122088 -0.233315 -0.0389044 0 -0.000164368 0 0 0 0 0 0 0 0 0 0 0 0 0 0 0 0 0 17 0.002 
468 8 0.00685099 0.107792 0.020531 0 0 0 0.224624 -0.0404428 0.211426 -0.00848985 0.00436219 0.00195195 0 0 1 0 0 0 0 1 0 0 0 0 0 0 0 0 51 0.002 
338 6 0.00705265 0.0758627 0.021908 0 0 0 -0.116624 -0.369765 -0.1636 0 -0.000164368 0 0 0 0 0 0 0 0 0 0 0 0 0 0 0 0 0 45 0.002 
907 8 0.0157701 0.0751252 0.0216673 0 0 0 -0.382274 -0.165176 -0.285785 0 -0.000164368 0 0 0 0 0 0 0 0 0 0 0 0 0 0 0 0 0 28 0.002 
193 8 0.0100063 0.0785678 0.0231936 0 0 0 -0.691774 0.861236 -0.875008 0.00116245 -0.0167942 -0.000725843 0 0 0 0 0 0 0 2 0 0 0 0 0 0 0 0 53 0.002 
941 3 0.0151957 0.0791582 0.0212723 0 0 0 0.00414579 0.0807462 -0.171083 -0.000323033 -0.000404441 0.000263295 0 0 0 0 0 0 0 0 0 0 0 0 0 0 0 0 30 0.002 
1229 6 0.00325492 0.0799358 0.0232542 0 0 0 -0.13954 -0.116238 -0.121047 0 -0.000164368 0 0 0 0 0 0 0 0 0 0 0 0 0 0 0 0 0 4 0.002 
321 7 0.00633973 0.0830151 0.0225497 0 0 0 -0.00358823 -0.0372545 -0.0951083 0 -0.000164368 0 0 0 0 0 0 0 0 0 0 0 0 0 0 0 0 0 34 0.002 
446 9 0.0104638 0.0841309 0.0215444 0 0 0 -0.16731 -0.12295 -0.289285 0 -0.000164368 0 0 0 0 0 0 0 0 0 0 0 0 0 0 0 0 0 54 0.002 
278 11 0.00364588 0.0875644 0.02178 0 0 0 0.0379185 -0.173324 -0.0352439 0 -0.000164368 0 0 0 0 0 0 0 0 0 0 0 0 0 0 0 0 0 49 0.002 
126 2 0.00759607 0.0886223 0.0216962 0 0 0 0.0322224 -0.12781 0.0569472 0 -0.000164368 0 0 0 0 0 0 0 0 0 0 0 0 0 0 0 0 0 32 0.002 
601 8 0.0116713 0.0876956 0.0228991 0 0 0 -0.0969995 -0.178395 -0.0947223 0 -0.000164368 0 0 0 0 0 0 0 0 0 0 0 0 0 0 0 0 0 35 0.002 
753 6 0.0159335 0.0877135 0.0223452 0 0 0 -0.206052 -0.250694 -0.042408 0 -0.000164368 0 0 0 0 0 0 0 0 0 0 0 0 0 0 0 0 0 62 0.002 
661 2 0.00622268 0.0920936 0.0234334 0 0 0 0.0225124 -0.176336 -0.0293079 0.000249722 -3.61079e-05 -0.000133586 0 1 0 0 0 0 0 0 0 0 0 0 0 0 0 0 21 0.002 
1077 1 0.010234 0.0915235 0.0232156 0 0 0 0.0647291 -0.103883 0.107506 0.000762731 0.000779891 -0.00298578 1 0 0 0 0 0 0 0 0 0 0 0 0 0 0 0 12 0.002 
583 1 0.0164924 0.0935909 0.0228563 0 0 0 0.0766524 -0.163094 -0.0499025 0.00124159 0.0013668 0.00117988 2 0 1 0 0 0 0 0 0 0 0 0 0 0 0 0 48 0.002 
582 7 0.00301348 0.0943796 0.0226677 0 0 0 -0.00333182 -0.170214 0.0362405 0 -0.000164368 0 0 0 0 0 0 0 0 0 0 0 0 0 0 0 0 0 31 0.002 
934 1 0.0164778 0.0976402 0.0225621 0 0 0 -0.0510284 -0.153739 0.151405 0.0021821 -0.00252088 -0.00201743 1 0 0 0 0 0 0 0 0 0 0 0 0 0 0 0 32 0.002 
296 2 0.00665454 0.0987791 0.0225931 0 0 0 -0.0315379 -0.157983 0.0224543 -7.53691e-05 -0.000235506 0.000841527 0 0 0 0 0 0 0 1 0 0 0 0 0 0 0 0 24 0.002 
1025 4 0.0123478 0.0983389 0.0230547 0 0 0 0.0856985 -0.341954 0.0534412 0 -0.000164368 0 0 0 0 0 0 0 0 0 0 0 0 0 0 0 0 0 26 0.002 
952 3 0.00342247 0.10193 0.0213897 0 0 0 0.00726335 -0.166604 0.111745 0.000319134 -0.0022789 -0.00796092 1 0 1 0 0 0 0 0 0 0 0 0 0 0 0 0 16 0.002 