ITEM: TIMESTEP
9200000
ITEM: NUMBER OF ATOMS
16547
ITEM: BOX BOUNDS ff ff ff
-0.01 0.45
-0.15 0.15
-0.08 0.1
ITEM: ATOMS id type x y z ix iy iz vx vy vz fx fy fz c_cc_1 c_cc_2 c_cc_3 c_cc_4 c_cc_5 c_cc_6 c_cc_7 c_cc_8 c_cc_9 c_cc_10 c_cc_11 c_cc_12 c_cc_13 c_cc_14 c_cc_15 c_cc_16 f_fppacc radius c_cc_17 
874 2 0.00117504 -0.0109833 -0.0599455 0 0 0 0.0577707 -0.75746 0.0332056 0 -1.05196e-05 0 0 0 0 0 0 0 0 0 0 0 0 0 0 0 0 0 36 0.0008 0 
11868 3 0.0162989 -0.0185691 -0.0580537 0 0 0 0.00071645 -0.249998 0.0874588 0 -1.05196e-05 0 0 0 0 0 0 0 0 0 0 0 0 0 0 0 0 0 28 0.0008 0 
15666 1 0.00263456 -0.00598482 -0.0577108 0 0 0 3.95212 -4.90521 3.726 0 -1.05196e-05 0 0 0 0 0 0 0 0 0 0 0 0 0 0 0 0 0 0 0.0008 0 
5728 2 0.0158664 -0.023491 -0.0566914 0 0 0 -0.0111252 -0.360843 0.0918169 0 -1.05196e-05 0 0 0 0 0 0 0 0 0 0 0 0 0 0 0 0 0 56 0.0008 0 
12904 1 0.00344795 -0.0181717 -0.0545908 0 0 0 -0.780643 -24.3203 2.49713 0 -1.05196e-05 0 0 0 0 0 0 0 0 0 0 0 0 0 0 0 0 0 1 0.0008 0 
17765 10 0.0024254 -0.000622562 -0.0552628 0 0 0 -0.838675 -21.7637 2.93124 0 -1.05196e-05 0 0 0 0 0 0 0 0 0 0 0 0 0 0 0 0 0 0 0.0008 0 
16349 4 0.0123838 -0.0273715 -0.0543855 0 0 0 -0.00343263 -0.19902 0.0880221 0 -1.05196e-05 0 0 0 0 0 0 0 0 0 0 0 0 0 0 0 0 0 0 0.0008 0 
17714 7 0.00729933 -0.0287765 -0.0515327 0 0 0 0.260411 -9.06376 1.04509 0.0127571 0.035558 0.0741578 0 0 0 0 0 0 0 0 0 0 0 0 0 0 0 0 0 0.0008 0 
14539 6 0.0024652 -0.034031 -0.050594 0 0 0 -0.0688194 -0.319076 0.228981 0 -1.05196e-05 0 0 0 0 0 0 0 0 0 0 0 0 0 0 0 0 0 2 0.0008 0 
3872 2 0.0119177 -0.0342354 -0.0478723 0 0 0 1.04651 -14.6921 12.5184 0 -1.05196e-05 0 0 0 0 0 0 0 0 0 0 0 0 0 0 0 0 0 53 0.0008 0 
16740 4 0.00299573 -0.0255922 -0.0472874 0 0 0 -0.341275 -13.7858 11.0758 0 -1.05196e-05 0 0 0 0 0 0 0 0 0 0 0 0 0 0 0 0 0 1 0.0008 0 
14170 7 0.0141204 -0.0411101 -0.0453139 0 0 0 -0.205159 -0.3886 0.293457 1.22291e-17 -4.78501e-06 3.61347e-06 0 0 0 0 0 0 0 0 0 0 0 0 0 0 0 0 0 0.0008 0 
17691 6 0.00740309 -0.0370142 -0.0454837 0 0 0 1.05964 -4.41628 3.78593 0 -1.05196e-05 0 0 0 0 0 0 0 0 0 0 0 0 0 0 0 0 0 0 0.0008 0 
17536 5 0.00998608 -0.0313993 -0.0459695 0 0 0 3.41413 -16.4201 5.5027 0 -1.05196e-05 0 0 0 0 0 0 0 0 0 0 0 0 0 0 0 0 0 0 0.0008 0 
17453 12 0.0104992 -0.0287807 -0.0458657 0 0 0 1.31601 -19.8151 7.54187 0 -1.05196e-05 0 0 0 0 0 0 0 0 0 0 0 0 0 0 0 0 0 1 0.0008 0 
15203 3 0.0031511 -0.043991 -0.0421937 0 0 0 -0.0677032 -0.267006 0.288055 0 -1.05196e-05 0 0 0 0 0 0 0 0 0 0 0 0 0 0 0 0 0 14 0.0008 0 
17447 2 0.00221943 -0.0407381 -0.0422439 0 0 0 0.735455 -30.3903 15.0579 0 -1.05196e-05 0 0 0 0 0 0 0 0 0 0 0 0 0 0 0 0 0 0 0.0008 0 
17653 10 0.00881379 -0.00184803 -0.0426829 0 0 0 -0.311391 -2.48188 -0.475962 0 -1.05196e-05 0 0 0 0 0 0 0 0 0 0 0 0 0 0 0 0 0 0 0.0008 0 
13062 2 0.00466293 -0.0352813 -0.0388812 0 0 0 -0.331328 -2.35449 1.42759 0 -1.05196e-05 0 0 0 0 0 0 0 0 0 0 0 0 0 0 0 0 0 33 0.0008 0 
1022 3 0.00204579 -0.00138801 -0.0366815 0 0 0 0.285293 -1.7923 1.74568 0 -1.05196e-05 0 0 0 0 0 0 0 0 0 0 0 0 0 0 0 0 0 54 0.0008 0 
14527 2 0.00106097 -0.0491515 -0.0357481 0 0 0 0.15765 -0.0301077 0.355715 0 -1.05196e-05 0 0 0 0 0 0 0 0 0 0 0 0 0 0 0 0 0 13 0.0008 0 
752 3 0.0161932 -0.0492705 -0.035849 0 0 0 0.0451817 0.0655589 1.05362 0 -1.05196e-05 0 0 0 0 0 0 0 0 0 0 0 0 0 0 0 0 0 55 0.0008 0 
5801 6 0.00268625 -0.05214 -0.0315431 0 0 0 0.162601 -0.0488027 0.0788219 -1.67533e-06 -5.09002e-06 8.24752e-06 0 0 0 0 0 0 0 0 0 0 0 0 0 0 0 0 37 0.0008 0 
10441 10 0.0182383 -0.0516924 -0.032266 0 0 0 0.0495132 -0.067641 0.109244 2.4552e-18 -2.08228e-06 3.363e-06 0 0 0 0 0 0 0 0 0 0 0 0 0 0 0 0 37 0.0008 0 
15694 7 0.00692178 -0.0525572 -0.0308693 0 0 0 0.359305 -0.010069 0.0162618 -2.21558e-06 -8.69059e-07 1.4057e-06 0 0 0 0 0 0 0 0 0 0 0 0 0 0 0 0 0 0.0008 0 
7680 9 0.0053014 -0.0491766 -0.0278101 0 0 0 -0.108427 0.333545 2.53947 0 -1.05196e-05 0 0 0 0 0 0 0 0 0 0 0 0 0 0 0 0 0 58 0.0008 0 
17831 1 0.01055 -0.0410878 -0.0266316 0 0 0 -6.2846 6.03139 -3.36786 0 -1.05196e-05 0 0 0 0 0 0 0 0 0 0 0 0 0 0 0 0 0 0 0.0008 0 
13923 7 0.00130034 -0.0564794 -0.0228937 0 0 0 -0.0474778 0.0287154 -0.074123 -4.84898e-06 -1.63881e-06 4.23026e-06 0 0 0 0 0 0 0 0 0 0 0 0 0 0 0 0 18 0.0008 0 
14920 4 0.00233148 -0.0534034 -0.0230088 0 0 0 -0.992442 -1.01639 11.574 0 -1.05196e-05 0 0 0 0 0 0 0 0 0 0 0 0 0 0 0 0 0 0 0.0008 0 
2010 2 0.00769499 -0.0566895 -0.0223514 0 0 0 0.197843 0.0432049 -0.111525 -1.15703e-17 -9.80505e-07 2.53098e-06 0 0 0 0 0 0 0 0 0 0 0 0 0 0 0 0 48 0.0008 0 
17807 5 0.0138828 -0.0545253 -0.0220658 0 0 0 -3.88862 -14.9771 18.1793 0 -1.05196e-05 0 0 0 0 0 0 0 0 0 0 0 0 0 0 0 0 0 0 0.0008 0 
14207 4 0.0155126 -0.0511302 -0.0224187 0 0 0 3.47526 -5.3242 20.8963 0 -1.05196e-05 0 0 0 0 0 0 0 0 0 0 0 0 0 0 0 0 0 27 0.0008 0 
14664 3 0.0156187 -0.0532842 -0.0216839 0 0 0 0.71807 -2.98723 7.79944 0 -1.05196e-05 0 0 0 0 0 0 0 0 0 0 0 0 0 0 0 0 0 20 0.0008 0 
15785 4 0.0172134 -0.0576654 -0.0193666 0 0 0 -0.0409884 0.873553 -0.0529841 0 -1.05196e-05 0 0 0 0 0 0 0 0 0 0 0 0 0 0 0 0 0 0 0.0008 0 
16369 1 0.014828 -0.0585285 -0.0176043 0 0 0 0.0499121 -0.00299056 0.00771953 8.57405e-18 -9.80505e-07 2.53098e-06 0 0 0 0 0 0 0 0 0 0 0 0 0 0 0 0 0 0.0008 0 
14349 7 0.0134649 -0.0429804 -0.0184652 0 0 0 -0.0390699 -0.494091 0.871878 0 -1.05196e-05 0 0 0 0 0 0 0 0 0 0 0 0 0 0 0 0 0 21 0.0008 0 
15381 2 0.00603539 -0.0590892 -0.0155238 0 0 0 0.0215061 -0.00594668 0.0318119 -7.84115e-18 -2.53692e-07 1.35713e-06 0 0 0 0 0 0 0 0 0 0 0 0 0 0 0 0 4 0.0008 0 
17378 7 0.0062262 -0.056784 -0.0156365 0 0 0 0.515688 -1.53601 4.5651 0 -1.05196e-05 0 0 0 0 0 0 0 0 0 0 0 0 0 0 0 0 0 0 0.0008 0 
14572 1 0.00821963 -0.0566075 -0.0163821 0 0 0 0.721475 -1.59319 4.66812 0 -1.05196e-05 0 0 0 0 0 0 0 0 0 0 0 0 0 0 0 0 0 16 0.0008 0 
17343 5 0.00337147 -0.0539485 -0.0150089 0 0 0 0.363359 -2.3794 5.14577 0 -1.05196e-05 0 0 0 0 0 0 0 0 0 0 0 0 0 0 0 0 0 0 0.0008 0 
15555 3 0.00154994 -0.0597424 -0.0120299 0 0 0 0.0189204 -0.0096411 0.0515753 7.60696e-19 -2.53692e-07 1.35713e-06 0 0 0 0 0 0 0 0 0 0 0 0 0 0 0 0 0 0.0008 0 
8467 4 0.0111659 -0.0597421 -0.0120311 0 0 0 -0.0419322 -0.0299447 0.16019 -3.33167e-18 -2.53692e-07 1.35713e-06 0 0 0 0 0 0 0 0 0 0 0 0 0 0 0 0 40 0.0008 0 
5338 2 0.00347421 -0.0600418 -0.010428 0 0 0 -0.00221634 -0.000574518 0.00306636 2.03051e-12 -2.60888e-07 1.35565e-06 0 0 0 0 0 0 0 0 0 0 0 0 0 0 0 0 46 0.0008 0 
15517 2 0.0161676 -0.0600145 -0.0105743 0 0 0 -0.0947152 -0.0101121 0.0540951 9.89173e-18 -2.53692e-07 1.35713e-06 0 0 0 0 0 0 0 0 0 0 0 0 0 0 0 0 2 0.0008 0 
12757 3 0.000800345 -0.0602258 -0.00944347 0 0 0 0.000403057 -0.00254689 0.013622 -2.53882e-10 -2.66511e-07 1.35447e-06 0 0 0 0 0 0 0 0 0 0 0 0 0 0 0 0 22 0.0008 0 
17336 10 0.00456502 -0.0602584 -0.00926927 0 0 0 -0.0277331 -0.00568778 0.0304332 -1.16876e-11 -2.38322e-07 1.36021e-06 0 0 0 0 0 0 0 0 0 0 0 0 0 0 0 0 0 0.0008 0 
17147 2 0.0130431 -0.0601937 -0.00961563 0 0 0 0.147082 -0.0338435 0.181051 3.17891e-11 -2.39026e-07 1.36008e-06 0 0 0 0 0 0 0 0 0 0 0 0 0 0 0 0 0 0.0008 0 
17441 6 0.0072585 -0.0578041 -0.00990178 0 0 0 0.588866 -0.0173337 7.52799 0 -1.05196e-05 0 0 0 0 0 0 0 0 0 0 0 0 0 0 0 0 0 0 0.0008 0 
7654 8 0.00190738 -0.0604381 -0.00830785 0 0 0 0.00817408 -0.00117991 0.00629232 2.50698e-07 -5.62685e-08 1.75969e-07 0 0 0 0 0 0 0 1 0 0 0 0 0 0 0 0 62 0.0008 0 
17589 11 0.0074901 -0.0603125 -0.00898002 0 0 0 -0.00902528 -0.0150157 0.0803271 5.21297e-19 -2.53692e-07 1.35713e-06 0 0 0 0 0 0 0 0 0 0 0 0 0 0 0 0 0 0.0008 0 
13527 2 0.0122191 -0.0604494 -0.00824744 0 0 0 0.00847342 -0.000771656 0.00412799 1.35192e-17 -2.53692e-07 1.35713e-06 0 0 0 0 0 0 0 0 0 0 0 0 0 0 0 0 5 0.0008 0 
1637 5 0.0167671 -0.0604827 -0.00806916 0 0 0 -0.0509557 -0.0114795 0.0642302 -0.00111573 -2.17469e-05 2.63239e-05 0 0 0 0 1 0 0 0 0 0 0 0 0 0 0 0 62 0.0008 0 
13175 6 0.0183456 -0.0604407 -0.0082946 0 0 0 -0.0457771 -0.00233642 0.00980247 0.00112969 2.98594e-05 -2.47046e-05 0 0 0 0 1 0 0 0 0 0 0 0 0 0 0 0 4 0.0008 0 
3129 3 0.000870727 -0.0606621 -0.00710992 0 0 0 0.00108448 -4.14436e-05 0.000279061 9.30875e-08 -5.1198e-09 9.9424e-08 0 0 1 0 0 0 0 1 0 0 0 0 0 0 0 0 24 0.0008 0 
14580 12 0.00367463 -0.0606781 -0.00702404 0 0 0 0.0118474 -0.000161907 0.000828459 -2.40247e-11 -1.70007e-07 1.37308e-06 0 0 0 0 0 0 0 0 0 0 0 0 0 0 0 0 20 0.0008 0 
15828 4 0.00514228 -0.0605335 -0.00779765 0 0 0 0.0154206 -0.0013935 0.0074365 -1.44008e-11 -2.38456e-07 1.3599e-06 0 0 0 0 0 0 0 0 0 0 0 0 0 0 0 0 2 0.0008 0 
12332 2 0.00656161 -0.0606877 -0.00697288 0 0 0 0.00390822 -0.000236488 0.00126508 -3.88851e-15 -2.53683e-07 1.35713e-06 0 0 0 0 0 0 0 0 0 0 0 0 0 0 0 0 12 0.0008 0 
13645 4 0.00975144 -0.0603027 -0.00729962 0 0 0 0.00863539 -0.0309524 0.0499124 0 -1.05196e-05 0 0 0 0 0 0 0 0 0 0 0 0 0 0 0 0 0 37 0.0008 0 
11996 1 0.0112699 -0.0606875 -0.00697376 0 0 0 0.0233529 -0.0029039 0.0150002 5.58694e-07 9.89515e-08 1.44785e-06 0 0 0 0 0 0 0 0 0 0 0 0 0 0 0 0 19 0.0008 0 
14749 4 0.0152876 -0.0606134 -0.00732558 0 0 0 0.00706293 -0.0091156 -0.000325465 -1.39361e-06 -1.00734e-05 -1.38098e-06 0 0 0 1 0 0 0 0 0 0 0 0 0 0 0 0 5 0.0008 0 
8040 3 0.00222479 -0.0608214 -0.00625738 0 0 0 0.000181446 -6.23941e-05 0.000330111 -2.80051e-08 -2.80761e-09 3.51488e-09 0 0 1 0 0 0 0 0 0 0 0 0 0 0 0 0 63 0.0008 0 
14360 4 0.00514258 -0.0608302 -0.00621029 0 0 0 0.00467719 -0.00243237 0.0130108 -2.90791e-13 -2.47664e-07 1.3583e-06 0 0 0 0 0 0 0 0 0 0 0 0 0 0 0 0 13 0.0008 0 
16821 3 0.00819503 -0.0607017 -0.00689116 0 0 0 -0.000171883 -0.00275544 0.00542043 0 -1.05196e-05 0 0 0 0 0 0 0 0 0 0 0 0 0 0 0 0 0 0 0.0008 0 
6949 9 0.0138081 -0.0607358 -0.00671602 0 0 0 0.00468616 -0.00120366 0.010912 9.26507e-07 1.41159e-05 3.96316e-06 0 0 0 0 0 0 0 0 0 0 0 0 0 0 0 0 50 0.0008 0 
5892 2 0.0172973 -0.0608069 -0.00633545 0 0 0 0.0182945 0.000462331 0.000678463 -1.01058e-05 9.30217e-06 4.00498e-06 0 0 0 0 0 0 0 0 0 0 0 0 0 0 0 0 32 0.0008 0 
7649 2 0.000799985 -0.0609356 -0.00553515 0 0 0 -4.21941e-05 -9.27995e-06 0.000164036 -2.26253e-08 -1.25023e-08 2.81863e-08 0 0 1 0 0 0 0 0 0 0 0 0 0 0 0 0 34 0.0008 0 
4413 6 0.00371106 -0.0609356 -0.00544514 0 0 0 1.10986e-05 5.95277e-06 0.0005984 5.96875e-13 -1.21923e-07 -3.33821e-12 0 0 0 0 0 0 0 0 0 0 0 0 0 0 0 0 52 0.0008 0 
3837 1 0.00722477 -0.0609356 -0.00516188 0 0 0 0.0183324 6.60574e-05 0.00616782 4.32539e-07 -7.71978e-07 -1.53151e-06 0 0 0 0 0 0 0 0 0 0 0 0 0 0 0 0 66 0.0008 0 
4306 9 0.00906068 -0.0609356 -0.00556514 0 0 0 0.00627117 -5.90181e-07 0.00143981 -1.0141e-12 -1.23777e-08 -2.33881e-13 0 0 0 0 0 0 0 0 0 0 0 0 0 0 0 0 30 0.0008 0 
255 2 0.0106658 -0.0609356 -0.00548169 0 0 0 0.00807396 -2.98589e-08 0.0156672 -6.72285e-14 -1.34422e-10 -1.30454e-13 0 0 0 0 0 0 0 0 0 0 0 0 0 0 0 0 40 0.0008 0 
4848 7 0.0122499 -0.0609204 -0.00572793 0 0 0 0.0109465 -0.00547748 0.0290885 7.888e-10 -6.05959e-07 1.28666e-06 0 0 0 0 0 0 0 0 0 0 0 0 0 0 0 0 49 0.0008 0 
15272 2 0.0139823 -0.0609356 -0.00513605 0 0 0 -0.00426931 -3.19524e-05 0.0114568 -5.09932e-07 2.64531e-06 3.35888e-07 0 0 0 0 0 0 0 0 0 0 0 0 0 0 0 0 1 0.0008 0 
16330 3 0.0157812 -0.0608965 -0.0058303 0 0 0 0.0149254 -0.00173722 -0.00121242 1.39361e-06 -1.09657e-05 1.38098e-06 0 0 0 1 0 0 0 0 0 0 0 0 0 0 0 0 1 0.0008 0 
14256 8 0.0184672 -0.0609356 -0.00525137 0 0 0 0.0170287 -0.000706147 0.00558341 -2.61906e-06 -4.04682e-06 -1.90122e-06 0 0 0 0 0 0 0 0 0 0 0 0 0 0 0 0 11 0.0008 0 
7937 2 0.000827114 -0.0609356 -0.00393541 0 0 0 0.00125401 -2.0875e-06 0.000119234 6.37185e-08 -5.09918e-09 -1.47493e-08 0 1 0 0 0 0 0 0 0 0 0 0 0 0 0 0 51 0.0008 0 
10595 5 0.00226877 -0.0609356 -0.00466212 0 0 0 0.0017467 -2.88268e-07 0.000298213 4.62014e-09 1.56561e-09 1.90929e-08 0 0 1 0 1 0 0 0 0 0 0 0 0 0 0 0 60 0.0008 0 
9977 6 0.00368343 -0.0609356 -0.00376652 0 0 0 0.000243946 2.69203e-09 -0.00121096 1.83724e-16 2.1475e-12 -9.12006e-16 0 0 0 0 0 0 0 0 0 0 0 0 0 0 0 0 36 0.0008 0 
5611 3 0.00507264 -0.0609356 -0.00458581 0 0 0 0.00377422 -7.86483e-09 -0.0013833 -8.20225e-15 -1.14998e-10 3.00623e-15 0 0 0 0 0 0 0 0 0 0 0 0 0 0 0 0 46 0.0008 0 
2611 5 0.00853081 -0.0609356 -0.00405517 0 0 0 0.0102345 1.46027e-07 0.00298056 6.71e-13 -3.36024e-09 2.06346e-13 0 0 0 0 0 0 0 0 0 0 0 0 0 0 0 0 48 0.0008 0 
12917 2 0.0111127 -0.0609341 -0.00393219 0 0 0 0.00803556 -0.00162052 0.0149465 0 -1.05196e-05 0 0 0 0 0 0 0 0 0 0 0 0 0 0 0 0 0 28 0.0008 0 
2015 2 0.0126919 -0.0609356 -0.00418949 0 0 0 0.00908757 -0.000106874 0.0254282 -7.79916e-07 -3.89664e-07 -3.88875e-07 0 1 0 0 0 0 0 0 0 0 0 0 0 0 0 0 36 0.0008 0 
10496 1 0.0153354 -0.0609356 -0.00428181 0 0 0 0.00318263 -1.99356e-05 0.00255522 2.7233e-08 -2.22731e-06 -4.66713e-08 0 0 0 0 0 0 0 0 0 0 0 0 0 0 0 0 31 0.0008 0 
7764 4 0.0169315 -0.0609356 -0.00471451 0 0 0 0.0145935 -0.000131361 0.00600596 -2.98923e-06 -3.04581e-06 -2.24248e-06 0 0 0 0 0 0 0 0 0 0 0 0 0 0 0 0 45 0.0008 0 
894 6 0.00224671 -0.0609356 -0.00306229 0 0 0 0.00142113 2.94158e-07 0.000306892 6.96258e-09 4.27702e-09 3.61142e-08 0 0 0 0 1 1 0 0 0 0 0 0 0 0 0 0 52 0.0008 0 
9269 5 0.00514061 -0.0609356 -0.0029409 0 0 0 -0.00099049 -5.65194e-07 -0.00112712 1.57635e-13 4.50458e-09 1.79529e-13 0 0 0 0 0 0 0 0 0 0 0 0 0 0 0 0 46 0.0008 0 
8455 4 0.00665272 -0.0609356 -0.00366748 0 0 0 0.00426886 -7.82843e-05 0.00235988 -2.74075e-07 8.10783e-07 1.34661e-06 0 0 0 0 0 0 0 0 0 0 0 0 0 0 0 0 69 0.0008 0 
12304 8 0.0100085 -0.0609356 -0.00277419 0 0 0 -0.00271198 -2.63049e-05 0.00525081 1.37982e-07 -5.93596e-07 -1.3251e-07 0 0 0 0 0 0 0 0 0 0 0 0 0 0 0 0 32 0.0008 0 
12116 6 0.0140426 -0.0609356 -0.00333191 0 0 0 0.0122899 0.000204512 0.0218871 4.45564e-07 1.72011e-06 2.29447e-07 0 1 0 0 0 0 0 0 0 0 0 0 0 0 0 0 15 0.0008 0 
9160 14 0.016495 -0.0609351 -0.00317393 0 0 0 0.00127144 -0.00139901 0.00416101 -4.68721e-06 -8.33939e-06 -1.17983e-07 0 0 0 0 0 0 0 0 0 0 0 0 0 1 0 0 41 0.0008 0 
5953 8 0.018079 -0.0609357 -0.00339862 0 0 0 0.001323 -0.000220695 0.0104857 1.66892e-06 -1.12336e-06 -3.86887e-07 0 0 0 0 0 0 0 0 0 0 0 0 0 1 0 0 40 0.0008 0 
3482 10 0.0170918 -0.0581106 -0.00295458 0 0 0 -1.05052 -1.11718 19.8413 0 -1.05196e-05 0 0 0 0 0 0 0 0 0 0 0 0 0 0 0 0 0 73 0.0008 0 
5540 9 0.000816154 -0.0609356 -0.00233546 0 0 0 0.00050497 -1.14177e-06 0.000110419 -2.02309e-08 3.97215e-09 7.83692e-09 0 1 0 0 0 0 0 0 1 0 0 0 0 0 0 0 73 0.0008 0 
1225 1 0.00369518 -0.0609356 -0.00216286 0 0 0 0.000534689 7.0402e-07 -0.000409587 -8.13516e-11 -2.39129e-09 -2.13403e-11 0 0 0 0 0 0 0 0 0 0 0 0 0 0 0 0 157 0.0008 0 
11208 2 0.0064891 -0.0609356 -0.00207456 0 0 0 0.00032096 5.56222e-07 -0.000805553 4.95345e-14 -6.17786e-09 -1.27134e-13 0 0 0 0 0 0 0 0 0 0 0 0 0 0 0 0 35 0.0008 0 
10613 5 0.00805142 -0.0609356 -0.00252846 0 0 0 -0.00172184 3.55957e-06 -0.000692988 6.98761e-08 3.688e-09 -7.47338e-08 0 0 0 0 1 0 0 0 0 0 0 0 0 0 0 0 36 0.0008 0 
10360 1 0.0125786 -0.0609356 -0.00255036 0 0 0 0.0192381 -1.52108e-12 0.0224933 -1.37636e-19 0 -1.41602e-19 0 0 0 0 0 0 0 0 0 0 0 0 0 0 0 0 48 0.0008 0 
12691 4 0.014032 -0.0609356 -0.00172754 0 0 0 0.00106557 -1.47246e-06 0.0141825 -4.52954e-13 5.05903e-08 -6.0271e-12 0 0 0 0 0 0 0 0 0 0 0 0 0 0 0 0 44 0.0008 0 
14724 5 0.0156321 -0.0609356 -0.00182638 0 0 0 -0.00238104 -0.00025109 0.00273579 -8.1374e-07 2.05776e-06 6.22302e-07 0 0 0 0 0 0 0 0 0 0 0 0 0 0 0 0 4 0.0008 0 
1200 7 0.000800942 -0.0609356 -0.000735541 0 0 0 -0.000430473 9.01149e-07 0.000114088 3.57989e-09 -8.78342e-10 2.09223e-08 0 0 0 0 0 0 0 0 1 0 0 0 0 0 0 0 67 0.0008 0 
9680 4 0.00223024 -0.0609356 -0.00146239 0 0 0 0.000477814 9.77879e-07 0.000312531 -3.36106e-09 -2.75328e-09 3.21461e-08 0 0 0 0 0 1 0 0 0 0 0 0 0 0 0 0 49 0.0008 0 
6408 2 0.00506701 -0.0609356 -0.0013392 0 0 0 0.000452178 -7.21426e-07 2.14171e-05 1.35104e-11 2.72235e-09 -1.95641e-11 0 0 0 0 0 0 0 0 0 0 0 0 0 0 0 0 27 0.0008 0 
6702 2 0.00765473 -0.0609356 -0.000978432 0 0 0 -0.000493586 -4.38249e-06 -0.000275863 2.95527e-08 -1.2677e-08 -3.01299e-07 0 1 0 0 1 0 0 0 0 0 0 0 0 0 0 0 23 0.0008 0 
4634 2 0.00922838 -0.0609357 -0.00137197 0 0 0 -0.00452878 -0.000197016 -0.000183601 -4.65582e-06 5.06683e-06 -1.07003e-05 0 1 0 0 0 0 0 0 0 0 0 0 0 0 0 0 45 0.0008 0 
1063 5 0.0108907 -0.0609356 -0.0011483 0 0 0 9.19541e-05 -2.16562e-12 0.0166111 2.70026e-21 0 -2.41712e-18 0 0 0 0 0 0 0 0 0 0 0 0 0 0 0 0 42 0.0008 0 
9715 3 0.0125307 -0.0609356 -0.000932108 0 0 0 0.00743519 -4.90492e-12 -0.00192076 -1.0369e-18 0 2.23902e-19 0 0 0 0 0 0 0 0 0 0 0 0 0 0 0 0 20 0.0008 0 
9279 2 0.0167931 -0.0609356 -0.000632101 0 0 0 0.00215802 2.51403e-13 0.00513172 2.33664e-19 0 4.69003e-19 0 0 0 0 0 0 0 0 0 0 0 0 0 0 0 0 10 0.0008 0 
7286 3 0.0181247 -0.0609356 -0.00161317 0 0 0 -0.00551275 6.95367e-11 0.00862339 -1.0649e-16 -2.19471e-13 1.66948e-16 0 0 0 0 0 0 0 0 0 0 0 0 0 0 0 0 22 0.0008 0 
414 7 0.00222929 -0.0609356 0.000141154 0 0 0 0.000138177 -1.19491e-10 0.000718107 -4.58423e-18 -1.09732e-12 -2.38162e-17 0 0 0 0 0 0 0 0 0 0 0 0 0 0 0 0 43 0.0008 0 
3512 5 0.00366915 -0.0609356 -0.000558486 0 0 0 -0.00191451 1.20609e-08 -0.00304115 -4.98359e-15 -5.24283e-11 -1.072e-14 0 0 0 0 0 0 0 0 0 0 0 0 0 0 0 0 62 0.0008 0 
553 2 0.00609293 -0.0609356 -8.26042e-05 0 0 0 0.00475638 -5.8215e-11 -0.00156249 -7.75548e-17 -7.78807e-14 2.54952e-17 0 0 0 0 0 0 0 0 0 0 0 0 0 0 0 0 45 0.0008 0 
72 4 0.00953976 -0.0609356 0.000197071 0 0 0 -0.00111523 0.000205379 7.40848e-05 1.28282e-05 -4.79451e-06 1.23594e-05 0 1 0 1 0 0 0 0 0 0 0 0 0 0 0 0 47 0.0008 0 
8603 2 0.0149646 -0.0609353 -0.00037215 0 0 0 -0.00197996 -0.00240433 0.0035693 3.12092e-07 -1.04983e-05 -1.4672e-07 0 2 0 0 0 0 0 0 0 0 0 0 0 0 0 0 37 0.0008 0 
1871 2 0.000800184 -0.0609356 0.000864594 0 0 0 2.52632e-05 -4.43654e-09 0.000137614 -3.26105e-17 1.64223e-10 -1.77336e-16 0 0 0 0 0 0 0 0 0 0 0 0 0 0 0 0 80 0.0008 0 
101 5 0.00454083 -0.0609356 0.000789496 0 0 0 0.000983217 1.42556e-06 -0.00540043 -3.94798e-12 -1.39655e-08 -4.21965e-12 0 0 0 0 0 0 0 0 0 0 0 0 0 0 0 0 68 0.0008 0 
585 3 0.00596736 -0.0609356 0.0015145 0 0 0 -0.00031606 -5.15926e-07 -0.00239244 2.42315e-12 3.59559e-08 6.51296e-12 0 0 0 0 0 0 0 0 0 0 0 0 0 0 0 0 81 0.0008 0 
1002 3 0.00760635 -0.0609356 0.000620795 0 0 0 -0.00185379 -2.41162e-05 -0.000383962 -4.5407e-07 -5.4554e-07 -4.25223e-07 0 1 1 0 0 0 0 0 0 0 0 0 0 0 0 0 57 0.0008 0 
4185 5 0.0111048 -0.0609356 0.000535823 0 0 0 -0.00249672 2.58552e-06 0.00480284 5.30654e-12 -5.0747e-09 6.94775e-12 0 0 0 0 0 0 0 0 0 0 0 0 0 0 0 0 63 0.0008 0 
4095 1 0.0127001 -0.0609356 0.000663115 0 0 0 -0.00336155 0.000216077 -0.00185177 -9.69382e-07 -2.30869e-06 -4.43698e-07 1 0 0 0 0 0 0 0 0 0 0 0 0 0 0 0 46 0.0008 0 
9639 4 0.0142501 -0.0609354 0.00105942 0 0 0 -0.00394887 1.94042e-07 0.00259438 -2.2852e-06 -6.84142e-06 -3.85196e-06 1 1 0 0 0 0 0 0 0 0 0 0 0 0 0 0 35 0.0008 0 
3983 3 0.0159073 -0.0609356 0.000920617 0 0 0 -6.3353e-05 0.000184981 0.00259018 -8.30513e-08 3.51238e-07 7.45339e-08 0 1 1 0 0 0 0 0 0 0 0 0 0 0 0 0 19 0.0008 0 
206 1 0.00153874 -0.0609356 0.00228545 0 0 0 0.0100512 -1.63053e-11 -0.00465943 -4.70532e-17 -1.07381e-13 2.17685e-17 0 0 0 0 0 0 0 0 0 0 0 0 0 0 0 0 108 0.0008 0 
690 7 0.0030354 -0.0609356 0.00153662 0 0 0 0.0169534 -6.51626e-12 -0.00615642 1.49161e-18 -2.20229e-20 4.41243e-19 0 0 0 0 0 0 0 0 0 0 0 0 0 0 0 0 57 0.0008 0 
317 1 0.00462738 -0.0609356 0.00239264 0 0 0 -0.00209941 1.17359e-05 -0.00438787 -1.07633e-10 -8.77467e-08 9.12139e-10 0 0 0 0 0 0 0 0 0 0 0 0 0 0 0 0 91 0.0008 0 
1470 6 0.00740953 -0.0609356 0.00220855 0 0 0 -0.000576344 4.07526e-05 -0.000497839 1.75171e-07 6.29825e-07 -1.67577e-06 0 0 1 0 0 1 0 0 0 0 0 0 0 0 0 0 83 0.0008 0 
4165 3 0.00891677 -0.0609356 0.00167072 0 0 0 -0.00154025 5.67335e-05 -0.00272719 -5.93046e-06 6.32379e-07 6.6233e-06 0 0 0 1 0 0 0 0 0 0 0 0 0 0 0 0 28 0.0008 0 
4938 7 0.0113751 -0.0609356 0.00235817 0 0 0 -0.00513818 -2.16562e-12 0.0042248 5.9901e-19 0 -5.99004e-19 0 0 0 0 0 0 0 0 0 0 0 0 0 0 0 0 99 0.0008 0 
1367 1 0.0130224 -0.0609356 0.00223036 0 0 0 -0.00341471 -5.41636e-06 -0.00126606 1.01544e-09 4.64336e-07 -9.58516e-09 0 0 0 0 0 0 0 0 0 0 0 0 0 0 0 0 92 0.0008 0 
3427 4 0.0151926 -0.0609356 0.0023521 0 0 0 -0.00232928 9.15011e-05 0.00197793 1.34983e-05 -2.54074e-06 -5.36798e-06 0 0 1 2 0 0 0 0 0 0 0 0 0 0 0 0 39 0.0008 0 
7431 2 0.0171357 -0.0609356 0.0019651 0 0 0 0.00384104 -5.87173e-12 -0.00584211 -1.45621e-19 0 -5.98953e-19 0 0 0 0 0 0 0 0 0 0 0 0 0 0 0 0 33 0.0008 0 
280 2 0.00300488 -0.0609356 0.00314138 0 0 0 0.00243229 -2.73248e-08 -0.00696004 -1.88236e-14 3.50726e-10 5.38641e-14 0 0 0 0 0 0 0 0 0 0 0 0 0 0 0 0 104 0.0008 0 
2069 4 0.0061161 -0.0609356 0.00316211 0 0 0 -0.00396057 9.81452e-09 -0.000382042 -1.06066e-14 2.78507e-10 -1.02315e-15 0 0 0 0 0 0 0 0 0 0 0 0 0 0 0 0 127 0.0008 0 
1920 3 0.00953307 -0.0609356 0.00314869 0 0 0 -0.00175216 -2.14928e-07 -0.0027115 1.05689e-13 6.10338e-10 1.63579e-13 0 0 0 0 0 0 0 0 0 0 0 0 0 0 0 0 46 0.0008 0 
7185 2 0.0140449 -0.0609356 0.00346686 0 0 0 0.00142072 4.16147e-06 -0.00360029 -1.54854e-05 1.04644e-06 3.5856e-06 0 0 0 1 0 0 0 0 0 0 0 0 0 0 0 0 62 0.0008 0 
1366 5 0.0163479 -0.0609356 0.00345891 0 0 0 0.000111122 0.000123995 -0.000302638 -1.18718e-06 -1.41371e-06 -2.05633e-06 0 0 0 1 2 0 0 0 0 0 0 0 0 0 0 0 35 0.0008 0 
1887 11 0.0179759 -0.0609356 0.00332763 0 0 0 0.00103956 -1.2256e-07 -0.00598005 -3.62491e-14 2.48096e-09 2.08972e-13 0 0 0 0 0 0 0 0 0 0 0 0 0 0 0 0 33 0.0008 0 
1972 6 0.00081716 -0.0609356 0.00372015 0 0 0 0.00110483 -4.51524e-10 -0.00789427 -7.23181e-17 -2.42673e-10 5.16787e-16 0 0 0 0 0 0 0 0 0 0 0 0 0 0 0 0 147 0.0008 0 
1894 5 0.00220721 -0.0609356 0.004533 0 0 0 0.00139044 4.60675e-08 -0.00603788 1.80469e-14 -3.20603e-10 -7.83673e-14 0 0 0 0 0 0 0 0 0 0 0 0 0 0 0 0 181 0.0008 0 
1705 8 0.00437918 -0.0609356 0.00397352 0 0 0 0.00164087 -1.68674e-05 -0.00342754 -2.099e-07 3.92388e-07 -2.32706e-07 0 0 0 0 0 0 0 1 0 0 0 0 0 0 0 0 181 0.0008 0 
154 3 0.00764935 -0.0609356 0.00379028 0 0 0 0.000309027 1.07534e-05 -0.000812397 1.75922e-06 8.40408e-07 3.15837e-07 0 0 1 0 0 1 0 0 0 0 0 0 0 0 0 0 111 0.0008 0 
3087 1 0.00898993 -0.0609356 0.00466474 0 0 0 0.000979002 -6.09472e-08 -0.00174642 4.8656e-11 -4.49691e-09 5.90879e-11 0 0 0 0 0 0 0 0 0 0 0 0 0 0 0 0 122 0.0008 0 
18 2 0.0107977 -0.0609356 0.0041355 0 0 0 -0.000788942 -1.45202e-05 -0.00161753 -4.76186e-07 1.32775e-07 -8.84249e-07 0 1 0 0 0 0 0 0 0 0 0 0 0 0 0 0 70 0.0008 0 
1036 2 0.01235 -0.0609356 0.00368536 0 0 0 -0.00274862 -9.96806e-07 -7.05453e-05 -4.40583e-08 9.41535e-09 -2.56633e-07 0 1 0 0 0 0 0 0 0 0 0 0 0 0 0 0 45 0.0008 0 
1118 3 0.0152008 -0.0609356 0.00457438 0 0 0 -0.000982564 8.62818e-05 -0.00105226 -2.21088e-07 1.90901e-07 -1.31418e-06 0 0 1 0 1 0 0 0 0 0 0 0 0 0 0 0 77 0.0008 0 
14319 1 0.0054206 -0.0579629 0.00427251 0 0 0 4.7246 1.18924 8.61172 0 -1.05196e-05 0 0 0 0 0 0 0 0 0 0 0 0 0 0 0 0 0 1 0.0008 0 
17800 11 0.00531542 -0.0527797 0.00409194 0 0 0 0.699213 -1.54459 -5.60777 0 -1.05196e-05 0 0 0 0 0 0 0 0 0 0 0 0 0 0 0 0 0 0 0.0008 0 
733 3 0.000800611 -0.0609356 0.00532156 0 0 0 7.88612e-05 -1.90262e-09 -0.00737403 -4.75496e-17 2.79797e-10 4.44647e-15 0 0 0 0 0 0 0 0 0 0 0 0 0 0 0 0 178 0.0008 0 
2352 2 0.00359025 -0.0609357 0.0053656 0 0 0 0.000497394 0.000105059 -0.00376949 -2.02944e-06 1.13465e-06 -1.6674e-06 0 2 0 0 0 0 0 0 0 0 0 0 0 0 0 0 166 0.0008 0 
531 10 0.00577098 -0.0609356 0.00476264 0 0 0 0.00135881 3.40819e-07 -0.00267138 9.84786e-07 -3.09222e-07 6.54894e-07 0 0 0 0 0 0 0 1 0 0 0 0 0 0 0 0 176 0.0008 0 
1045 8 0.00726243 -0.0609356 0.0053425 0 0 0 0.000746698 -1.68575e-05 -0.000512603 1.0356e-07 1.13243e-06 2.55779e-06 0 0 1 0 0 0 0 2 0 0 0 0 0 0 0 0 117 0.0008 0 
4248 10 0.0102554 -0.0609356 0.00564386 0 0 0 0.0011363 -3.92175e-06 -0.00190938 2.17618e-11 5.44858e-08 -1.1577e-12 0 0 0 0 0 0 0 0 0 0 0 0 0 0 0 0 128 0.0008 0 
6544 1 0.0118302 -0.0609357 0.0053577 0 0 0 0.00117692 6.78088e-05 -0.00332644 -1.23824e-06 5.02404e-07 1.25533e-06 2 1 0 0 0 0 0 0 0 0 0 0 0 0 0 0 68 0.0008 0 
4532 9 0.0133687 -0.0609356 0.00491905 0 0 0 0.0012415 4.69238e-05 -0.00340575 8.99999e-07 7.26422e-07 -7.9173e-07 1 1 0 0 0 0 0 0 2 0 0 0 0 0 0 0 76 0.0008 0 
4164 1 0.0172583 -0.0609356 0.00477441 0 0 0 0.00135858 0.000171485 -0.00100396 -2.12808e-06 -2.21278e-07 -1.87328e-06 1 0 0 0 1 0 0 0 0 0 0 0 0 0 0 0 32 0.0008 0 
210 4 0.00219006 -0.0608445 0.00613425 0 0 0 -0.000810951 -0.00120941 -0.00523279 -6.39996e-07 7.01645e-07 -8.44039e-07 0 1 0 1 0 0 0 0 0 0 0 0 0 0 0 0 135 0.0008 0 
2116 2 0.00498057 -0.0608412 0.00615133 0 0 0 -1.28139e-05 -0.000133442 -0.00248798 4.81658e-07 -1.23631e-06 3.55545e-06 0 1 0 0 0 0 0 0 0 0 0 0 0 0 0 0 177 0.0008 0 
6076 6 0.00647249 -0.0607351 0.00671899 0 0 0 -0.000302818 -0.000306749 -0.000545665 -9.81908e-07 8.72358e-07 4.43003e-06 0 1 0 0 0 1 0 1 0 0 0 0 0 0 0 0 87 0.0008 0 
12 4 0.00859842 -0.0608291 0.00621628 0 0 0 0.00137698 -0.000358991 -0.00176688 1.36188e-06 -1.1315e-06 -1.07006e-06 0 0 0 1 0 0 0 1 0 0 0 0 0 0 0 0 105 0.0008 0 
9210 2 0.0129771 -0.060783 0.00646282 0 0 0 0.00150576 -0.000619129 -0.00303829 -4.96921e-07 -3.00971e-06 -6.29007e-07 0 1 0 0 0 0 0 0 1 0 0 0 0 0 0 0 54 0.0008 0 
1890 2 0.0145176 -0.0608639 0.00603032 0 0 0 0.00101066 -0.000640995 -0.00324323 9.44042e-07 -4.36639e-07 -1.03825e-06 0 1 0 0 0 0 0 0 1 0 0 0 0 0 0 0 74 0.0008 0 
10907 2 0.0161114 -0.0608903 0.00588905 0 0 0 0.000326274 -0.000174804 -0.00155981 2.20168e-07 -1.44821e-06 -1.14331e-06 1 2 1 0 0 0 0 0 0 0 0 0 0 0 0 0 37 0.0008 0 
3630 1 0.0184536 -0.0609 0.00583725 0 0 0 0.00170002 -0.000301999 -0.00128119 5.4744e-07 2.18673e-06 -1.16287e-06 1 0 0 0 0 0 0 0 0 0 0 0 0 0 0 0 29 0.0008 0 
17587 8 0.0182053 -0.0414326 0.00611832 0 0 0 -1.0692 17.5174 34.2701 0 -1.05196e-05 0 0 0 0 0 0 0 0 0 0 0 0 0 0 0 0 0 0 0.0008 0 
2641 8 0.000799916 -0.0606988 0.00691254 0 0 0 -4.7873e-05 -0.00196095 -0.00383943 1.30674e-07 -2.18914e-06 1.11671e-06 0 0 0 1 0 0 0 0 0 0 0 0 0 0 0 0 172 0.0008 0 
3865 4 0.00218678 -0.0605499 0.00770991 0 0 0 -0.00135647 -0.00145624 -0.00803033 -2.06972e-06 3.78884e-07 2.17529e-07 0 0 0 1 0 0 0 0 0 0 0 0 0 0 0 0 130 0.0008 0 
3869 8 0.00358589 -0.0606925 0.006947 0 0 0 0.000380084 -0.000622969 -0.00327738 8.61479e-07 -1.63191e-06 -2.12922e-06 0 1 0 1 0 0 0 2 0 0 0 0 0 0 0 0 159 0.0008 0 
9441 6 0.00497198 -0.0605457 0.0077326 0 0 0 0.000949053 -0.000744472 -0.00397446 -9.46828e-08 -1.49702e-07 -1.38599e-06 0 0 0 0 0 0 0 1 0 0 0 0 0 0 0 0 89 0.0008 0 
3081 3 0.00794836 -0.0605605 0.0076534 0 0 0 -0.00228658 -0.000593245 -0.00318365 5.64836e-09 -2.51131e-07 -1.36885e-06 0 0 0 0 0 0 0 0 0 0 0 0 0 0 0 0 87 0.0008 0 
1541 1 0.00986215 -0.0606488 0.00718084 0 0 0 0.00204384 -0.000402607 -0.00282278 -9.02757e-07 -9.02604e-07 -6.35806e-07 2 0 0 1 0 0 0 0 0 0 0 0 0 0 0 0 68 0.0008 0 
3998 3 0.0114346 -0.0607031 0.00689025 0 0 0 0.00167893 -0.000398907 -0.00278973 -1.86111e-06 -2.60855e-06 5.03983e-06 2 0 2 0 0 0 0 0 0 0 0 0 0 0 0 0 88 0.0008 0 
5900 8 0.0141278 -0.0605787 0.00755566 0 0 0 0.00145051 -0.000650464 -0.0037547 6.20746e-08 3.27842e-06 4.82295e-07 0 2 0 0 0 0 0 0 0 0 0 0 0 0 0 0 55 0.0008 0 
6574 6 0.0157214 -0.0606052 0.00741418 0 0 0 0.00107573 -0.000341874 -0.00103002 -2.69738e-06 1.51019e-06 -6.58948e-07 0 1 0 0 0 0 0 0 0 0 0 0 0 0 0 0 63 0.0008 0 
1749 6 0.0172625 -0.0606861 0.00698135 0 0 0 0.00097053 -0.000333878 -0.00184168 -4.77835e-07 1.73425e-06 -1.08623e-06 0 1 0 0 0 1 0 0 0 0 0 0 0 0 0 0 45 0.0008 0 
11044 4 0.0185762 -0.0605183 0.00787894 0 0 0 0.00175733 -0.000520902 -0.00222604 1.33935e-06 -1.32319e-06 -1.10837e-06 0 0 0 2 0 1 0 0 0 0 0 0 0 0 0 0 40 0.0008 0 
5113 5 0.000800243 -0.060403 0.00849586 0 0 0 0.000211649 -0.000858661 -0.00459477 -7.37305e-13 -2.13835e-07 -1.36493e-06 0 0 0 0 0 0 0 0 0 0 0 0 0 0 0 0 110 0.0008 0 
1165 1 0.0035846 -0.0603985 0.00851973 0 0 0 -0.000800386 -0.000584643 -0.00280762 -3.34431e-07 6.91144e-07 -2.15584e-06 2 0 0 0 0 0 0 1 0 0 0 0 0 0 0 0 155 0.0008 0 
4050 3 0.00646835 -0.0604412 0.00829147 0 0 0 -0.000357691 -0.000197284 -0.000440907 -2.46344e-06 3.71776e-06 -4.72201e-07 0 0 2 0 0 1 0 0 0 0 0 0 0 0 0 0 35 0.0008 0 
3877 5 0.00926965 -0.0603757 0.00864176 0 0 0 -0.00334571 -0.000953154 -0.00443797 1.48747e-07 3.26532e-07 -1.7583e-06 1 0 0 0 0 0 0 0 0 0 0 0 0 0 0 0 57 0.0008 0 
12874 9 0.0110376 -0.0604184 0.00841372 0 0 0 -0.000893371 -0.000982149 -0.00245379 -1.63577e-06 8.2818e-06 2.37157e-06 0 0 1 0 0 0 0 0 0 0 0 0 0 0 0 0 26 0.0008 0 
9650 1 0.0125805 -0.060498 0.00798773 0 0 0 0.00128919 -0.00050682 -0.00262992 1.01825e-06 -8.11266e-07 1.24152e-06 0 0 1 0 0 0 0 0 0 0 0 0 0 0 0 0 31 0.0008 0 
7843 6 0.0168505 -0.0603969 0.00852815 0 0 0 0.0017617 -0.000365651 -0.00149614 2.57879e-06 -9.03334e-07 4.34708e-06 0 0 0 0 0 0 0 0 0 0 0 0 0 0 0 0 41 0.0008 0 
4325 3 0.00219101 -0.0602541 0.00929241 0 0 0 -0.00326182 -0.00120777 -0.00647034 1.907e-07 4.71995e-07 -1.46556e-06 1 0 0 0 0 0 0 0 0 0 0 0 0 0 0 0 95 0.0008 0 
5875 2 0.00776232 -0.0602683 0.00921639 0 0 0 0.000631055 -0.000185108 -0.0012661 1.12057e-06 -3.76684e-07 -1.16718e-07 0 0 1 0 0 0 0 0 0 0 0 0 0 0 0 0 41 0.0008 0 
11656 4 0.0147832 -0.0603105 0.00899068 0 0 0 0.0189238 -0.00206735 -0.0110545 -1.96818e-11 -2.79621e-07 -1.35203e-06 0 0 0 0 0 0 0 0 0 0 0 0 0 0 0 0 45 0.0008 0 
8682 5 0.00471145 -0.0601898 0.00963618 0 0 0 0.00141489 -0.000887295 -0.00466994 4.49107e-07 -6.13756e-07 -6.49667e-07 1 0 0 0 0 0 0 0 0 0 0 0 0 0 0 0 46 0.0008 0 
13823 5 0.00629647 -0.0601489 0.00985482 0 0 0 0.000894798 0.000294088 -0.000568596 -4.88863e-06 -4.27152e-07 3.46617e-06 0 0 1 0 2 0 0 0 0 0 0 0 0 0 0 0 12 0.0008 0 
7002 9 0.0103461 -0.0601533 0.00983185 0 0 0 -0.000596251 -5.43059e-05 -0.0030055 -3.25609e-06 -1.13683e-06 1.42122e-06 0 0 0 0 0 0 0 0 2 0 0 0 0 0 0 0 48 0.0008 0 
13214 1 0.0126789 -0.0602045 0.00955779 0 0 0 0.0108064 -0.000607013 -0.00326373 5.74624e-12 -3.28079e-07 -1.34287e-06 0 0 0 0 0 0 0 0 0 0 0 0 0 0 0 0 9 0.0008 0 
6493 9 0.0176426 -0.0601397 0.00990421 0 0 0 0.00739686 -0.000763814 -0.00408524 -3.91142e-12 -2.49477e-07 -1.35794e-06 0 0 0 0 0 0 0 0 0 0 0 0 0 0 0 0 37 0.0008 0 
17660 4 0.015168 -0.0582375 0.00916369 0 0 0 -2.04504 0.670579 11.7049 0 -1.05196e-05 0 0 0 0 0 0 0 0 0 0 0 0 0 0 0 0 0 0 0.0008 0 