ITEM: TIMESTEP
10650000
ITEM: NUMBER OF ATOMS
1302
ITEM: BOX BOUNDS ff ff ff
-0.01 0.45
-0.15 0.15
-0.08 0.1
ITEM: ATOMS id type x y z ix iy iz vx vy vz fx fy fz c_cc_1 c_cc_2 c_cc_3 c_cc_4 c_cc_5 c_cc_6 c_cc_7 c_cc_8 c_cc_9 c_cc_10 c_cc_11 c_cc_12 c_cc_13 c_cc_14 c_cc_15 c_cc_16 f_fppacc radius 
44 5 0.00789776 -0.04103 -0.0365686 0 0 0 2.27495 -8.26026 10.8899 0.0311983 -0.045042 0.154242 0 0 0 0 1 0 0 0 0 0 0 0 0 0 0 0 35 0.002 
1279 4 0.00667925 -0.0416813 -0.0401871 0 0 0 -1.66509 -7.96366 10.781 -0.0303485 0.367554 0.216153 0 0 0 0 1 0 0 0 0 0 0 0 0 0 0 0 5 0.002 
250 5 0.0158805 -0.0576371 0.0051307 0 0 0 -20.0658 2.66876 49.71 0 -0.000164368 0 0 0 0 0 0 0 0 0 0 0 0 0 0 0 0 0 48 0.002 
1327 4 0.0150429 -0.0395295 0.0421083 0 0 0 3.19037 20.4049 20.1365 0 -0.000164368 0 0 0 0 0 0 0 0 0 0 0 0 0 0 0 0 0 0 0.002 
896 1 0.00492615 -0.0341796 -0.0464405 0 0 0 -0.114547 -6.50346 10.666 0 -0.000164368 0 0 0 0 0 0 0 0 0 0 0 0 0 0 0 0 0 38 0.002 
377 4 0.0115148 -0.00313251 -0.0555657 0 0 0 -2.02847 -20.5118 4.43347 0 -0.000164368 0 0 0 0 0 0 0 0 0 0 0 0 0 0 0 0 0 52 0.002 
313 1 0.00550679 -0.031293 0.048449 0 0 0 1.47691 14.595 9.84999 0 -0.000164368 0 0 0 0 0 0 0 0 0 0 0 0 0 0 0 0 0 30 0.002 
554 3 0.00774954 -0.000678524 0.0544317 0 0 0 -1.25035 23.713 2.94397 0 -0.000164368 0 0 0 0 0 0 0 0 0 0 0 0 0 0 0 0 0 27 0.002 
1146 2 0.013374 0.0235089 -0.023253 0 0 0 1.60436 -2.86169 -0.624842 0 -0.000164368 0 0 0 0 0 0 0 0 0 0 0 0 0 0 0 0 0 24 0.002 
1318 9 0.0132231 0.0213409 0.0535896 0 0 0 7.65905 24.8117 -8.63896 0 -0.000164368 0 0 0 0 0 0 0 0 0 0 0 0 0 0 0 0 0 0 0.002 
1137 1 0.0183872 0.0094333 0.0568829 0 0 0 1.64719 13.3169 -1.94862 0 -0.000164368 0 0 0 0 0 0 0 0 0 0 0 0 0 0 0 0 0 3 0.002 
1143 7 0.00470427 0.0032399 0.0415962 0 0 0 4.14886 23.4048 -6.0323 0 -0.000164368 0 0 0 0 0 0 0 0 0 0 0 0 0 0 0 0 0 6 0.002 
41 1 0.0151238 0.052857 -0.0355 0 0 0 4.42898e-190 -1.20388e-19 6.71706e-12 -1.70321e-189 0 0 0 0 0 0 0 0 0 0 0 0 0 0 0 0 0 0 2 0.002 
1200 1 0.00297028 0.0647513 -0.0263597 0 0 0 -0.122848 -0.408373 0.0504782 0.0963878 -0.0426349 0.0227795 0 0 0 0 0 0 0 0 0 0 0 0 0 0 0 0 11 0.002 
154 5 0.00629488 0.0619846 -0.0245624 0 0 0 1.99668 -0.994803 -0.789852 0 -0.000164368 0 0 0 0 0 0 0 0 0 0 0 0 0 0 0 0 0 14 0.002 
1313 5 0.00453273 0.067687 -0.0204598 0 0 0 0.517872 0.975022 -3.49819 0 -0.000164368 0 0 0 0 0 0 0 0 0 0 0 0 0 0 0 0 0 0 0.002 
1219 5 0.00819246 0.0541872 0.00926009 0 0 0 -0.921835 -1.14612 1.86985 0 -0.000164368 0 0 0 0 0 0 0 0 0 0 0 0 0 0 0 0 0 2 0.002 
1330 2 0.0140579 0.0676278 -0.0232441 0 0 0 3.17562 2.73341 -19.4557 0 -0.000164368 0 0 0 0 0 0 0 0 0 0 0 0 0 0 0 0 0 0 0.002 
524 5 0.00426404 0.0674245 -0.00686585 0 0 0 -1.15491 -1.20113 -4.43616 0 -0.000164368 0 0 0 0 0 0 0 0 0 0 0 0 0 0 0 0 0 39 0.002 
900 1 0.0034161 0.0431187 -0.00178272 0 0 0 0.239786 -1.26971 1.5122 0 -0.000164368 0 0 0 0 0 0 0 0 0 0 0 0 0 0 0 0 0 27 0.002 
1314 3 0.00452609 0.0661325 -0.00073975 0 0 0 -2.21925 -1.56837 0.30577 0 -0.000164368 0 0 0 0 0 0 0 0 0 0 0 0 0 0 0 0 0 0 0.002 
1126 4 0.0175345 0.0697377 -0.000192821 0 0 0 -0.577374 0.0802853 -0.183654 0 -0.000164368 0 0 0 0 0 0 0 0 0 0 0 0 0 0 0 0 0 12 0.002 
1285 6 0.00503722 0.0503618 0.00554406 0 0 0 1.5763 1.07081 -12.6474 0 -0.000164368 0 0 0 0 0 0 0 0 0 0 0 0 0 0 0 0 0 0 0.002 
749 4 0.0163085 0.0721257 0.032536 0 0 0 -0.10613 -0.170443 -0.0653479 0.00148184 -0.000533902 -9.01316e-05 0 0 0 1 0 0 0 0 0 0 0 0 0 0 0 0 46 0.002 
396 3 0.00423845 0.0571077 0.0157683 0 0 0 1.23644 -4.47464 9.05897 0 -0.000164368 0 0 0 0 0 0 0 0 0 0 0 0 0 0 0 0 0 52 0.002 
417 1 0.00570352 0.0446055 0.0143594 0 0 0 0.18352 -0.224819 1.02724 0 -0.000164368 0 0 0 0 0 0 0 0 0 0 0 0 0 0 0 0 0 60 0.002 
695 2 0.00340749 0.0731628 0.0152289 0 0 0 -0.0270666 0.436263 -0.501338 0 -0.000164368 0 0 0 0 0 0 0 0 0 0 0 0 0 0 0 0 0 36 0.002 
823 9 0.00976971 0.0669576 0.0203366 0 0 0 -0.0121236 -0.228286 -0.311006 0 -0.000164368 0 0 0 0 0 0 0 0 0 0 0 0 0 0 0 0 0 22 0.002 
1071 3 0.00329429 0.0709907 0.0208231 0 0 0 -0.216537 0.378379 -0.132223 0 -0.000164368 0 0 0 0 0 0 0 0 0 0 0 0 0 0 0 0 0 17 0.002 
262 3 0.0117581 0.0710302 0.0201888 0 0 0 -0.13455 -0.227196 -0.190553 0 -0.000164368 0 0 0 0 0 0 0 0 0 0 0 0 0 0 0 0 0 40 0.002 
1077 1 0.00928998 0.0742066 0.0206343 0 0 0 -0.104723 -0.180509 -0.157853 0 -0.000164368 0 0 0 0 0 0 0 0 0 0 0 0 0 0 0 0 0 14 0.002 
928 2 0.0127326 0.048388 0.0207809 0 0 0 1.91594 1.16696 -5.27692 0 -0.000164368 0 0 0 0 0 0 0 0 0 0 0 0 0 0 0 0 0 43 0.002 
526 2 0.011204 0.0587618 0.0217865 0 0 0 0.131303 -0.27378 -0.839478 0 -0.000164368 0 0 0 0 0 0 0 0 0 0 0 0 0 0 0 0 0 34 0.002 
818 4 0.014302 0.0684952 0.0220672 0 0 0 -0.0566384 -0.227744 -0.244456 0 -0.000164368 0 0 0 0 0 0 0 0 0 0 0 0 0 0 0 0 0 33 0.002 
508 9 0.00749417 0.0711262 0.0225181 0 0 0 0.117738 -0.0162623 -0.0834269 0 -0.000164368 0 0 0 0 0 0 0 0 0 0 0 0 0 0 0 0 0 60 0.002 
1176 6 0.00971436 0.0660233 0.0251938 0 0 0 0.270129 0.0609674 -0.306874 -0.0262978 0.0147032 -0.0535592 0 0 0 0 0 1 0 0 0 0 0 0 0 0 0 0 16 0.002 
999 5 0.0110217 0.0707099 0.0250779 0 0 0 -0.104005 -0.197865 -0.108655 0 -0.000164368 0 0 0 0 0 0 0 0 0 0 0 0 0 0 0 0 0 32 0.002 
1155 5 0.0110446 0.0747257 0.0246183 0 0 0 -0.0983545 -0.189578 -0.0865412 0 -0.000164368 0 0 0 0 0 0 0 0 0 0 0 0 0 0 0 0 0 26 0.002 
12 9 0.00297991 0.0609917 0.0266817 0 0 0 -3.94562 0.796635 -1.39989 0.520637 -0.33269 0.0308004 0 0 0 0 0 0 0 0 0 0 0 0 0 0 0 0 49 0.002 
1191 3 0.00640993 0.0686813 0.0266151 0 0 0 0.654547 0.181483 -0.775516 0.00145965 -0.0121029 0.0164414 0 0 2 0 0 0 0 0 0 0 0 0 0 0 0 0 30 0.002 
1016 8 0.00668694 0.0726401 0.0263071 0 0 0 0.0886339 0.0625184 -0.203535 0.0116585 0.023821 -0.00985152 0 0 1 0 0 0 0 0 0 0 0 0 0 0 0 0 28 0.002 
1044 10 0.0183888 0.0721032 0.025943 0 0 0 0.205188 -0.0222905 -0.347322 0 -0.000164368 0 0 0 0 0 0 0 0 0 0 0 0 0 0 0 0 0 25 0.002 
1138 3 0.00627454 0.055151 0.0282536 0 0 0 0.476504 -0.561112 -0.502234 0 -0.000164368 0 0 0 0 0 0 0 0 0 0 0 0 0 0 0 0 0 9 0.002 
635 4 0.00980554 0.0611474 0.0289873 0 0 0 -0.187431 -0.598786 -2.23391 0 -0.000164368 0 0 0 0 0 0 0 0 0 0 0 0 0 0 0 0 0 53 0.002 
1186 8 0.00310578 0.0667302 0.0276031 0 0 0 0.384623 -0.533459 -1.38216 -0.0131182 -0.0122111 -0.00658991 0 0 1 0 0 0 0 0 0 0 0 0 0 0 0 0 18 0.002 
329 7 0.011574 0.0655671 0.0286416 0 0 0 0.38546 -0.0175809 -0.151335 0.0229921 -0.0282602 0.0429635 0 0 0 0 0 1 2 0 0 0 0 0 0 0 0 0 55 0.002 
718 11 0.0107582 0.0693815 0.0294315 0 0 0 0.145912 -0.0285808 -0.187339 0.00406281 0.014919 0.00362025 0 0 0 0 0 0 1 0 0 0 0 0 0 0 0 0 53 0.002 
531 1 0.00300826 0.0709687 0.0279727 0 0 0 0.101541 0.533533 -0.321061 0 -0.000164368 0 0 0 0 0 0 0 0 0 0 0 0 0 0 0 0 0 67 0.002 
397 3 0.00302645 0.0747335 0.0295275 0 0 0 -0.218083 0.781052 -0.127003 0.0132886 -0.0311625 -0.0229339 0 0 3 0 0 0 0 0 0 0 0 0 0 0 0 0 66 0.002 
1103 1 0.0129676 0.0729033 0.0283142 0 0 0 -0.0207169 -0.166719 -0.103568 0 -0.000164368 0 0 0 0 0 0 0 0 0 0 0 0 0 0 0 0 0 28 0.002 
1110 7 0.016627 0.05499 0.0322874 0 0 0 0.0153187 -0.706667 -0.0640578 0 -0.000164368 0 0 0 0 0 0 0 0 0 0 0 0 0 0 0 0 0 19 0.002 
378 2 0.00298143 0.0618555 0.0325021 0 0 0 0.0926482 1.88209 0.155416 0.0285677 0.00426527 0.00606611 0 0 0 0 0 0 0 0 0 0 0 0 0 0 0 0 41 0.002 
314 6 0.00649824 0.0634764 0.0314763 0 0 0 0.23213 0.877755 -1.01883 -0.00260692 -0.0144839 -0.0156369 0 0 0 0 0 1 0 0 0 0 0 0 0 0 0 0 33 0.002 
529 14 0.018182 0.0618606 0.0305687 0 0 0 0.104035 -0.239373 -0.384054 -0.0114766 0.0524568 0.0278618 0 0 0 0 0 0 0 0 0 0 0 0 0 1 0 0 59 0.002 
627 2 0.0030219 0.0689543 0.0315289 0 0 0 0.10291 0.241968 -0.387961 0 -0.000164368 0 0 0 0 0 0 0 0 0 0 0 0 0 0 0 0 0 45 0.002 
1172 8 0.00689258 0.0700469 0.0303887 0 0 0 0.135665 0.451226 -0.368553 0.0024883 -0.00250658 -0.00627999 0 0 0 0 0 0 0 2 0 0 0 0 0 0 0 0 24 0.002 
1206 3 0.00685138 0.0736116 0.0321455 0 0 0 0.0242109 0.254355 0.0856203 -0.00336976 0.015679 -0.00777393 0 0 1 0 0 0 0 1 0 0 0 0 0 0 0 0 22 0.002 
403 8 0.0130816 0.0744632 0.0322129 0 0 0 -0.0562594 -0.143865 -0.0556817 0.00554528 -0.0043191 -0.00265677 0 0 0 1 0 0 0 2 0 0 0 0 0 0 0 0 49 0.002 
442 7 0.015639 0.0643071 0.032539 0 0 0 0.631775 0.721002 -0.332054 0 -0.000164368 0 0 0 0 0 0 0 0 0 0 0 0 0 0 0 0 0 42 0.002 
1122 1 0.00628681 0.0671323 0.0330194 0 0 0 0.371085 0.570052 -0.059707 -0.012695 -0.0266811 -0.0119126 1 0 0 0 0 1 0 1 0 0 0 0 0 0 0 0 28 0.002 
324 5 0.0100341 0.0659835 0.0322951 0 0 0 0.275416 0.354197 -0.190217 0.00979807 -0.000211074 0.00552719 1 0 0 0 0 0 1 0 0 0 0 0 0 0 0 0 52 0.002 
92 2 0.0134119 0.0686391 0.0328618 0 0 0 0.786126 0.632914 0.00596426 0 -0.000164368 0 0 0 0 0 0 0 0 0 0 0 0 0 0 0 0 0 59 0.002 
923 10 0.00299095 0.0727114 0.0329671 0 0 0 0.0279279 0.300053 -0.173992 0.0101843 -0.0049838 -0.00488215 0 0 1 0 0 0 0 0 0 0 0 0 0 0 0 0 31 0.002 
1023 1 0.0103852 0.0716177 0.0329997 0 0 0 0.0605994 -0.264014 0.00386203 3.4015e-05 -6.1266e-05 -4.43318e-06 0 0 0 0 0 0 0 1 0 0 0 0 0 0 0 0 34 0.002 
369 6 0.0134855 0.0877595 -0.0322266 0 0 0 3.46989 -0.67825 2.02084 0 -0.000164368 0 0 0 0 0 0 0 0 0 0 0 0 0 0 0 0 0 40 0.002 
451 1 0.0152846 0.098818 -0.033028 0 0 0 -1.16584 -0.383734 -0.150333 0.0448544 0.0116555 0.0927713 0 0 0 0 0 0 0 0 0 0 0 0 0 0 0 0 37 0.002 
431 5 0.0103288 0.101466 -0.0323471 0 0 0 0.223716 -0.475043 0.118668 0 -0.000164368 0 0 0 0 0 0 0 0 0 0 0 0 0 0 0 0 0 13 0.002 
1304 1 0.0172955 0.107826 -0.0329881 0 0 0 0.444168 -0.114259 0.00910005 0 -0.000164368 0 0 0 0 0 0 0 0 0 0 0 0 0 0 0 0 0 0 0.002 
971 2 0.00774361 0.0979262 -0.030618 0 0 0 -1.6748 1.06444 0.48443 0 -0.000164368 0 0 0 0 0 0 0 0 0 0 0 0 0 0 0 0 0 24 0.002 
144 9 0.0148981 0.103866 -0.0292249 0 0 0 0.207559 0.94272 0.112334 0 -0.000164368 0 0 0 0 0 0 0 0 0 0 0 0 0 0 0 0 0 52 0.002 
1003 7 0.00653692 0.106136 -0.0302761 0 0 0 2.81734 -2.71916 -1.01845 0 -0.000164368 0 0 0 0 0 0 0 0 0 0 0 0 0 0 0 0 0 25 0.002 
1212 1 0.0166122 0.0972677 -0.0278639 0 0 0 -0.00945754 1.36368 2.53678 0 -0.000164368 0 0 0 0 0 0 0 0 0 0 0 0 0 0 0 0 0 10 0.002 
77 12 0.0181331 0.106901 -0.0282511 0 0 0 -0.481086 0.528032 0.62975 0 -0.000164368 0 0 0 0 0 0 0 0 0 0 0 0 0 0 0 0 0 55 0.002 
706 9 0.0099627 0.104097 -0.024744 0 0 0 0.538298 -0.299224 -0.0169319 0 -0.000164368 0 0 0 0 0 0 0 0 0 0 0 0 0 0 0 0 0 62 0.002 
1227 5 0.00534304 0.0910332 -0.0212822 0 0 0 1.36802 -1.67651 3.15533 0 -0.000164368 0 0 0 0 0 0 0 0 0 0 0 0 0 0 0 0 0 2 0.002 
322 2 0.00763447 0.0981735 -0.0240167 0 0 0 0.166454 -0.950368 0.667941 0 -0.000164368 0 0 0 0 0 0 0 0 0 0 0 0 0 0 0 0 0 53 0.002 
311 2 0.0153426 0.1031 -0.0243074 0 0 0 1.10971 -1.00866 -0.330373 0 -0.000164368 0 0 0 0 0 0 0 0 0 0 0 0 0 0 0 0 0 48 0.002 
182 2 0.0162055 0.0751963 -0.0205819 0 0 0 2.84542 0.267743 -0.16602 0 -0.000164368 0 0 0 0 0 0 0 0 0 0 0 0 0 0 0 0 0 47 0.002 
974 2 0.00308829 0.107771 -0.0211248 0 0 0 -0.298355 -0.0648229 0.0768123 0 -0.000164368 0 0 0 0 0 0 0 0 0 0 0 0 0 0 0 0 0 33 0.002 
477 2 0.00315406 0.0971829 -0.017455 0 0 0 0.264237 0.387275 1.90509 0 -0.000164368 0 0 0 0 0 0 0 0 0 0 0 0 0 0 0 0 0 15 0.002 
972 3 0.00598514 0.10058 -0.017428 0 0 0 1.188 0.577709 0.924113 0 -0.000164368 0 0 0 0 0 0 0 0 0 0 0 0 0 0 0 0 0 26 0.002 
790 3 0.00954288 0.10453 -0.0185852 0 0 0 -2.6916 1.90549 1.29985 0 -0.000164368 0 0 0 0 0 0 0 0 0 0 0 0 0 0 0 0 0 37 0.002 
245 1 0.016948 0.103954 -0.0196363 0 0 0 -0.421693 -0.0137767 -1.38432 0 -0.000164368 0 0 0 0 0 0 0 0 0 0 0 0 0 0 0 0 0 34 0.002 
553 7 0.00616363 0.10643 -0.017261 0 0 0 -0.0171113 0.0669625 0.270649 0 -0.000164368 0 0 0 0 0 0 0 0 0 0 0 0 0 0 0 0 0 40 0.002 
820 4 0.00527384 0.078662 -0.0132491 0 0 0 0.631136 1.77733 1.39603 0 -0.000164368 0 0 0 0 0 0 0 0 0 0 0 0 0 0 0 0 0 17 0.002 
757 2 0.0121182 0.0794894 -0.0142416 0 0 0 -0.857856 -2.12848 -2.09605 0 -0.000164368 0 0 0 0 0 0 0 0 0 0 0 0 0 0 0 0 0 20 0.002 
338 6 0.00442851 0.0916195 -0.0133586 0 0 0 -0.488245 -1.80436 0.749841 0 -0.000164368 0 0 0 0 0 0 0 0 0 0 0 0 0 0 0 0 0 47 0.002 
536 2 0.00309177 0.101269 -0.0142316 0 0 0 0.0183098 0.151109 0.928693 0 -0.000164368 0 0 0 0 0 0 0 0 0 0 0 0 0 0 0 0 0 41 0.002 
4 6 0.00912969 0.102552 -0.014499 0 0 0 -0.928327 0.265981 0.873333 0 -0.000164368 0 0 0 0 0 0 0 0 0 0 0 0 0 0 0 0 0 32 0.002 
368 5 0.00619143 0.105109 -0.0130846 0 0 0 -0.0353846 -0.0749139 0.266646 0 -0.000164368 0 0 0 0 0 0 0 0 0 0 0 0 0 0 0 0 0 43 0.002 
735 8 0.00302774 0.106977 -0.0147153 0 0 0 0.0210131 -0.0198401 0.372486 0 -0.000164368 0 0 0 0 0 0 0 0 0 0 0 0 0 0 0 0 0 24 0.002 
1100 2 0.0118495 0.105714 -0.0139894 0 0 0 0.0907393 -0.542984 0.0904452 0 -0.000164368 0 0 0 0 0 0 0 0 0 0 0 0 0 0 0 0 0 13 0.002 
956 1 0.00520106 0.0994969 -0.0109318 0 0 0 -0.640557 -0.471057 0.957034 0 -0.000164368 0 0 0 0 0 0 0 0 0 0 0 0 0 0 0 0 0 12 0.002 
121 2 0.0145549 0.099819 -0.0118489 0 0 0 0.544508 0.348509 0.191192 0 -0.000164368 0 0 0 0 0 0 0 0 0 0 0 0 0 0 0 0 0 51 0.002 
835 12 0.00369157 0.094771 -0.00994284 0 0 0 0.380939 -1.22506 0.576403 0 -0.000164368 0 0 0 0 0 0 0 0 0 0 0 0 0 0 0 0 0 33 0.002 
453 3 0.00313755 0.104088 -0.0104624 0 0 0 0.0218414 -0.32468 0.355562 0 -0.000164368 0 0 0 0 0 0 0 0 0 0 0 0 0 0 0 0 0 34 0.002 
583 1 0.0132011 0.104085 -0.00938006 0 0 0 0.33925 -0.595245 0.672811 0 -0.000164368 0 0 0 0 0 0 0 0 0 0 0 0 0 0 0 0 0 51 0.002 
337 8 0.00768827 0.107449 -0.00963375 0 0 0 -0.0814891 -0.189557 0.490099 0 -0.000164368 0 0 0 0 0 0 0 0 0 0 0 0 0 0 0 0 0 44 0.002 
997 6 0.0160623 0.106993 -0.00974041 0 0 0 0.154598 -0.167408 -0.517901 0 -0.000164368 0 0 0 0 0 0 0 0 0 0 0 0 0 0 0 0 0 22 0.002 
1316 8 0.0130741 0.0766391 -0.00804373 0 0 0 -0.229521 -1.19428 0.293678 0 -0.000164368 0 0 0 0 0 0 0 0 0 0 0 0 0 0 0 0 0 0 0.002 
416 5 0.00332473 0.0994615 -0.0072571 0 0 0 -1.51835 0.472682 1.2207 0 -0.000164368 0 0 0 0 0 0 0 0 0 0 0 0 0 0 0 0 0 52 0.002 
1152 2 0.00791088 0.102837 -0.00747257 0 0 0 0.0847039 -0.177764 0.0343192 0 -0.000164368 0 0 0 0 0 0 0 0 0 0 0 0 0 0 0 0 0 8 0.002 
1198 5 0.0178575 0.101381 -0.00795803 0 0 0 0.109423 0.433647 -0.0152948 0 -0.000164368 0 0 0 0 0 0 0 0 0 0 0 0 0 0 0 0 0 13 0.002 
240 1 0.00302703 0.103825 -0.00631043 0 0 0 -0.0112915 -0.201289 0.384254 0 -0.000164368 0 0 0 0 0 0 0 0 0 0 0 0 0 0 0 0 0 44 0.002 
676 1 0.0183397 0.105434 -0.00672491 0 0 0 0.0139971 1.11769 0.0710215 0 -0.000164368 0 0 0 0 0 0 0 0 0 0 0 0 0 0 0 0 0 38 0.002 
1043 8 0.00389194 0.107781 -0.00759323 0 0 0 -0.219369 0.0277239 0.240215 0 -0.000164368 0 0 0 0 0 0 0 0 0 0 0 0 0 0 0 0 0 13 0.002 
252 6 0.00615079 0.0818808 -0.00366137 0 0 0 -3.80862 2.19387 -2.53983 0.098286 -0.123944 0.133933 0 0 0 0 0 1 0 0 0 0 0 0 0 0 0 0 32 0.002 
1104 4 0.0146848 0.0887679 -0.00458748 0 0 0 0.321513 0.803106 -0.882255 0 -0.000164368 0 0 0 0 0 0 0 0 0 0 0 0 0 0 0 0 0 12 0.002 
515 5 0.0107087 0.0907711 -0.00501024 0 0 0 0.457129 0.616575 -1.17395 0 -0.000164368 0 0 0 0 0 0 0 0 0 0 0 0 0 0 0 0 0 46 0.002 
503 7 0.0117671 0.0952791 -0.00515071 0 0 0 0.335017 0.485703 -1.02269 0 -0.000164368 0 0 0 0 0 0 0 0 0 0 0 0 0 0 0 0 0 47 0.002 
1154 12 0.0115062 0.100086 -0.00577556 0 0 0 0.382129 0.796971 -0.962343 0 -0.000164368 0 0 0 0 0 0 0 0 0 0 0 0 0 0 0 0 0 14 0.002 
621 4 0.00304203 0.107103 -0.00373368 0 0 0 -0.16737 0.0667952 0.25042 0.00290941 0.000639316 -0.00564456 0 0 0 1 0 0 0 0 0 0 0 0 0 0 0 0 39 0.002 
731 2 0.00817888 0.107906 -0.00524099 0 0 0 0.0334099 -0.00140254 0.230088 0.00596567 0.00650639 -0.00451041 0 1 0 0 0 0 0 0 0 0 0 0 0 0 0 0 28 0.002 
917 8 0.0151225 0.0975125 -0.00296722 0 0 0 0.751431 0.7814 -1.31849 0 -0.000164368 0 0 0 0 0 0 0 0 0 0 0 0 0 0 0 0 0 35 0.002 
1280 1 0.00453288 0.0989282 -0.00331086 0 0 0 0.215639 -0.114078 -0.409821 0 -0.000164368 0 0 0 0 0 0 0 0 0 0 0 0 0 0 0 0 0 0 0.002 
962 6 0.00806619 0.100922 -0.00269521 0 0 0 0.22308 -0.0521716 -0.144609 0 -0.000164368 0 0 0 0 0 0 0 0 0 0 0 0 0 0 0 0 0 35 0.002 
732 4 0.00638371 0.104796 -0.00351621 0 0 0 -0.124252 -0.021647 0.137929 -0.00596567 -0.00683512 0.00451041 0 1 0 0 0 0 0 0 0 0 0 0 0 0 0 0 40 0.002 
1270 6 0.0147762 0.104441 -0.00245434 0 0 0 0.091768 0.888529 0.516582 0 -0.000164368 0 0 0 0 0 0 0 0 0 0 0 0 0 0 0 0 0 1 0.002 
870 2 0.0172152 0.0820213 -0.00553316 0 0 0 0.993696 5.66489 -10.0193 0 -0.000164368 0 0 0 0 0 0 0 0 0 0 0 0 0 0 0 0 0 4 0.002 
498 4 0.012019 0.0883002 -0.00134454 0 0 0 -0.5196 1.00601 -0.98835 0 -0.000164368 0 0 0 0 0 0 0 0 0 0 0 0 0 0 0 0 0 20 0.002 
1199 14 0.00878598 0.0935152 -0.00150884 0 0 0 1.12401 0.34669 -0.441068 0 -0.000164368 0 0 0 0 0 0 0 0 0 0 0 0 0 0 0 0 0 16 0.002 
1319 2 0.00309162 0.0950583 -0.00103388 0 0 0 0.0214903 -0.427684 -0.38047 0 -0.000164368 0 0 0 0 0 0 0 0 0 0 0 0 0 0 0 0 0 1 0.002 
193 8 0.0135501 0.0941191 -0.000926277 0 0 0 0.505097 0.598229 -1.28879 0 -0.000164368 0 0 0 0 0 0 0 0 0 0 0 0 0 0 0 0 0 54 0.002 
961 1 0.00299622 0.106768 0.000242957 0 0 0 0.0021221 -0.031111 0.220356 -0.000441222 -0.00086343 0.00265722 1 0 0 1 0 0 0 0 0 0 0 0 0 0 0 0 17 0.002 
493 5 0.00725 0.106111 0.000202812 0 0 0 0.0485275 0.0501308 0.0844576 -6.6768e-05 -0.000151881 -0.000101805 0 0 0 0 1 0 0 0 0 0 0 0 0 0 0 0 54 0.002 
1185 6 0.0114177 0.107013 -0.0011284 0 0 0 0.181013 0.0844678 0.251587 0 -0.000164368 0 0 0 0 0 0 0 0 0 0 0 0 0 0 0 0 0 9 0.002 
839 3 0.00835313 0.0796798 -0.00126546 0 0 0 4.25864 1.6791 -3.11189 -0.098286 0.123615 -0.133933 0 0 0 0 0 1 0 0 0 0 0 0 0 0 0 0 17 0.002 
552 8 0.00668842 0.0909163 0.00127337 0 0 0 0.495759 0.334921 -0.506897 -0.0373896 0.125406 -0.0809221 0 0 0 0 0 0 0 1 0 0 0 0 0 0 0 0 58 0.002 
933 1 0.0054848 0.0964563 0.00219714 0 0 0 0.199781 0.45925 -0.642884 0 -0.000164368 0 0 0 0 0 0 0 0 0 0 0 0 0 0 0 0 0 28 0.002 
1196 5 0.00300753 0.101159 0.00131071 0 0 0 0.032389 0.0421673 0.0911635 0 -0.000164368 0 0 0 0 0 0 0 0 0 0 0 0 0 0 0 0 0 9 0.002 
188 6 0.00823121 0.0805873 0.00376407 0 0 0 -0.583205 0.833956 -1.85666 0 -0.000164368 0 0 0 0 0 0 0 0 0 0 0 0 0 0 0 0 0 53 0.002 
845 3 0.00759295 0.088286 0.00404462 0 0 0 0.309226 1.23282 -0.372404 0.0373896 -0.125735 0.0809221 0 0 0 0 0 0 0 1 0 0 0 0 0 0 0 0 33 0.002 
934 1 0.0136572 0.0876758 0.0029939 0 0 0 0.589614 0.497587 -0.819787 0 -0.000164368 0 0 0 0 0 0 0 0 0 0 0 0 0 0 0 0 0 34 0.002 
836 4 0.0112232 0.0928701 0.00384933 0 0 0 -0.00436778 1.48301 -0.0914328 0 -0.000164368 0 0 0 0 0 0 0 0 0 0 0 0 0 0 0 0 0 40 0.002 
1311 3 0.00701722 0.100003 0.00348832 0 0 0 0.308701 0.5265 0.155405 0 -0.000164368 0 0 0 0 0 0 0 0 0 0 0 0 0 0 0 0 0 0 0.002 
411 1 0.0112319 0.0988436 0.00360828 0 0 0 0.159043 0.165901 -0.220068 0 -0.000164368 0 0 0 0 0 0 0 0 0 0 0 0 0 0 0 0 0 4 0.002 
967 2 0.00831645 0.104244 0.00357415 0 0 0 0.0288265 0.0203908 0.0777102 6.6768e-05 -0.000176855 0.000101805 0 0 0 0 1 0 0 0 0 0 0 0 0 0 0 0 18 0.002 
1149 4 0.0039838 0.105992 0.004034 0 0 0 -0.0012677 -0.147289 0.235196 -0.00232889 -0.000795758 -0.0024787 1 0 0 1 0 0 0 0 0 0 0 0 0 0 0 0 2 0.002 
1223 2 0.01076 0.107169 0.00513193 0 0 0 0.040725 -0.0186691 0.352967 0 -0.000164368 0 0 0 0 0 0 0 0 0 0 0 0 0 0 0 0 0 4 0.002 
988 10 0.00405264 0.0792694 0.0053516 0 0 0 1.84702 0.842567 -0.967802 0 -0.000164368 0 0 0 0 0 0 0 0 0 0 0 0 0 0 0 0 0 21 0.002 
20 3 0.0157643 0.0832636 0.00704402 0 0 0 -0.65199 1.06201 -0.859394 0 -0.000164368 0 0 0 0 0 0 0 0 0 0 0 0 0 0 0 0 0 43 0.002 
1236 1 0.0027759 0.082747 -0.0323666 0 0 0 1.93614 13.5021 -21.2784 1.2316 -0.285079 0.545922 0 0 0 0 0 0 0 0 0 0 0 0 0 0 0 0 7 0.002 
892 5 0.00332412 0.0983408 0.00553592 0 0 0 0.0559455 0.40764 -0.213804 0 -0.000164368 0 0 0 0 0 0 0 0 0 0 0 0 0 0 0 0 0 28 0.002 
1153 8 0.00773492 0.102367 0.00705908 0 0 0 0.117306 0.0675284 0.123271 0 -0.000164368 0 0 0 0 0 0 0 0 0 0 0 0 0 0 0 0 0 25 0.002 
998 5 0.00302082 0.103449 0.00697934 0 0 0 0.00536705 -0.0531285 0.20879 0 -0.000164368 0 0 0 0 0 0 0 0 0 0 0 0 0 0 0 0 0 19 0.002 
1299 5 0.0140397 0.104405 0.00623378 0 0 0 0.076166 -0.389272 -0.0871915 0 -0.000164368 0 0 0 0 0 0 0 0 0 0 0 0 0 0 0 0 0 2 0.002 
1317 6 0.00680183 0.106615 0.00678989 0 0 0 0.0466892 -0.0991225 0.179514 0.00113618 -0.000330689 0.00193478 0 0 0 1 0 0 0 0 0 0 0 0 0 0 0 0 1 0.002 
920 3 0.00301644 0.107989 0.0074073 0 0 0 0.00650047 0.00236689 0.108644 0 -0.000164368 0 0 0 0 0 0 0 0 0 0 0 0 0 0 0 0 0 25 0.002 
1115 2 0.00345901 0.0813315 0.00889761 0 0 0 0.255766 0.582031 -0.527305 0 -0.000164368 0 0 0 0 0 0 0 0 0 0 0 0 0 0 0 0 0 20 0.002 
548 4 0.00575024 0.0892267 0.00936165 0 0 0 -0.128037 0.16534 -0.0528767 0 -0.000164368 0 0 0 0 0 0 0 0 0 0 0 0 0 0 0 0 0 45 0.002 
983 5 0.0150658 0.0911456 0.00823244 0 0 0 0.251764 -0.102959 -0.469378 0 -0.000164368 0 0 0 0 0 0 0 0 0 0 0 0 0 0 0 0 0 22 0.002 
440 5 0.0143551 0.0953422 0.00825347 0 0 0 0.197896 0.224547 -0.00150723 0 -0.000164368 0 0 0 0 0 0 0 0 0 0 0 0 0 0 0 0 0 60 0.002 
297 3 0.00729435 0.0984465 0.00776259 0 0 0 0.132888 0.0496289 0.133057 0 -0.000164368 0 0 0 0 0 0 0 0 0 0 0 0 0 0 0 0 0 43 0.002 
1229 6 0.00317244 0.100177 0.00930736 0 0 0 -0.0393579 -0.0561819 0.233363 0 -0.000164368 0 0 0 0 0 0 0 0 0 0 0 0 0 0 0 0 0 5 0.002 
1218 8 0.0109769 0.099291 0.00920498 0 0 0 0.295012 -0.220899 0.0935397 0 -0.000164368 0 0 0 0 0 0 0 0 0 0 0 0 0 0 0 0 0 6 0.002 
641 1 0.0108705 0.103997 0.00900287 0 0 0 0.171606 0.0347204 0.177534 0 -0.000164368 0 0 0 0 0 0 0 0 0 0 0 0 0 0 0 0 0 24 0.002 
794 6 0.0182871 0.103206 0.00843264 0 0 0 -0.184255 -0.274942 0.324969 0.0119007 -0.0153671 -0.013251 0 0 0 0 0 1 0 0 0 0 0 0 0 0 0 0 21 0.002 
1293 6 0.00949233 0.107845 0.00947541 0 0 0 0.0838029 -0.0554733 0.0726872 0.00217155 0.000680629 0.00164519 0 0 0 0 0 0 0 0 0 0 0 0 0 0 0 0 0 0.002 
871 2 0.0109789 0.0901454 0.00997181 0 0 0 0.257322 0.0376884 -0.233204 0 -0.000164368 0 0 0 0 0 0 0 0 0 0 0 0 0 0 0 0 0 17 0.002 
278 11 0.00631143 0.0830078 0.0114223 0 0 0 -0.300098 0.16492 -0.558765 0 -0.000164368 0 0 0 0 0 0 0 0 0 0 0 0 0 0 0 0 0 49 0.002 
1232 7 0.014328 0.106801 0.0329835 0 0 0 0.0328475 -0.0699328 -0.0109376 0 -0.000164368 0 0 0 0 0 0 0 0 0 0 0 0 0 0 0 0 0 5 0.002 
1156 1 0.00866603 0.106317 0.0329803 0 0 0 0.0196111 -0.0438857 -0.00257582 0 -0.000164368 0 0 0 0 0 0 0 0 0 0 0 0 0 0 0 0 0 8 0.002 
1289 4 0.0030336 0.0961499 0.0108208 0 0 0 0.00231542 -0.257092 0.0244721 0 -0.000164368 0 0 0 0 0 0 0 0 0 0 0 0 0 0 0 0 0 1 0.002 
225 4 0.00735809 0.0970984 0.0115343 0 0 0 0.00687491 -0.0798963 0.106212 0 -0.000164368 0 0 0 0 0 0 0 0 0 0 0 0 0 0 0 0 0 22 0.002 
467 1 0.0139099 0.101583 0.0107086 0 0 0 0.262328 -0.1782 0.114426 0 -0.000164368 0 0 0 0 0 0 0 0 0 0 0 0 0 0 0 0 0 42 0.002 
827 2 0.00592098 0.104239 0.0102965 0 0 0 -0.0570084 0.102443 0.115169 0 -0.000164368 0 0 0 0 0 0 0 0 0 0 0 0 0 0 0 0 0 25 0.002 
741 5 0.015658 0.105274 0.010568 0 0 0 -0.211124 0.0723109 0.238354 -0.0119007 0.0150383 0.013251 0 0 0 0 1 0 0 0 0 0 0 0 0 0 0 0 32 0.002 
339 4 0.00327056 0.106863 0.0120605 0 0 0 0.0095529 -0.0817567 0.0733878 0 -0.000164368 0 0 0 0 0 0 0 0 0 0 0 0 0 0 0 0 0 39 0.002 
601 8 0.0183468 0.0800323 0.0129917 0 0 0 0.739561 1.03076 1.12316 0 -0.000164368 0 0 0 0 0 0 0 0 0 0 0 0 0 0 0 0 0 39 0.002 
533 4 0.0146584 0.0858604 0.0120558 0 0 0 -0.538264 0.608506 -0.531902 0 -0.000164368 0 0 0 0 0 0 0 0 0 0 0 0 0 0 0 0 0 61 0.002 
179 1 0.00688119 0.0868431 0.0124756 0 0 0 -0.0936304 0.0513568 0.0553154 0 -0.000164368 0 0 0 0 0 0 0 0 0 0 0 0 0 0 0 0 0 37 0.002 
287 6 0.0153772 0.0895242 0.0136464 0 0 0 0.477 0.550237 -0.295108 0 -0.000164368 0 0 0 0 0 0 0 0 0 0 0 0 0 0 0 0 0 36 0.002 
1009 1 0.00887792 0.0933933 0.0122692 0 0 0 0.0133638 -0.175456 -0.139402 0 -0.000164368 0 0 0 0 0 0 0 0 0 0 0 0 0 0 0 0 0 13 0.002 
951 10 0.01267 0.0924927 0.0136571 0 0 0 0.145055 0.107979 -0.0129046 0 -0.000164368 0 0 0 0 0 0 0 0 0 0 0 0 0 0 0 0 0 24 0.002 
721 5 0.0127043 0.0965639 0.0121532 0 0 0 0.152862 0.210156 -0.222535 0 -0.000164368 0 0 0 0 0 0 0 0 0 0 0 0 0 0 0 0 0 37 0.002 
987 4 0.00619075 0.100115 0.0139059 0 0 0 -0.0175184 -0.0687741 0.100135 0 -0.000164368 0 0 0 0 0 0 0 0 0 0 0 0 0 0 0 0 0 16 0.002 
570 1 0.0101225 0.099413 0.0134725 0 0 0 0.0238863 0.0378338 0.0750148 -1.09796e-06 -0.00014463 -7.17739e-05 0 0 0 0 0 0 0 0 0 0 0 0 0 0 0 0 38 0.002 
125 10 0.0030471 0.102484 0.0125911 0 0 0 0.0389923 0.0423151 0.189831 0 -0.000164368 0 0 0 0 0 0 0 0 0 0 0 0 0 0 0 0 0 43 0.002 
927 3 0.0128374 0.102538 0.0144793 0 0 0 0.127166 -0.0587757 0.0692616 0 -0.000164368 0 0 0 0 0 0 0 0 0 0 0 0 0 0 0 0 0 23 0.002 
407 4 0.0167904 0.101897 0.0139114 0 0 0 0.0749129 -0.215732 -0.0910557 0 -0.000164368 0 0 0 0 0 0 0 0 0 0 0 0 0 0 0 0 0 35 0.002 
257 6 0.00909348 0.10331 0.0126426 0 0 0 0.0148586 0.0982446 0.0773628 0 -0.000164368 0 0 0 0 0 0 0 0 0 0 0 0 0 0 0 0 0 35 0.002 
230 6 0.0078684 0.107752 0.013129 0 0 0 0.0902409 -0.0287525 0.0739461 1.71239e-05 -0.000161883 0.00018806 0 0 0 0 0 1 0 0 0 0 0 0 0 0 0 0 52 0.002 
626 1 0.0120455 0.106954 0.0124282 0 0 0 0.0852899 -0.0923815 0.0557995 0 -0.000164368 0 0 0 0 0 0 0 0 0 0 0 0 0 0 0 0 0 34 0.002 
58 1 0.00306315 0.0837355 0.0165133 0 0 0 0.212981 -0.0967177 -0.343348 0 -0.000164368 0 0 0 0 0 0 0 0 0 0 0 0 0 0 0 0 0 51 0.002 
1025 4 0.00853701 0.083658 0.0157659 0 0 0 -0.431818 0.451022 -0.848589 0 -0.000164368 0 0 0 0 0 0 0 0 0 0 0 0 0 0 0 0 0 30 0.002 
560 4 0.00995921 0.0881895 0.0148904 0 0 0 0.0179425 -0.0417082 -0.188488 0 -0.000164368 0 0 0 0 0 0 0 0 0 0 0 0 0 0 0 0 0 31 0.002 
582 7 0.00589454 0.089217 0.0156987 0 0 0 -0.0747181 -0.00788034 -0.156026 0 -0.000164368 0 0 0 0 0 0 0 0 0 0 0 0 0 0 0 0 0 36 0.002 
336 9 0.00303758 0.0929613 0.0147859 0 0 0 0.00415745 -0.101928 -0.0470554 0 -0.000164368 0 0 0 0 0 0 0 0 0 0 0 0 0 0 0 0 0 47 0.002 
726 1 0.00923182 0.0920505 0.0162001 0 0 0 0.0417488 -0.0319496 -0.00279347 0 -0.000164368 0 0 0 0 0 0 0 0 0 0 0 0 0 0 0 0 0 37 0.002 
576 2 0.0171581 0.0916678 0.0167184 0 0 0 0.0416143 -0.0192761 -0.0570961 -0.00387637 0.0107884 -0.0208262 0 1 0 0 0 0 0 0 0 0 0 0 0 0 0 0 27 0.002 
801 5 0.0161896 0.0953422 0.0146776 0 0 0 0.175785 0.0956012 -0.0934317 0.000366632 -0.00357064 0.000531252 0 0 0 0 1 0 0 0 0 0 0 0 0 0 0 0 31 0.002 
926 2 0.00302702 0.0969979 0.0148301 0 0 0 0.00311678 -0.092257 0.0264261 0 -0.000164368 0 0 0 0 0 0 0 0 0 0 0 0 0 0 0 0 0 23 0.002 
1117 1 0.0067193 0.096132 0.0162155 0 0 0 0.0114439 -0.0610531 -0.0747357 0 -0.000164368 0 0 0 0 0 0 0 0 0 0 0 0 0 0 0 0 0 1 0.002 
568 1 0.0106738 0.0968106 0.0164584 0 0 0 0.0538178 -0.106469 -0.0508036 -0.000578222 -0.000778338 0.000468861 2 0 0 0 0 0 0 0 0 0 0 0 0 0 0 0 20 0.002 
140 4 0.00305238 0.100725 0.0163671 0 0 0 0.00203965 -0.102676 0.0718817 0 -0.000164368 0 0 0 0 0 0 0 0 0 0 0 0 0 0 0 0 0 39 0.002 
824 6 0.0145781 0.0989215 0.0154207 0 0 0 -0.112754 -0.0989093 0.0400702 -0.000366632 0.00324191 -0.000531252 0 0 0 0 1 0 0 0 0 0 0 0 0 0 0 0 38 0.002 
799 3 0.00518757 0.104828 0.0150454 0 0 0 0.0447303 0.0632937 0.18771 0 -0.000164368 0 0 0 0 0 0 0 0 0 0 0 0 0 0 0 0 0 42 0.002 
1160 2 0.00870417 0.103666 0.0166425 0 0 0 0.0829139 -0.0280685 0.109071 -0.00111245 0.000444652 -0.002003 0 1 0 0 0 0 0 0 0 0 0 0 0 0 0 0 12 0.002 
189 5 0.0118092 0.107314 0.0164276 0 0 0 0.0433692 -0.0895538 0.0504202 0 -0.000164368 0 0 0 0 0 0 0 0 0 0 0 0 0 0 0 0 0 28 0.002 
1253 2 0.0153367 0.105706 0.0151013 0 0 0 0.0931794 -0.16307 0.16545 0 -0.000164368 0 0 0 0 0 0 0 0 0 0 0 0 0 0 0 0 0 4 0.002 
1292 9 0.00301275 0.107983 0.016237 0 0 0 -0.023535 0.0574837 0.134919 0 -0.000164368 0 0 0 0 0 0 0 0 0 0 0 0 0 0 0 0 0 1 0.002 
1064 5 0.00639493 0.0761 0.0166179 0 0 0 0.148038 0.37084 -0.271212 0 -0.000164368 0 0 0 0 0 0 0 0 0 0 0 0 0 0 0 0 0 25 0.002 
661 2 0.00349583 0.079255 0.01862 0 0 0 0.0513649 0.155425 -0.00419384 0 -0.000164368 0 0 0 0 0 0 0 0 0 0 0 0 0 0 0 0 0 29 0.002 
151 8 0.00300396 0.0899156 0.0183996 0 0 0 0.00578954 -0.0458697 -0.0493236 0 -0.000164368 0 0 0 0 0 0 0 0 0 0 0 0 0 0 0 0 0 24 0.002 
149 7 0.0056228 0.0929408 0.0184222 0 0 0 0.0166261 -0.0771317 -0.0350257 -0.00103251 -0.0010143 -0.000207863 0 0 0 0 0 0 1 0 0 0 0 0 0 0 0 0 56 0.002 
1136 1 0.0129546 0.0922493 0.0179265 0 0 0 0.106284 -0.0205168 -0.0411194 0 -0.000164368 0 0 0 0 0 0 0 0 0 0 0 0 0 0 0 0 0 19 0.002 
650 3 0.00301606 0.0964996 0.0189424 0 0 0 0.00310386 -0.105789 0.0041992 -1.17868e-05 -0.000226844 -8.51593e-05 0 0 1 0 0 0 0 0 0 0 0 0 0 0 0 0 44 0.002 
886 5 0.0165366 0.097074 0.0184185 0 0 0 0.0200045 -0.0483539 0.0446353 0 -0.000164368 0 0 0 0 0 0 0 0 0 0 0 0 0 0 0 0 0 26 0.002 
989 4 0.00696663 0.100192 0.0178414 0 0 0 0.00676197 -0.0213067 0.0810237 -0.00197172 -0.00174605 -0.00243378 0 0 0 2 0 0 0 0 0 0 0 0 0 0 0 0 15 0.002 
1250 6 0.0111356 0.100615 0.017603 0 0 0 -0.00996166 -0.142068 -0.0113913 0.000762737 0.000553443 -0.000510375 1 0 0 0 0 0 0 0 0 0 0 0 0 0 0 0 8 0.002 
143 7 0.0168925 0.102102 0.017911 0 0 0 -0.0508679 -0.174069 -0.0427074 0.000276812 -0.000465971 1.31644e-05 0 0 0 0 0 0 1 0 0 0 0 0 0 0 0 0 8 0.002 
1062 4 0.00494626 0.103596 0.0188828 0 0 0 0.104228 -0.0764375 0.182419 0 -0.000164368 0 0 0 0 0 0 0 0 0 0 0 0 0 0 0 0 0 21 0.002 
948 3 0.0132014 0.104183 0.018528 0 0 0 -0.044145 -0.0418768 -0.0510304 0 -0.000164368 0 0 0 0 0 0 0 0 0 0 0 0 0 0 0 0 0 28 0.002 
639 9 0.0076272 0.107513 0.0171145 0 0 0 0.0300403 -0.0924671 0.0685947 -9.95555e-06 -0.000163077 -2.20514e-05 0 0 0 0 0 1 0 0 0 0 0 0 0 0 0 0 45 0.002 
717 2 0.0153096 0.10768 0.0187223 0 0 0 0.0374489 -0.0874616 0.0724428 0 -0.000164368 0 0 0 0 0 0 0 0 0 0 0 0 0 0 0 0 0 32 0.002 
632 6 0.00318379 0.0753954 0.0196975 0 0 0 0.0833453 -0.0268985 -0.223633 0 -0.000164368 0 0 0 0 0 0 0 0 0 0 0 0 0 0 0 0 0 50 0.002 
930 3 0.00733479 0.0787805 0.0207247 0 0 0 0.018301 -0.0143116 0.105105 0 -0.000164368 0 0 0 0 0 0 0 0 0 0 0 0 0 0 0 0 0 54 0.002 
1215 2 0.00622759 0.0878654 0.0197388 0 0 0 0.0181185 -0.120941 -0.132855 0 -0.000164368 0 0 0 0 0 0 0 0 0 0 0 0 0 0 0 0 0 4 0.002 
1133 6 0.00938133 0.0903682 0.0198346 0 0 0 0.0164556 -0.0980739 -0.0271542 0 -0.000164368 0 0 0 0 0 0 0 0 0 0 0 0 0 0 0 0 0 8 0.002 
963 3 0.0169351 0.0894873 0.0200213 0 0 0 -0.12859 -0.100726 0.179533 0.00387637 -0.0111171 0.0208262 0 1 0 0 0 0 0 0 0 0 0 0 0 0 0 0 24 0.002 
1183 1 0.0160996 0.0934284 0.0202079 0 0 0 -0.0750708 -0.0575511 -0.0380419 0 -0.000164368 0 0 0 0 0 0 0 0 0 0 0 0 0 0 0 0 0 18 0.002 