ITEM: TIMESTEP
11000000
ITEM: NUMBER OF ATOMS
1348
ITEM: BOX BOUNDS ff ff ff
-0.01 0.45
-0.15 0.15
-0.08 0.1
ITEM: ATOMS id type x y z ix iy iz vx vy vz fx fy fz c_cc_1 c_cc_2 c_cc_3 c_cc_4 c_cc_5 c_cc_6 c_cc_7 c_cc_8 c_cc_9 c_cc_10 c_cc_11 c_cc_12 c_cc_13 c_cc_14 c_cc_15 c_cc_16 f_fppacc radius 
594 1 0.0155291 -0.0570927 -0.00813228 0 0 0 -0.515759 -2.14881 16.1903 0 -0.000164368 0 0 0 0 0 0 0 0 0 0 0 0 0 0 0 0 0 42 0.002 
1331 1 0.00623686 -0.0523072 0.00498076 0 0 0 0.144357 -0.841415 1.99754 0 -0.000164368 0 0 0 0 0 0 0 0 0 0 0 0 0 0 0 0 0 0 0.002 
902 3 0.00983008 -0.052136 -0.0251883 0 0 0 -25.3278 -22.0495 40.2173 0 -0.000164368 0 0 0 0 0 0 0 0 0 0 0 0 0 0 0 0 0 22 0.002 
1347 4 0.0107997 -0.0079611 0.0572759 0 0 0 2.83287 9.19445 1.94125 0.0924204 0.0210438 -0.183855 0 0 0 0 0 0 0 0 0 0 0 0 0 0 0 0 0 0.002 
1375 6 0.0142934 -0.0363759 0.0451954 0 0 0 -14.3771 41.6546 32.7774 0.0771904 1.01502 -1.89447 0 0 0 0 0 0 0 0 0 0 0 0 0 0 0 0 0 0.002 
510 9 0.00469496 0.00265661 -0.0476087 0 0 0 0.0555862 -1.20809 -0.904986 0 -0.000164368 0 0 0 0 0 0 0 0 0 0 0 0 0 0 0 0 0 91 0.002 
273 3 0.00673576 0.0302139 -0.0285844 0 0 0 0.703751 -3.68025 -0.277773 0 -0.000164368 0 0 0 0 0 0 0 0 0 0 0 0 0 0 0 0 0 28 0.002 
923 10 0.00377688 0.0361405 0.0325182 0 0 0 0.079511 -0.851099 -0.0240195 0 -0.000164368 0 0 0 0 0 0 0 0 0 0 0 0 0 0 0 0 0 33 0.002 
1089 6 0.0162489 0.0216804 0.0490149 0 0 0 0.624876 -3.37581 8.62717 0 -0.000164368 0 0 0 0 0 0 0 0 0 0 0 0 0 0 0 0 0 21 0.002 
946 1 0.0050084 0.021373 0.0488348 0 0 0 -7.92733 9.2745 -5.68358 0 -0.000164368 0 0 0 0 0 0 0 0 0 0 0 0 0 0 0 0 0 37 0.002 
41 1 0.0151206 0.0528441 -0.0354994 0 0 0 1.74506e-16 -1.05345e-15 -5.66885e-13 0 0 0 1 0 0 0 0 0 0 0 0 0 0 0 0 0 0 0 7 0.002 
480 3 0.016098 0.056465 -0.0355006 0 0 0 -1.76365e-16 1.05099e-15 -5.66829e-13 0 0 0 1 0 0 0 0 0 0 0 0 0 0 0 0 0 0 0 47 0.002 
973 12 0.00979908 0.0422386 -0.0309173 0 0 0 0.47181 -1.58369 -1.08739 0 -0.000164368 0 0 0 0 0 0 0 0 0 0 0 0 0 0 0 0 0 29 0.002 
978 1 0.00638124 0.0718695 -0.0282752 0 0 0 -0.388692 -2.45132 0.661373 0 -0.000164368 0 0 0 0 0 0 0 0 0 0 0 0 0 0 0 0 0 25 0.002 
1378 4 0.0105325 0.0609618 -0.0268024 0 0 0 -0.656507 -0.190612 26.2454 0 -0.000164368 0 0 0 0 0 0 0 0 0 0 0 0 0 0 0 0 0 0 0.002 
1363 1 0.0133056 0.0399731 -0.0163029 0 0 0 -0.498218 -4.54499 1.84014 0 -0.000164368 0 0 0 0 0 0 0 0 0 0 0 0 0 0 0 0 0 0 0.002 
1031 3 0.00729392 0.0410205 -0.014157 0 0 0 -3.33868 -2.75138 1.75055 0 -0.000164368 0 0 0 0 0 0 0 0 0 0 0 0 0 0 0 0 0 26 0.002 
859 6 0.00503098 0.0687428 -0.0154798 0 0 0 1.05025 -0.317997 -1.21954 0 -0.000164368 0 0 0 0 0 0 0 0 0 0 0 0 0 0 0 0 0 41 0.002 
588 16 0.00972057 0.0597116 -0.0138604 0 0 0 3.08789 1.10386 -11.1312 0 -0.000164368 0 0 0 0 0 0 0 0 0 0 0 0 0 0 0 0 0 46 0.002 
860 11 0.00545083 0.0744833 -0.00780729 0 0 0 0.482042 0.874911 -3.13407 0 -0.000164368 0 0 0 0 0 0 0 0 0 0 0 0 0 0 0 0 0 39 0.002 
839 3 0.0113015 0.0693622 -0.00168189 0 0 0 1.43497 -1.99865 -0.650454 0 -0.000164368 0 0 0 0 0 0 0 0 0 0 0 0 0 0 0 0 0 17 0.002 
224 5 0.0150423 0.0634307 0.00826251 0 0 0 1.62948 2.51405 -3.79243 0 -0.000164368 0 0 0 0 0 0 0 0 0 0 0 0 0 0 0 0 0 62 0.002 
996 2 0.00707431 0.0749643 0.00828304 0 0 0 0.213904 -0.293027 0.718475 0 -0.000164368 0 0 0 0 0 0 0 0 0 0 0 0 0 0 0 0 0 37 0.002 
1242 4 0.0173813 0.0701186 0.0328422 0 0 0 -0.13942 -0.16648 -0.00785786 0 -0.000164368 0 0 0 0 0 0 0 0 0 0 0 0 0 0 0 0 0 8 0.002 
862 3 0.0124602 0.0698632 0.0110669 0 0 0 0.461931 1.07587 -2.27839 0 -0.000164368 0 0 0 0 0 0 0 0 0 0 0 0 0 0 0 0 0 34 0.002 
1017 2 0.0073677 0.0736735 0.0135028 0 0 0 0.225212 -0.432146 1.25981 0 -0.000164368 0 0 0 0 0 0 0 0 0 0 0 0 0 0 0 0 0 13 0.002 
167 2 0.0155917 0.069312 0.0159258 0 0 0 0.165459 -0.138395 -0.997781 0 -0.000164368 0 0 0 0 0 0 0 0 0 0 0 0 0 0 0 0 0 39 0.002 
108 2 0.00376882 0.0700683 0.0157726 0 0 0 -0.0020846 -0.84078 -0.0350962 0 -0.000164368 0 0 0 0 0 0 0 0 0 0 0 0 0 0 0 0 0 60 0.002 
1273 2 0.0173579 0.0728132 0.014592 0 0 0 0.37826 0.146341 -1.1483 0 -0.000164368 0 0 0 0 0 0 0 0 0 0 0 0 0 0 0 0 0 6 0.002 
303 3 0.0138376 0.0409785 0.0184129 0 0 0 -0.300367 -1.45669 -0.965463 0 -0.000164368 0 0 0 0 0 0 0 0 0 0 0 0 0 0 0 0 0 35 0.002 
253 2 0.00470749 0.0736408 0.0187138 0 0 0 0.09353 -0.36217 0.355744 0 -0.000164368 0 0 0 0 0 0 0 0 0 0 0 0 0 0 0 0 0 43 0.002 
1023 1 0.0176543 0.0525924 0.0217163 0 0 0 -0.583087 -1.02058 3.97854 0 -0.000164368 0 0 0 0 0 0 0 0 0 0 0 0 0 0 0 0 0 35 0.002 
356 7 0.00486943 0.0697637 0.0199973 0 0 0 0.322339 -0.627823 0.345148 0 -0.000164368 0 0 0 0 0 0 0 0 0 0 0 0 0 0 0 0 0 55 0.002 
765 1 0.00336109 0.040963 0.0230855 0 0 0 -0.575384 -1.45402 -0.711232 0 -0.000164368 0 0 0 0 0 0 0 0 0 0 0 0 0 0 0 0 0 42 0.002 
53 3 0.00574754 0.0458946 0.0219941 0 0 0 -0.260205 -0.778484 -0.928912 0 -0.000164368 0 0 0 0 0 0 0 0 0 0 0 0 0 0 0 0 0 68 0.002 
141 5 0.0124764 0.0711763 0.0230381 0 0 0 -0.169048 -0.333676 -0.199047 0 -0.000164368 0 0 0 0 0 0 0 0 0 0 0 0 0 0 0 0 0 77 0.002 
1040 3 0.00347049 0.0616712 0.0247731 0 0 0 0.0878817 -0.423079 -0.126581 0 -0.000164368 0 0 0 0 0 0 0 0 0 0 0 0 0 0 0 0 0 31 0.002 
924 7 0.011658 0.0652324 0.0250839 0 0 0 0.365297 -0.495329 -0.65707 0 -0.000164368 0 0 0 0 0 0 0 0 0 0 0 0 0 0 0 0 0 27 0.002 
787 3 0.00862004 0.0723665 0.0329476 0 0 0 -0.176957 -0.378629 -0.0311869 0 -0.000164368 0 0 0 0 0 0 0 0 0 0 0 0 0 0 0 0 0 37 0.002 
373 7 0.0145491 0.0742393 0.0250424 0 0 0 -0.145955 -0.391418 -0.0716428 0 -0.000164368 0 0 0 0 0 0 0 0 0 0 0 0 0 0 0 0 0 58 0.002 
890 6 0.00309007 0.0531252 0.0262966 0 0 0 0.180519 -0.537652 -0.250376 0 -0.000164368 0 0 0 0 0 0 0 0 0 0 0 0 0 0 0 0 0 44 0.002 
343 2 0.0117029 0.0713757 0.0274695 0 0 0 1.34816 0.450775 -0.0554671 0 -0.000164368 0 0 0 0 0 0 0 0 0 0 0 0 0 0 0 0 0 57 0.002 
359 3 0.0185675 0.0610134 0.0325181 0 0 0 -0.171601 -0.389413 -0.016022 0 -0.000164368 0 0 0 0 0 0 0 0 0 0 0 0 0 0 0 0 0 50 0.002 
463 9 0.0165471 0.0480389 0.0291235 0 0 0 0.268216 -0.539469 -0.278493 0 -0.000164368 0 0 0 0 0 0 0 0 0 0 0 0 0 0 0 0 0 44 0.002 
1174 9 0.00566654 0.0559088 0.02811 0 0 0 0.460989 -0.459331 0.154657 0 -0.000164368 0 0 0 0 0 0 0 0 0 0 0 0 0 0 0 0 0 11 0.002 
400 7 0.0113688 0.0610324 0.0286196 0 0 0 0.703156 -2.29646 -0.934134 -0.0578236 0.035023 -0.00827066 0 0 0 0 0 0 1 0 0 0 0 0 0 0 0 0 59 0.002 
1371 4 0.00866609 0.0676484 0.0266542 0 0 0 -2.06582 0.454851 -3.40407 0 -0.000164368 0 0 0 0 0 0 0 0 0 0 0 0 0 0 0 0 0 0 0.002 
877 4 0.014264 0.0677739 0.0279906 0 0 0 0.67056 0.175992 -1.01064 0 -0.000164368 0 0 0 0 0 0 0 0 0 0 0 0 0 0 0 0 0 37 0.002 
854 2 0.0182717 0.0695348 0.0282966 0 0 0 1.28576 0.701771 -0.60366 0 -0.000164368 0 0 0 0 0 0 0 0 0 0 0 0 0 0 0 0 0 38 0.002 
658 8 0.00331929 0.0720067 0.0272874 0 0 0 -0.650167 1.28593 -2.14455 0 -0.000164368 0 0 0 0 0 0 0 0 0 0 0 0 0 0 0 0 0 40 0.002 
1256 2 0.00690162 0.074809 0.0293091 0 0 0 -0.00882066 -0.3162 -0.0630291 0 -0.000164368 0 0 0 0 0 0 0 0 0 0 0 0 0 0 0 0 0 13 0.002 
519 1 0.00304504 0.0540306 0.0305562 0 0 0 0.158797 -0.611131 0.00984136 0 -0.000164368 0 0 0 0 0 0 0 0 0 0 0 0 0 0 0 0 0 47 0.002 
1189 5 0.00629088 0.0562478 0.032141 0 0 0 -0.0575185 -0.405484 -0.0282386 0 -0.000164368 0 0 0 0 0 0 0 0 0 0 0 0 0 0 0 0 0 15 0.002 
1063 3 0.0148216 0.0602422 0.0304202 0 0 0 -0.0644852 -0.566705 -0.188775 0.0578236 -0.0353517 0.00827066 0 0 0 0 0 0 1 0 0 0 0 0 0 0 0 0 19 0.002 
214 8 0.0078419 0.0613866 0.0329406 0 0 0 0.938486 0.0320482 -0.896645 0 -0.000164368 0 0 0 0 0 0 0 0 0 0 0 0 0 0 0 0 0 27 0.002 
1090 12 0.0113716 0.0643689 0.0312805 0 0 0 0.209529 -0.360596 -1.37176 0 -0.000164368 0 0 0 0 0 0 0 0 0 0 0 0 0 0 0 0 0 24 0.002 
693 8 0.00324121 0.0698543 0.0309894 0 0 0 0.957673 0.0373698 -1.36597 0 -0.000164368 0 0 0 0 0 0 0 0 0 0 0 0 0 0 0 0 0 42 0.002 
294 1 0.0114836 0.0695753 0.0324211 0 0 0 -0.0896018 -0.38585 -0.000966778 0 -0.000164368 0 0 0 0 0 0 0 0 0 0 0 0 0 0 0 0 0 37 0.002 
59 3 0.0139945 0.0726826 0.0322082 0 0 0 -0.0951153 -0.363964 0.00272251 0 -0.000164368 0 0 0 0 0 0 0 0 0 0 0 0 0 0 0 0 0 30 0.002 
881 1 0.00318903 0.0506465 0.0327076 0 0 0 -0.0230697 -0.397323 -0.0532949 0 -0.000164368 0 0 0 0 0 0 0 0 0 0 0 0 0 0 0 0 0 38 0.002 
375 4 0.00695144 0.0521611 0.032557 0 0 0 -0.0353409 -0.363452 -0.0392906 0 -0.000164368 0 0 0 0 0 0 0 0 0 0 0 0 0 0 0 0 0 50 0.002 
70 6 0.0108719 0.057209 0.0330443 0 0 0 1.09838 -2.2793 0.0976036 -0.054684 0.0581884 -0.159942 0 0 0 0 0 0 0 0 0 0 0 0 0 0 0 0 43 0.002 
1187 4 0.00331107 0.0609013 0.0330329 0 0 0 0.506136 -0.829829 0.534903 0.0374032 0.0739764 -0.166082 0 0 0 0 0 0 0 0 0 0 0 0 0 0 0 0 14 0.002 
567 7 0.0118522 0.106592 -0.0328325 0 0 0 0.00658279 -0.234352 -0.151992 0 -0.000164368 0 0 0 0 0 0 0 0 0 0 0 0 0 0 0 0 0 29 0.002 
1291 4 0.00310207 0.0769313 -0.0311166 0 0 0 -0.247358 -1.20912 0.0566538 0 -0.000164368 0 0 0 0 0 0 0 0 0 0 0 0 0 0 0 0 0 5 0.002 
232 7 0.00765533 0.0864535 -0.0314451 0 0 0 0.416441 -0.934737 -0.267287 0 -0.000164368 0 0 0 0 0 0 0 0 0 0 0 0 0 0 0 0 0 25 0.002 
889 1 0.0176877 0.0901156 -0.0303006 0 0 0 0.132845 -1.2203 -0.0906453 0 -0.000164368 0 0 0 0 0 0 0 0 0 0 0 0 0 0 0 0 0 29 0.002 
534 13 0.00745782 0.101795 -0.0296559 0 0 0 0.00258571 -0.384825 0.169509 0 -0.000164368 0 0 0 0 0 0 0 0 0 0 0 0 0 0 0 0 0 51 0.002 
314 6 0.0134192 0.10208 -0.0304318 0 0 0 -1.23251 -0.285408 0.340301 0 -0.000164368 0 0 0 0 0 0 0 0 0 0 0 0 0 0 0 0 0 33 0.002 
618 7 0.00305611 0.107598 -0.0321356 0 0 0 0.10257 -0.546925 -1.23241 0 -0.000164368 0 0 0 0 0 0 0 0 0 0 0 0 0 0 0 0 0 37 0.002 
381 2 0.0100404 0.0987125 -0.0281108 0 0 0 -0.166148 -1.09192 0.5044 0 -0.000164368 0 0 0 0 0 0 0 0 0 0 0 0 0 0 0 0 0 54 0.002 
671 3 0.00398685 0.103124 -0.0278221 0 0 0 0.54904 0.247929 -0.856114 0 -0.000164368 0 0 0 0 0 0 0 0 0 0 0 0 0 0 0 0 0 50 0.002 
554 3 0.0135891 0.107235 -0.0288424 0 0 0 -0.405372 -0.366842 0.411732 0 -0.000164368 0 0 0 0 0 0 0 0 0 0 0 0 0 0 0 0 0 28 0.002 
1131 5 0.00907523 0.0835917 -0.0280167 0 0 0 0.0999828 0.514012 -2.28139 0 -0.000164368 0 0 0 0 0 0 0 0 0 0 0 0 0 0 0 0 0 19 0.002 
753 6 0.0100971 0.106043 -0.0266061 0 0 0 -0.175547 -0.198096 0.209253 0 -0.000164368 0 0 0 0 0 0 0 0 0 0 0 0 0 0 0 0 0 64 0.002 
928 2 0.00364243 0.103795 -0.0236114 0 0 0 -1.29873 -1.61803 -1.34856 0 -0.000164368 0 0 0 0 0 0 0 0 0 0 0 0 0 0 0 0 0 43 0.002 
1368 2 0.00677499 0.0970674 -0.020461 0 0 0 1.00587 0.322072 -0.63401 0 -0.000164368 0 0 0 0 0 0 0 0 0 0 0 0 0 0 0 0 0 0 0.002 
179 1 0.0138526 0.103326 -0.0215354 0 0 0 -0.751352 -0.291375 0.056976 0 -0.000164368 0 0 0 0 0 0 0 0 0 0 0 0 0 0 0 0 0 37 0.002 
738 5 0.0175352 0.107916 -0.0197092 0 0 0 -0.337822 -0.0537987 0.925038 0 -0.000164368 0 0 0 0 0 0 0 0 0 0 0 0 0 0 0 0 0 36 0.002 
309 1 0.00368621 0.106283 -0.0169704 0 0 0 -0.00497223 -0.281434 0.256499 0 -0.000164368 0 0 0 0 0 0 0 0 0 0 0 0 0 0 0 0 0 61 0.002 
1167 8 0.0185239 0.106829 -0.0155541 0 0 0 0.0814925 -0.256977 -0.0467401 0 -0.000164368 0 0 0 0 0 0 0 0 0 0 0 0 0 0 0 0 0 17 0.002 
944 4 0.00320335 0.107248 -0.0131001 0 0 0 0.0278698 -0.106047 0.238511 0 -0.000164368 0 0 0 0 0 0 0 0 0 0 0 0 0 0 0 0 0 2 0.002 
653 9 0.0148591 0.106006 -0.0131074 0 0 0 0.612816 -0.301539 1.04953 0 -0.000164368 0 0 0 0 0 0 0 0 0 0 0 0 0 0 0 0 0 36 0.002 
661 2 0.00333865 0.102024 -0.0126622 0 0 0 0.174789 0.222118 0.285153 0 -0.000164368 0 0 0 0 0 0 0 0 0 0 0 0 0 0 0 0 0 31 0.002 
773 5 0.0108859 0.107977 -0.0118731 0 0 0 -0.0921176 -0.0190548 0.306211 0 -0.000164368 0 0 0 0 0 0 0 0 0 0 0 0 0 0 0 0 0 24 0.002 
1046 3 0.00504025 0.0877223 -0.00870867 0 0 0 -0.414321 -0.850768 0.658251 0 -0.000164368 0 0 0 0 0 0 0 0 0 0 0 0 0 0 0 0 0 18 0.002 
601 8 0.010844 0.0874856 -0.00951398 0 0 0 0.432004 -1.57948 0.508818 0 -0.000164368 0 0 0 0 0 0 0 0 0 0 0 0 0 0 0 0 0 41 0.002 
1012 7 0.00477857 0.093792 -0.00924871 0 0 0 -0.786081 -0.811048 -0.245669 0 -0.000164368 0 0 0 0 0 0 0 0 0 0 0 0 0 0 0 0 0 33 0.002 
896 1 0.00745511 0.101607 -0.00965107 0 0 0 0.0131232 -0.385932 0.270509 0 -0.000164368 0 0 0 0 0 0 0 0 0 0 0 0 0 0 0 0 0 40 0.002 
997 6 0.0125222 0.10176 -0.00990398 0 0 0 0.509504 -0.50055 0.905221 0 -0.000164368 0 0 0 0 0 0 0 0 0 0 0 0 0 0 0 0 0 23 0.002 
1032 4 0.00376817 0.106731 -0.00885932 0 0 0 0.00448734 -0.180766 0.249108 -0.000216837 9.41076e-05 -0.000523464 0 0 0 1 0 0 0 0 0 0 0 0 0 0 0 0 19 0.002 
245 1 0.00957773 0.105945 -0.00849056 0 0 0 0.145463 -0.127824 0.345323 0 -0.000164368 0 0 0 0 0 0 0 0 0 0 0 0 0 0 0 0 0 34 0.002 
1016 8 0.0162985 0.108006 -0.00864946 0 0 0 0.419035 -0.367648 0.526696 -0.00307088 0.0251102 -0.0122585 0 0 0 0 0 0 0 0 0 0 0 0 0 0 0 0 29 0.002 
102 1 0.0128037 0.0774147 -0.00730908 0 0 0 0.17785 -0.225434 -0.549477 0 -0.000164368 0 0 0 0 0 0 0 0 0 0 0 0 0 0 0 0 0 52 0.002 
1334 15 0.00878545 0.0941117 -0.00773715 0 0 0 0.0168474 -0.344071 -0.400114 0 -0.000164368 0 0 0 0 0 0 0 0 0 0 0 0 0 0 0 0 0 0 0.002 
735 8 0.0036245 0.101303 -0.00616148 0 0 0 -0.0169087 -0.347169 0.190123 0 -0.000164368 0 0 0 0 0 0 0 0 0 0 0 0 0 0 0 0 0 24 0.002 
1236 1 0.0127419 0.104158 -0.00665703 0 0 0 -0.0802023 -0.580604 0.656786 0 -0.000164368 0 0 0 0 0 0 0 0 0 0 0 0 0 0 0 0 0 7 0.002 
979 4 0.0144529 0.0818029 -0.00547439 0 0 0 0.0358864 -0.376858 -0.402959 0 -0.000164368 0 0 0 0 0 0 0 0 0 0 0 0 0 0 0 0 0 30 0.002 
471 5 0.00345527 0.0942892 -0.00494667 0 0 0 0.0642425 -0.434117 0.445793 0 -0.000164368 0 0 0 0 0 0 0 0 0 0 0 0 0 0 0 0 0 55 0.002 
244 1 0.00607246 0.0972282 -0.00575557 0 0 0 -0.010235 -0.366938 0.416316 0 -0.000164368 0 0 0 0 0 0 0 0 0 0 0 0 0 0 0 0 0 40 0.002 
971 2 0.00793556 0.101287 -0.00560828 0 0 0 -0.102631 -0.447828 0.360786 0 -0.000164368 0 0 0 0 0 0 0 0 0 0 0 0 0 0 0 0 0 26 0.002 
995 2 0.00698588 0.107588 -0.00562011 0 0 0 0.0634774 -0.146875 0.294511 0 -0.000164368 0 0 0 0 0 0 0 0 0 0 0 0 0 0 0 0 0 21 0.002 
477 2 0.00300014 0.108001 -0.00514539 0 0 0 0.00236165 -0.00818781 0.173273 0.00012117 0.000234363 -0.00269724 0 1 0 1 0 0 0 0 0 0 0 0 0 0 0 0 18 0.002 
829 1 0.0179713 0.0798118 -0.00262077 0 0 0 2.05634 1.05272 -1.82621 0 -0.000164368 0 0 0 0 0 0 0 0 0 0 0 0 0 0 0 0 0 33 0.002 
1184 1 0.0119587 0.0925993 -0.00196348 0 0 0 -0.345152 -1.17142 -0.11445 0 -0.000164368 0 0 0 0 0 0 0 0 0 0 0 0 0 0 0 0 0 5 0.002 
508 9 0.00312785 0.0978862 -0.00209638 0 0 0 0.0165428 -0.27931 0.415514 0 -0.000164368 0 0 0 0 0 0 0 0 0 0 0 0 0 0 0 0 0 60 0.002 
972 3 0.00418199 0.103138 -0.0025213 0 0 0 -0.335205 -0.148568 0.226275 0 -0.000164368 0 0 0 0 0 0 0 0 0 0 0 0 0 0 0 0 0 26 0.002 
1186 8 0.00824397 0.103574 -0.0023365 0 0 0 -0.213683 -0.360866 0.304998 0 -0.000164368 0 0 0 0 0 0 0 0 0 0 0 0 0 0 0 0 0 19 0.002 
1175 4 0.012952 0.105408 -0.00263309 0 0 0 0.0826431 -0.259114 0.166758 0 -0.000164368 0 0 0 0 0 0 0 0 0 0 0 0 0 0 0 0 0 11 0.002 
288 1 0.0175165 0.106476 -0.00289755 0 0 0 -0.000180139 -0.19382 0.279987 0 -0.000164368 0 0 0 0 0 0 0 0 0 0 0 0 0 0 0 0 0 46 0.002 
514 8 0.00783458 0.107842 -0.00152103 0 0 0 -0.142752 -0.111225 0.293828 0 -0.000164368 0 0 0 0 0 0 0 0 0 0 0 0 0 0 0 0 0 50 0.002 
930 3 0.0126121 0.0837274 -0.000625682 0 0 0 -0.269812 -0.27994 -0.376486 0 -0.000164368 0 0 0 0 0 0 0 0 0 0 0 0 0 0 0 0 0 54 0.002 
64 4 0.00703223 0.0963544 -0.000763602 0 0 0 -0.191167 -0.571503 0.518306 0 -0.000164368 0 0 0 0 0 0 0 0 0 0 0 0 0 0 0 0 0 17 0.002 
392 1 0.0114921 0.100844 0.000260148 0 0 0 0.19206 0.0481184 0.625374 0 -0.000164368 0 0 0 0 0 0 0 0 0 0 0 0 0 0 0 0 0 51 0.002 
675 1 0.0164003 0.103345 -2.16635e-05 0 0 0 0.0444344 -0.049706 0.174422 0 -0.000164368 0 0 0 0 0 0 0 0 0 0 0 0 0 0 0 0 0 38 0.002 
12 9 0.00300353 0.107691 -0.00116548 0 0 0 0.00439693 -0.0128952 0.189224 -4.54307e-05 -0.000449535 0.0022799 0 1 0 0 0 0 0 0 1 0 0 0 0 0 0 0 53 0.002 
968 2 0.00759225 0.101851 0.00177741 0 0 0 -0.00523885 -0.0891043 0.302346 -0.000620534 0.000951269 0.000383508 0 1 0 0 0 0 0 0 0 0 0 0 0 0 0 0 16 0.002 
988 10 0.00510961 0.104929 0.00122075 0 0 0 -0.0166468 0.0132325 0.182601 0.000620534 -0.00128001 -0.000383508 0 1 0 0 0 0 0 0 0 0 0 0 0 0 0 0 22 0.002 
1240 3 0.0110584 0.105158 0.0011799 0 0 0 0.157041 -0.100686 0.546646 0 -0.000164368 0 0 0 0 0 0 0 0 0 0 0 0 0 0 0 0 0 11 0.002 
857 7 0.0153773 0.107647 0.00144041 0 0 0 0.191463 -0.0124106 0.0520592 0 -0.000164368 0 0 0 0 0 0 0 0 0 0 0 0 0 0 0 0 0 21 0.002 
974 2 0.0030169 0.107961 0.0028238 0 0 0 0.040467 -0.0279965 0.164322 0.000140486 -0.000331376 0.00104332 0 0 0 0 0 0 0 0 1 0 0 0 0 0 0 0 37 0.002 
1195 2 0.00740673 0.108 0.00245401 0 0 0 -0.0919519 -0.0153859 0.233888 0.00023311 0.000160459 -0.000318219 0 0 0 0 0 0 0 0 0 0 0 0 0 0 0 0 0 0.002 
560 4 0.0149922 0.0773902 0.00369654 0 0 0 -0.148428 -1.21715 -0.580678 0 -0.000164368 0 0 0 0 0 0 0 0 0 0 0 0 0 0 0 0 0 32 0.002 
18 3 0.0113736 0.0814058 0.00338261 0 0 0 -0.0279669 -0.258422 -0.262665 0 -0.000164368 0 0 0 0 0 0 0 0 0 0 0 0 0 0 0 0 0 55 0.002 
660 2 0.00669932 0.0958464 0.00443376 0 0 0 -0.963573 -0.72403 0.0819831 0 -0.000164368 0 0 0 0 0 0 0 0 0 0 0 0 0 0 0 0 0 51 0.002 
1314 3 0.00347522 0.102448 0.00401621 0 0 0 -0.165729 -0.0301566 0.187686 7.87892e-05 -0.000270559 -5.80033e-05 0 0 1 0 0 0 0 0 0 0 0 0 0 0 0 0 2 0.002 
258 6 0.0107657 0.102388 0.00428628 0 0 0 -0.0463235 -0.014234 0.266855 0 -0.000164368 0 0 0 0 0 0 0 0 0 0 0 0 0 0 0 0 0 32 0.002 
438 2 0.00727041 0.104751 0.00477995 0 0 0 0.0382116 -0.0428062 0.208986 -0.000103802 -0.00104388 -0.00111703 0 1 0 0 0 0 0 0 0 0 0 0 0 0 0 0 50 0.002 
306 3 0.0143728 0.105245 0.00457738 0 0 0 0.0253272 -0.079613 0.0761614 0 -0.000164368 0 0 0 0 0 0 0 0 0 0 0 0 0 0 0 0 0 52 0.002 
899 3 0.0109727 0.107841 0.00455592 0 0 0 0.00218251 0.146267 0.196087 0 -0.000164368 0 0 0 0 0 0 0 0 0 0 0 0 0 0 0 0 0 22 0.002 
1259 7 0.0104143 0.076883 0.00705613 0 0 0 0.228625 -0.465931 -0.109836 0 -0.000164368 0 0 0 0 0 0 0 0 0 0 0 0 0 0 0 0 0 9 0.002 
20 3 0.00540242 0.0800914 0.00641109 0 0 0 -0.12066 -0.313802 -0.156265 0 -0.000164368 0 0 0 0 0 0 0 0 0 0 0 0 0 0 0 0 0 44 0.002 
1001 4 0.00952984 0.0839026 0.00687659 0 0 0 0.198434 -0.188672 0.0820697 0 -0.000164368 0 0 0 0 0 0 0 0 0 0 0 0 0 0 0 0 0 38 0.002 
914 8 0.0104935 0.0957223 0.00575405 0 0 0 -0.890663 -0.325307 0.21507 0 -0.000164368 0 0 0 0 0 0 0 0 0 0 0 0 0 0 0 0 0 7 0.002 
1362 8 0.0175429 0.10035 0.0071356 0 0 0 -0.0808609 0.45596 0.256011 0 -0.000164368 0 0 0 0 0 0 0 0 0 0 0 0 0 0 0 0 0 0 0.002 
1159 4 0.00680276 0.100761 0.00559975 0 0 0 -0.194706 -0.0502362 0.420497 0 -0.000164368 0 0 0 0 0 0 0 0 0 0 0 0 0 0 0 0 0 17 0.002 
898 1 0.0135466 0.101173 0.00690758 0 0 0 -0.370811 -0.00809036 0.245673 0.000386904 -0.00461442 -0.000994523 1 0 0 0 0 0 0 0 0 0 0 0 0 0 0 0 25 0.002 
156 4 0.00300074 0.10578 0.00617842 0 0 0 -0.0112419 -0.0198663 0.190345 -7.87892e-05 -5.81777e-05 5.80033e-05 0 0 1 0 0 0 0 0 0 0 0 0 0 0 0 0 40 0.002 
1327 4 0.00772109 0.107571 0.00757772 0 0 0 0.0434582 -0.0117102 0.139122 -0.000129308 0.000390312 0.00143525 0 1 0 0 0 0 0 0 0 0 0 0 0 0 0 0 2 0.002 
1339 3 0.0168797 0.107944 0.0063239 0 0 0 0.0845248 0.139734 0.0892806 0 -0.000164368 0 0 0 0 0 0 0 0 0 0 0 0 0 0 0 0 0 0 0.002 
1212 1 0.0132545 0.108005 0.00813882 0 0 0 -0.0140039 -0.0338385 0.105126 -0.00034981 0.00321291 0.00035717 1 0 0 0 0 0 0 0 0 0 0 0 0 0 0 0 13 0.002 
1188 4 0.00824711 0.0900769 0.00925992 0 0 0 0.792316 -1.10096 1.33212 0 -0.000164368 0 0 0 0 0 0 0 0 0 0 0 0 0 0 0 0 0 14 0.002 
151 8 0.0112396 0.0929398 0.00902065 0 0 0 0.0038054 -0.323887 0.0270762 0 -0.000164368 0 0 0 0 0 0 0 0 0 0 0 0 0 0 0 0 0 25 0.002 
1065 3 0.00672466 0.0968549 0.00834624 0 0 0 -0.529903 -0.387248 0.127756 0 -0.000164368 0 0 0 0 0 0 0 0 0 0 0 0 0 0 0 0 0 26 0.002 
361 3 0.0163885 0.0973285 0.00998084 0 0 0 0.174407 0.145789 0.359975 0 -0.000164368 0 0 0 0 0 0 0 0 0 0 0 0 0 0 0 0 0 52 0.002 
1268 9 0.0108709 0.0988714 0.00936342 0 0 0 -0.328003 0.0747349 0.360215 0 -0.000164368 0 0 0 0 0 0 0 0 0 0 0 0 0 0 0 0 0 10 0.002 
1172 8 0.0041003 0.100938 0.00866933 0 0 0 -0.148752 0.157009 0.167339 0 -0.000164368 0 0 0 0 0 0 0 0 0 0 0 0 0 0 0 0 0 27 0.002 
77 12 0.00404617 0.107989 0.00934624 0 0 0 0.0255012 -0.0225145 0.186775 0 -0.000164368 0 0 0 0 0 0 0 0 0 0 0 0 0 0 0 0 0 55 0.002 
175 5 0.00922654 0.10318 0.00790518 0 0 0 -0.0892634 0.0624085 0.264367 0 -0.000164368 0 0 0 0 0 0 0 0 0 0 0 0 0 0 0 0 0 18 0.002 
526 2 0.012843 0.104235 0.00937508 0 0 0 -0.0772141 -0.0152642 0.256359 0.00610281 -0.00366575 -0.00417243 2 1 0 0 0 0 0 0 0 0 0 0 0 0 0 0 37 0.002 
1059 3 0.0176519 0.104597 0.00839791 0 0 0 0.226128 0.122824 0.222494 0 -0.000164368 0 0 0 0 0 0 0 0 0 0 0 0 0 0 0 0 0 31 0.002 
887 1 0.00367789 0.0753932 0.0115875 0 0 0 0.297678 -0.0345065 1.19913 0 -0.000164368 0 0 0 0 0 0 0 0 0 0 0 0 0 0 0 0 0 33 0.002 
213 4 0.0119264 0.0785374 0.0108618 0 0 0 -0.218904 -0.343299 -0.189047 0 -0.000164368 0 0 0 0 0 0 0 0 0 0 0 0 0 0 0 0 0 52 0.002 
806 8 0.0182676 0.0819047 0.0117348 0 0 0 0.690855 0.0304249 -0.567028 0 -0.000164368 0 0 0 0 0 0 0 0 0 0 0 0 0 0 0 0 0 48 0.002 
1358 8 0.00330818 0.0838668 0.0112656 0 0 0 0.050543 -0.553186 0.105726 0 -0.000164368 0 0 0 0 0 0 0 0 0 0 0 0 0 0 0 0 0 0 0.002 
342 4 0.011195 0.0825471 0.0117929 0 0 0 -0.0555522 -0.20675 -0.18643 0 -0.000164368 0 0 0 0 0 0 0 0 0 0 0 0 0 0 0 0 0 48 0.002 
690 2 0.018545 0.0874356 0.0113865 0 0 0 0.647149 0.509057 0.380504 0 -0.000164368 0 0 0 0 0 0 0 0 0 0 0 0 0 0 0 0 0 34 0.002 
123 8 0.0144069 0.0904077 0.0122645 0 0 0 -0.506996 -0.129848 0.392486 0 -0.000164368 0 0 0 0 0 0 0 0 0 0 0 0 0 0 0 0 0 51 0.002 
763 3 0.00829545 0.0929045 0.0122141 0 0 0 -0.00897493 -0.339973 -0.00650995 0 -0.000164368 0 0 0 0 0 0 0 0 0 0 0 0 0 0 0 0 0 52 0.002 
1359 6 0.00585073 0.0976541 0.0121965 0 0 0 0.273351 -0.210761 0.39522 -0.013384 -0.00643094 0.00430386 0 0 0 0 0 1 0 0 0 0 0 0 0 0 0 0 1 0.002 
957 4 0.014416 0.10032 0.0117711 0 0 0 -0.0405863 0.00282727 0.0600903 0.00180914 0.00847609 -0.00326685 0 0 0 1 0 0 0 0 0 0 0 0 0 0 0 0 40 0.002 
632 6 0.0183345 0.101278 0.0120758 0 0 0 -0.0414587 0.0198796 0.214833 0 -0.000164368 0 0 0 0 0 0 0 0 0 0 0 0 0 0 0 0 0 51 0.002 
603 7 0.00980407 0.103519 0.0118593 0 0 0 0.0351039 -0.029538 0.292756 -0.00480635 0.00323642 0.00350088 0 0 0 0 0 0 3 0 0 0 0 0 0 0 0 0 45 0.002 
1323 9 0.0120804 0.107555 0.0122047 0 0 0 -0.0392983 0.0492526 0.198126 -3.99631e-05 -0.000544918 0.00015418 0 0 0 0 0 0 0 0 1 0 0 0 0 0 0 0 3 0.002 
529 14 0.0159167 0.106611 0.0115403 0 0 0 -0.0569208 0.12046 0.183941 -2.37742e-05 -0.000266033 7.19305e-05 0 0 0 0 0 0 0 0 0 0 0 0 0 1 0 0 63 0.002 
262 3 0.00814078 0.107889 0.0115459 0 0 0 -0.101089 0.0759052 0.181472 0 -0.000164368 0 0 0 0 0 0 0 0 0 0 0 0 0 0 0 0 0 40 0.002 
323 7 0.00851854 0.0795647 0.0132789 0 0 0 -0.363935 -0.145421 -0.207557 0 -0.000164368 0 0 0 0 0 0 0 0 0 0 0 0 0 0 0 0 0 59 0.002 
1117 1 0.0141954 0.086231 0.0124728 0 0 0 0.465583 -0.30937 -0.156887 0 -0.000164368 0 0 0 0 0 0 0 0 0 0 0 0 0 0 0 0 0 8 0.002 
1039 3 0.00482714 0.087191 0.013132 0 0 0 0.0214321 -0.586333 0.339219 0 -0.000164368 0 0 0 0 0 0 0 0 0 0 0 0 0 0 0 0 0 15 0.002 
26 9 0.00904997 0.0864847 0.0129158 0 0 0 0.187346 -0.699998 0.120016 0 -0.000164368 0 0 0 0 0 0 0 0 0 0 0 0 0 0 0 0 0 47 0.002 
984 3 0.0044366 0.0927668 0.0134635 0 0 0 -0.0769707 -0.418804 -0.0919266 0 -0.000164368 0 0 0 0 0 0 0 0 0 0 0 0 0 0 0 0 0 32 0.002 
911 6 0.0174041 0.0945539 0.0133501 0 0 0 0.0109861 0.0577416 0.176211 -0.00898159 -0.00518696 -0.00145357 0 0 0 0 0 1 0 0 0 0 0 0 0 0 0 0 28 0.002 
551 10 0.0139759 0.0966107 0.0131536 0 0 0 -0.195723 0.037211 0.308626 -0.00180914 -0.00880483 0.00326685 0 0 0 1 0 0 0 0 0 0 0 0 0 0 0 0 32 0.002 
1294 3 0.0106071 0.0995961 0.0133068 0 0 0 -0.114766 -0.113438 0.323832 -0.00128371 0.00231657 -0.00261842 0 0 1 0 0 0 0 0 0 0 0 0 0 0 0 0 5 0.002 
1310 1 0.00299181 0.101681 0.012456 0 0 0 -0.0353922 -0.0759327 0.181889 0.0188936 0.00542707 -0.0144617 1 0 0 0 0 0 0 0 0 0 0 0 0 0 0 0 3 0.002 
1043 8 0.00641856 0.103891 0.0139447 0 0 0 0.0265115 0.100282 0.258599 -0.0010547 -0.00146632 -0.000987324 0 0 0 0 0 0 1 2 0 0 0 0 0 0 0 0 20 0.002 
344 1 0.0134898 0.103985 0.0133319 0 0 0 0.0469795 0.0874337 0.295322 -0.00198147 0.000833252 -0.00273515 1 0 0 0 0 0 1 0 1 0 0 0 0 1 0 0 49 0.002 
645 2 0.00300368 0.105914 0.0126156 0 0 0 -0.00418663 -0.0460531 0.188179 0 -0.000164368 0 0 0 0 0 0 0 0 0 0 0 0 0 0 0 0 0 39 0.002 
776 5 0.00319209 0.0786134 0.0145959 0 0 0 -0.00675255 -0.521658 0.113338 0 -0.000164368 0 0 0 0 0 0 0 0 0 0 0 0 0 0 0 0 0 30 0.002 
183 9 0.0153824 0.0781198 0.0139824 0 0 0 0.201256 1.08737 -1.18016 0 -0.000164368 0 0 0 0 0 0 0 0 0 0 0 0 0 0 0 0 0 43 0.002 
1303 7 0.0135771 0.0815283 0.015774 0 0 0 -0.387445 1.11451 0.329239 0 -0.000164368 0 0 0 0 0 0 0 0 0 0 0 0 0 0 0 0 0 0 0.002 
345 6 0.00333106 0.0849262 0.0163972 0 0 0 -0.156212 -0.328566 0.0608504 0 -0.000164368 0 0 0 0 0 0 0 0 0 0 0 0 0 0 0 0 0 42 0.002 
1091 5 0.00736332 0.0849425 0.0162387 0 0 0 -0.0769249 -0.434966 0.219471 0 -0.000164368 0 0 0 0 0 0 0 0 0 0 0 0 0 0 0 0 0 29 0.002 
1133 6 0.0171331 0.0860187 0.0153782 0 0 0 0.00769501 -0.230184 0.322665 0 -0.000164368 0 0 0 0 0 0 0 0 0 0 0 0 0 0 0 0 0 11 0.002 
1008 4 0.00642054 0.089958 0.0156703 0 0 0 -0.129998 -0.310462 0.2173 0 -0.000164368 0 0 0 0 0 0 0 0 0 0 0 0 0 0 0 0 0 19 0.002 
1218 8 0.010008 0.0917574 0.0158853 0 0 0 -0.115289 -0.261056 0.215945 0 -0.000164368 0 0 0 0 0 0 0 0 0 0 0 0 0 0 0 0 0 10 0.002 
836 4 0.0138772 0.0931891 0.0153338 0 0 0 -0.167849 0.0911057 0.557267 0 -0.000164368 0 0 0 0 0 0 0 0 0 0 0 0 0 0 0 0 0 41 0.002 
892 5 0.00660379 0.0954196 0.0161351 0 0 0 -0.140246 -0.216102 0.0157799 0 -0.000164368 0 0 0 0 0 0 0 0 0 0 0 0 0 0 0 0 0 30 0.002 
732 4 0.0105083 0.0961386 0.015301 0 0 0 -0.152102 -0.167591 0.235691 -0.0157474 0.00177652 -0.00495458 0 0 1 0 0 0 0 0 0 0 0 0 0 0 0 0 44 0.002 
1056 1 0.00299941 0.0985103 0.014871 0 0 0 -0.0140922 -0.0650681 0.126108 -0.00572155 -0.00573975 0.00237883 1 0 0 0 0 0 0 0 0 0 0 0 0 0 0 0 16 0.002 
1136 1 0.00713422 0.099535 0.0154846 0 0 0 -0.241124 -0.196455 0.36061 0.0131509 0.00376352 -0.00628929 1 0 0 0 0 1 0 0 0 0 0 0 0 0 0 0 24 0.002 
1103 1 0.0141929 0.0997141 0.0157232 0 0 0 -0.166863 0.0126573 0.180754 -0.000151632 -0.000387237 0.000654298 1 0 0 0 0 0 0 0 0 0 0 0 0 0 0 0 31 0.002 
1052 1 0.0105928 0.102789 0.0158185 0 0 0 0.0133055 -0.0872978 0.206971 0 -0.000164368 0 0 0 0 0 0 0 0 0 0 0 0 0 0 0 0 0 26 0.002 
728 1 0.0178488 0.101565 0.0162266 0 0 0 -0.204389 -0.0134801 0.231415 0 -0.000164368 0 0 0 0 0 0 0 0 0 0 0 0 0 0 0 0 0 32 0.002 
416 5 0.0030164 0.103527 0.0160043 0 0 0 -0.0367397 0.0424822 0.202473 -0.000100541 -0.00023059 -0.000930466 1 0 0 0 0 0 0 1 0 0 0 0 0 0 0 0 56 0.002 
181 6 0.00943225 0.106599 0.015148 0 0 0 0.0122764 -0.117059 0.181724 -0.000457084 0.000154437 -0.000286864 0 0 0 0 0 1 0 0 0 0 0 0 0 0 0 0 36 0.002 
786 1 0.0131077 0.107609 0.0163666 0 0 0 -0.0564083 -0.00798325 0.285897 0 -0.000164368 0 0 0 0 0 0 0 0 0 0 0 0 0 0 0 0 0 42 0.002 
635 4 0.0168147 0.106188 0.0155741 0 0 0 -0.126611 0.0782078 0.199116 -0.000496238 0.000283908 0.000803214 0 0 0 1 0 0 0 0 0 0 0 0 0 0 0 0 57 0.002 
1193 8 0.00568017 0.10794 0.0148003 0 0 0 0.0114387 -0.0311053 0.153984 0.000457084 -0.000483174 0.000286864 0 0 0 0 0 1 0 0 0 0 0 0 0 0 0 0 29 0.002 
849 4 0.00576963 0.0779058 0.0179773 0 0 0 -0.235503 -1.5767 0.544838 0 -0.000164368 0 0 0 0 0 0 0 0 0 0 0 0 0 0 0 0 0 35 0.002 
568 1 0.0108363 0.0835651 0.0179434 0 0 0 0.144783 -0.189181 0.431244 0 -0.000164368 0 0 0 0 0 0 0 0 0 0 0 0 0 0 0 0 0 21 0.002 
446 9 0.0184273 0.0841016 0.0187714 0 0 0 0.246565 -0.22708 -0.0265271 0 -0.000164368 0 0 0 0 0 0 0 0 0 0 0 0 0 0 0 0 0 56 0.002 
1155 5 0.0134603 0.0867311 0.0171111 0 0 0 -0.192331 -0.242211 0.063436 0 -0.000164368 0 0 0 0 0 0 0 0 0 0 0 0 0 0 0 0 0 27 0.002 
726 1 0.00299714 0.0902751 0.0177161 0 0 0 0.0574705 -0.260842 0.239364 -0.00232794 -0.00217405 -0.00121338 1 0 0 0 0 0 0 0 0 0 0 0 0 0 0 0 42 0.002 
524 5 0.0163581 0.0902929 0.0167923 0 0 0 -0.192601 -0.0904133 0.0973626 0 -0.000164368 0 0 0 0 0 0 0 0 0 0 0 0 0 0 0 0 0 39 0.002 
1009 1 0.00688725 0.0925802 0.0189423 0 0 0 0.00365645 -0.115206 0.14335 0 -0.000164368 0 0 0 0 0 0 0 0 0 0 0 0 0 0 0 0 0 15 0.002 
705 14 0.017623 0.0959387 0.0170955 0 0 0 -0.112682 -0.286298 0.149292 0.00898159 0.00485822 0.00145357 0 0 0 0 0 1 0 0 0 0 0 0 0 0 0 0 51 0.002 
1196 5 0.00427504 0.0976252 0.0185435 0 0 0 0.0478086 -0.23425 0.0954259 0.00156761 -0.00221583 -0.00180671 1 0 0 0 1 0 0 0 0 0 0 0 0 0 0 0 14 0.002 
1289 4 0.0132997 0.0963147 0.0181351 0 0 0 -0.361897 -0.014231 0.333233 0.0170311 -0.00458619 0.007573 0 0 0 0 0 0 0 0 0 0 0 0 0 0 0 0 1 0.002 
1066 1 0.00961766 0.0998635 0.0186078 0 0 0 0.0704139 -0.111644 0.153162 0.00564627 0.000844746 -0.00383979 1 0 0 0 0 0 0 0 0 0 0 0 0 0 0 0 28 0.002 
1146 2 0.00706012 0.102829 0.0177401 0 0 0 -0.0391355 -0.0923973 0.238129 0.00153383 0.000458598 -0.00163734 1 1 0 0 0 0 0 1 0 0 0 0 0 0 0 0 28 0.002 
1105 7 0.0143727 0.103443 0.0171882 0 0 0 -0.00137219 0.0566872 0.30068 0.00273446 -0.00088676 0.00148945 1 0 0 0 0 0 1 0 0 0 0 0 0 0 0 0 16 0.002 
790 3 0.00771766 0.107431 0.0186778 0 0 0 0.0620126 -0.0472025 0.253557 -0.000483489 -0.000167632 -0.000109108 0 0 1 0 0 0 0 0 0 0 0 0 0 0 0 0 39 0.002 
621 4 0.00377524 0.108001 0.0183196 0 0 0 0.0494134 -0.00435089 0.157874 0.00090873 -0.000494015 -0.000331078 0 0 1 1 0 0 0 0 0 0 0 0 0 0 0 0 43 0.002 
680 6 0.0172436 0.0763256 0.0209461 0 0 0 -0.0123074 -0.37608 -0.0271301 0 -0.000164368 0 0 0 0 0 0 0 0 0 0 0 0 0 0 0 0 0 67 0.002 
951 10 0.012672 0.0813399 0.0209843 0 0 0 0.205141 -0.106208 0.319403 0 -0.000164368 0 0 0 0 0 0 0 0 0 0 0 0 0 0 0 0 0 33 0.002 
685 7 0.00746436 0.0823823 0.0208852 0 0 0 -0.146425 -0.710913 0.195842 -0.0257851 -0.00405141 -0.0343018 0 0 0 0 0 0 0 0 0 0 0 0 0 0 0 0 42 0.002 
631 1 0.0132403 0.0853028 0.0208432 0 0 0 -0.0557309 -0.270239 0.0586132 0.000992517 0.000276717 0.00179333 1 0 0 0 0 0 0 0 0 0 0 0 0 0 0 0 43 0.002 
650 3 0.00300091 0.0873331 0.0208729 0 0 0 0.00402726 -0.0757317 0.37254 0 -0.000164368 0 0 0 0 0 0 0 0 0 0 0 0 0 0 0 0 0 51 0.002 
297 3 0.00668181 0.0874252 0.0193051 0 0 0 -0.0700949 -0.44479 0.192308 -0.00118986 -0.0018652 -0.00489769 0 0 1 0 0 0 0 0 0 0 0 0 0 0 0 0 47 0.002 