ITEM: TIMESTEP
10150000
ITEM: NUMBER OF ATOMS
1242
ITEM: BOX BOUNDS ff ff ff
-0.01 0.45
-0.15 0.15
-0.08 0.1
ITEM: ATOMS id type x y z ix iy iz vx vy vz fx fy fz c_cc_1 c_cc_2 c_cc_3 c_cc_4 c_cc_5 c_cc_6 c_cc_7 c_cc_8 c_cc_9 c_cc_10 c_cc_11 c_cc_12 c_cc_13 c_cc_14 c_cc_15 c_cc_16 f_fppacc radius 
1214 5 0.0176034 -0.0575598 -0.00590116 0 0 0 -3.84002 -5.39709 40.4008 0 -0.000164368 0 0 0 0 0 0 0 0 0 0 0 0 0 0 0 0 0 0 0.002 
861 8 0.00739996 -0.0398095 -0.0418884 0 0 0 2.22753 -13.0562 10.9817 0 -0.000164368 0 0 0 0 0 0 0 0 0 0 0 0 0 0 0 0 0 40 0.002 
775 2 0.0129184 -0.0478281 0.0274934 0 0 0 2.15435 4.04462 8.72299 0 -0.000164368 0 0 0 0 0 0 0 0 0 0 0 0 0 0 0 0 0 29 0.002 
624 7 0.00420513 -0.0389768 0.0418139 0 0 0 1.50579 5.40104 6.26078 0 -0.000164368 0 0 0 0 0 0 0 0 0 0 0 0 0 0 0 0 0 35 0.002 
8 5 0.00400654 -0.031034 0.0486371 0 0 0 -2.87997 14.646 9.8706 0 -0.000164368 0 0 0 0 0 0 0 0 0 0 0 0 0 0 0 0 0 37 0.002 
1163 5 0.0115047 0.0199012 -0.0531346 0 0 0 0.0946273 -8.72908 -1.29572 0 -0.000164368 0 0 0 0 0 0 0 0 0 0 0 0 0 0 0 0 0 18 0.002 
581 6 0.0131863 0.0312711 -0.033758 0 0 0 0.827195 -4.52955 -1.23068 0 -0.000164368 0 0 0 0 0 0 0 0 0 0 0 0 0 0 0 0 0 46 0.002 
850 3 0.0152831 0.0320112 -0.0208902 0 0 0 1.10307 -5.64174 3.79025 0 -0.000164368 0 0 0 0 0 0 0 0 0 0 0 0 0 0 0 0 0 20 0.002 
1058 2 0.0113934 0.032769 0.0475704 0 0 0 -5.92757 59.6281 -35.8 0 -0.000164368 0 0 0 0 0 0 0 0 0 0 0 0 0 0 0 0 0 17 0.002 
355 5 0.012851 0.00297906 0.057852 0 0 0 1.01461 27.7722 -1.27913 0.190402 -0.18194 -1.02286 0 0 0 0 0 0 0 0 0 0 0 0 0 0 0 0 41 0.002 
987 4 0.0169112 0.0452339 -0.0361289 0 0 0 -0.697929 -1.22632 -1.37774 0.0166508 -0.0280521 0.0600586 0 0 0 0 0 0 0 0 0 0 0 0 0 0 0 0 15 0.002 
41 1 0.015124 0.0528572 -0.0355 0 0 0 0 3.24482e-19 -6.7269e-12 -0 0 0 0 0 0 0 0 0 0 0 0 0 0 0 0 0 0 0 2 0.002 
1249 3 0.00365949 0.0682352 -0.0306642 0 0 0 -0.453351 -0.0698164 -1.13221 0 -0.000164368 0 0 0 0 0 0 0 0 0 0 0 0 0 0 0 0 0 0 0.002 
543 1 0.0150747 0.0680499 -0.0306119 0 0 0 1.29201 -1.27116 0.630473 0 -0.000164368 0 0 0 0 0 0 0 0 0 0 0 0 0 0 0 0 0 42 0.002 
917 8 0.0070845 0.0658003 -0.0292374 0 0 0 -0.30576 -0.969559 -0.472864 0 -0.000164368 0 0 0 0 0 0 0 0 0 0 0 0 0 0 0 0 0 31 0.002 
196 4 0.00593468 0.0524131 -0.0261531 0 0 0 -4.12031 -3.60405 1.28356 0 -0.000164368 0 0 0 0 0 0 0 0 0 0 0 0 0 0 0 0 0 20 0.002 
118 2 0.00668096 0.0672855 -0.0253802 0 0 0 0.819732 -1.19107 0.587963 0 -0.000164368 0 0 0 0 0 0 0 0 0 0 0 0 0 0 0 0 0 36 0.002 
901 9 0.00326047 0.0557218 -0.0240301 0 0 0 -4.6858 -1.53503 -0.691413 0 -0.000164368 0 0 0 0 0 0 0 0 0 0 0 0 0 0 0 0 0 26 0.002 
909 2 0.00909517 0.0601872 -0.0251612 0 0 0 -0.2877 -3.21353 -2.65759 0 -0.000164368 0 0 0 0 0 0 0 0 0 0 0 0 0 0 0 0 0 37 0.002 
69 6 0.00295306 0.0498164 -0.0278937 0 0 0 0.900571 5.11252 -11.0774 0.0244735 6.33103e-06 0.0122355 0 0 0 0 0 0 0 0 0 0 0 0 0 0 0 0 33 0.002 
434 14 0.0108817 0.0622723 -0.00578043 0 0 0 -0.396603 0.254344 -1.83091 0 -0.000164368 0 0 0 0 0 0 0 0 0 0 0 0 0 0 0 0 0 47 0.002 
291 1 0.0102601 0.0748755 -0.00507398 0 0 0 2.50336 3.38561 -4.23012 0 -0.000164368 0 0 0 0 0 0 0 0 0 0 0 0 0 0 0 0 0 43 0.002 
723 5 0.00964833 0.0746981 0.00971247 0 0 0 -0.00491338 -0.388507 -0.165515 0 -0.000164368 0 0 0 0 0 0 0 0 0 0 0 0 0 0 0 0 0 32 0.002 
802 4 0.00301207 0.0698813 0.0111399 0 0 0 0.0780221 -0.226116 -0.137652 0 -0.000164368 0 0 0 0 0 0 0 0 0 0 0 0 0 0 0 0 0 27 0.002 
404 6 0.00684953 0.0712591 0.0103436 0 0 0 0.344579 -0.784849 -0.25914 0 -0.000164368 0 0 0 0 0 0 0 0 0 0 0 0 0 0 0 0 0 26 0.002 
873 6 0.0139052 0.0666906 0.014055 0 0 0 -0.564081 -0.415015 -0.296036 0 -0.000164368 0 0 0 0 0 0 0 0 0 0 0 0 0 0 0 0 0 16 0.002 
916 8 0.0179738 0.066362 0.013912 0 0 0 -0.051723 -0.122199 -0.881553 0 -0.000164368 0 0 0 0 0 0 0 0 0 0 0 0 0 0 0 0 0 30 0.002 
934 1 0.00928966 0.0693718 0.013467 0 0 0 0.329566 0.65341 -1.10906 0 -0.000164368 0 0 0 0 0 0 0 0 0 0 0 0 0 0 0 0 0 31 0.002 
797 6 0.0143328 0.0731741 0.014391 0 0 0 -0.20169 -0.197331 -0.170441 -0.00764508 -0.0103605 -0.00188558 0 0 0 0 0 1 0 0 0 0 0 0 0 0 0 0 33 0.002 
882 3 0.00474733 0.068807 0.0146439 0 0 0 0.00484873 0.0486601 -0.166342 0 -0.000164368 0 0 0 0 0 0 0 0 0 0 0 0 0 0 0 0 0 23 0.002 
136 5 0.0169008 0.0701466 0.015194 0 0 0 -0.507332 -0.463494 -0.439509 0 -0.000164368 0 0 0 0 0 0 0 0 0 0 0 0 0 0 0 0 0 9 0.002 
380 3 0.00743297 0.0725868 0.0154785 0 0 0 0.151342 -0.342352 0.0918818 0 -0.000164368 0 0 0 0 0 0 0 0 0 0 0 0 0 0 0 0 0 28 0.002 
268 5 0.0140633 0.0629204 0.0183821 0 0 0 0.0884578 -0.465175 -0.254675 0 -0.000164368 0 0 0 0 0 0 0 0 0 0 0 0 0 0 0 0 0 51 0.002 
1119 4 0.0158113 0.0672654 0.0179864 0 0 0 -0.365816 -0.648783 -0.122671 0 -0.000164368 0 0 0 0 0 0 0 0 0 0 0 0 0 0 0 0 0 15 0.002 
967 2 0.0116499 0.0692439 0.0188189 0 0 0 0.272376 0.109999 -0.342239 0 -0.000164368 0 0 0 0 0 0 0 0 0 0 0 0 0 0 0 0 0 16 0.002 
65 2 0.00389868 0.0675299 0.0189996 0 0 0 -0.304795 0.0401278 -0.0856102 0 -0.000164368 0 0 0 0 0 0 0 0 0 0 0 0 0 0 0 0 0 31 0.002 
140 4 0.00979631 0.0659377 0.020633 0 0 0 -0.038741 0.0338645 -0.227245 0 -0.000164368 0 0 0 0 0 0 0 0 0 0 0 0 0 0 0 0 0 36 0.002 
720 4 0.015343 0.0715052 0.0193581 0 0 0 -0.166292 -0.196363 -0.225788 0 -0.000164368 0 0 0 0 0 0 0 0 0 0 0 0 0 0 0 0 0 21 0.002 
915 9 0.00566103 0.0743394 0.0197808 0 0 0 -0.0324481 -0.165452 -0.00956391 -0.000576564 -0.000598062 -0.000515642 0 0 0 0 0 0 0 0 1 0 0 0 0 0 0 0 32 0.002 
971 2 0.01541 0.0604994 0.0213405 0 0 0 -0.03823 -0.481752 -0.164363 0 -0.000164368 0 0 0 0 0 0 0 0 0 0 0 0 0 0 0 0 0 22 0.002 
788 5 0.0050901 0.0633542 0.0218679 0 0 0 -0.215281 -0.17856 -0.175332 0 -0.000164368 0 0 0 0 0 0 0 0 0 0 0 0 0 0 0 0 0 36 0.002 
762 6 0.00356378 0.0709642 0.0223067 0 0 0 0.116083 -0.232991 -0.0945004 0 -0.000164368 0 0 0 0 0 0 0 0 0 0 0 0 0 0 0 0 0 40 0.002 
800 1 0.00758864 0.0710114 0.0217347 0 0 0 0.138324 -0.0781613 0.227338 0 -0.000164368 0 0 0 0 0 0 0 0 0 0 0 0 0 0 0 0 0 19 0.002 
789 5 0.0127074 0.0709723 0.0229718 0 0 0 -0.106094 -0.153554 -0.0696077 0 -0.000164368 0 0 0 0 0 0 0 0 0 0 0 0 0 0 0 0 0 33 0.002 
1036 6 0.00381628 0.0617922 0.0255765 0 0 0 0.0321411 -0.217089 -0.148937 0 -0.000164368 0 0 0 0 0 0 0 0 0 0 0 0 0 0 0 0 0 31 0.002 
1146 2 0.011502 0.0635541 0.0257964 0 0 0 -0.10022 -0.0413741 0.281708 0 -0.000164368 0 0 0 0 0 0 0 0 0 0 0 0 0 0 0 0 0 23 0.002 
459 5 0.0086215 0.0668062 0.0245617 0 0 0 0.00331169 -0.124419 -0.192096 0 -0.000164368 0 0 0 0 0 0 0 0 0 0 0 0 0 0 0 0 0 30 0.002 
1136 1 0.0125327 0.0669118 0.0235674 0 0 0 0.0607086 -0.239102 -0.109622 0 -0.000164368 0 0 0 0 0 0 0 0 0 0 0 0 0 0 0 0 0 17 0.002 
843 4 0.0163371 0.0680325 0.0241153 0 0 0 -0.072166 -0.161388 -0.0741399 -0.00636112 0.000483156 0.00010795 0 0 0 1 0 0 0 0 0 0 0 0 0 0 0 0 11 0.002 
1051 10 0.0166531 0.0721109 0.0253864 0 0 0 0.0550512 -0.265175 0.0353396 0 -0.000164368 0 0 0 0 0 0 0 0 0 0 0 0 0 0 0 0 0 15 0.002 
591 9 0.00998125 0.0736224 0.0245892 0 0 0 0.116782 -0.0748194 -0.127051 0.00119695 -0.000282208 0.000452093 0 0 0 0 0 0 0 0 2 0 0 0 0 0 0 0 25 0.002 
677 9 0.00318071 0.0547167 0.0265731 0 0 0 -0.464915 -0.577084 -0.501668 0 -0.000164368 0 0 0 0 0 0 0 0 0 0 0 0 0 0 0 0 0 65 0.002 
887 1 0.0155942 0.0587808 0.0258441 0 0 0 -0.0460109 -0.346694 -0.264517 0 -0.000164368 0 0 0 0 0 0 0 0 0 0 0 0 0 0 0 0 0 19 0.002 
361 3 0.00679225 0.064881 0.027599 0 0 0 0.0589158 -0.0604355 -0.0879013 -0.00130382 -0.00013007 0.000221197 0 0 1 0 0 0 0 0 0 0 0 0 0 0 0 0 41 0.002 
680 6 0.00566851 0.0688723 0.0263646 0 0 0 -0.023523 -0.206269 -0.0770914 0 -0.000164368 0 0 0 0 0 0 0 0 0 0 0 0 0 0 0 0 0 52 0.002 
876 14 0.0107293 0.0701322 0.0263863 0 0 0 0.109232 -0.0978094 -0.0871368 -0.00346268 0.000292509 6.86414e-05 0 0 0 0 0 0 0 0 1 0 0 0 0 1 0 0 19 0.002 
112 6 0.0141873 0.0688819 0.0279412 0 0 0 0.0454153 -0.272021 -0.0474523 0.00144498 -0.000959793 -0.00168499 0 0 0 0 0 1 0 0 0 0 0 0 0 1 0 0 47 0.002 
669 1 0.00299988 0.0720311 0.0261298 0 0 0 0.0280373 -0.0948052 -0.0894606 -0.000922185 -0.000142845 -0.000141467 0 0 0 0 0 0 0 0 0 0 0 0 0 0 0 0 51 0.002 
554 3 0.00656317 0.0734731 0.0274495 0 0 0 0.0484725 -0.146993 0.0202625 0 -0.000164368 0 0 0 0 0 0 0 0 0 0 0 0 0 0 0 0 0 24 0.002 
577 2 0.0140855 0.0517016 0.0291166 0 0 0 -0.177488 -0.570923 0.140478 0 -0.000164368 0 0 0 0 0 0 0 0 0 0 0 0 0 0 0 0 0 25 0.002 
644 7 0.0124299 0.0593073 0.0282586 0 0 0 -0.00117591 -0.306409 -0.185071 0 -0.000164368 0 0 0 0 0 0 0 0 0 0 0 0 0 0 0 0 0 44 0.002 
1159 4 0.00962542 0.0626627 0.0293435 0 0 0 0.0301229 -0.072851 -0.116766 0.00130382 -0.000198666 -0.000221197 0 0 1 0 0 0 0 0 0 0 0 0 0 0 0 0 14 0.002 
826 5 0.0178106 0.0624425 0.0295688 0 0 0 0.134863 -0.364464 0.13765 -0.00703774 0.00388431 -0.00153992 0 0 0 0 1 0 0 0 0 0 0 0 0 0 0 0 33 0.002 
455 1 0.00300849 0.0653506 0.0288944 0 0 0 0.0217783 -0.104827 0.00712647 0 -0.000164368 0 0 0 0 0 0 0 0 0 0 0 0 0 0 0 0 0 49 0.002 
141 5 0.013744 0.0635636 0.0294038 0 0 0 -0.0320754 -0.340746 0.414105 0 -0.000164368 0 0 0 0 0 0 0 0 0 0 0 0 0 0 0 0 0 62 0.002 
131 7 0.010954 0.066652 0.0294158 0 0 0 0.198478 0.0702988 0.0101414 0 -0.000164368 0 0 0 0 0 0 0 0 0 0 0 0 0 0 0 0 0 52 0.002 
505 2 0.00301907 0.0695643 0.0293239 0 0 0 0.0184779 -0.0556735 -0.0289678 0 -0.000164368 0 0 0 0 0 0 0 0 0 0 0 0 0 0 0 0 0 48 0.002 
972 3 0.00848152 0.0700187 0.0296942 0 0 0 0.140727 -0.00698612 0.00231608 0 -0.000164368 0 0 0 0 0 0 0 0 0 0 0 0 0 0 0 0 0 26 0.002 
626 1 0.0172401 0.0709287 0.0295042 0 0 0 0.0242292 -0.269672 0.00724134 0.00203854 0.000131725 0.0016195 0 0 0 0 0 1 0 0 0 0 0 0 0 0 0 0 33 0.002 
417 1 0.00305481 0.0736235 0.0298001 0 0 0 0.0788352 -0.0219601 -0.0738536 -1.20836e-05 -7.74764e-05 0.000340407 1 0 0 0 0 0 0 0 0 0 0 0 0 0 0 0 59 0.002 
1123 3 0.00997623 0.0742407 0.0295327 0 0 0 -0.030156 -0.188177 -0.0424221 0 -0.000164368 0 0 0 0 0 0 0 0 0 0 0 0 0 0 0 0 0 8 0.002 
786 1 0.0138666 0.073177 0.0290877 0 0 0 -0.0015894 -0.210382 -0.0356312 0 -0.000164368 0 0 0 0 0 0 0 0 0 0 0 0 0 0 0 0 0 33 0.002 
353 6 0.00798202 0.0587383 0.0301448 0 0 0 -0.658921 -0.335005 -0.693805 0 -0.000164368 0 0 0 0 0 0 0 0 0 0 0 0 0 0 0 0 0 27 0.002 
989 4 0.0063309 0.063008 0.0318316 0 0 0 0.765548 0.214238 -0.106716 0 -0.000164368 0 0 0 0 0 0 0 0 0 0 0 0 0 0 0 0 0 12 0.002 
337 8 0.0166488 0.0668967 0.0304108 0 0 0 -0.0654304 -0.309117 -0.074074 0 -0.000164368 0 0 0 0 0 0 0 0 0 0 0 0 0 0 0 0 0 44 0.002 
1008 4 0.0057252 0.0681619 0.0319335 0 0 0 0.0130105 0.0715799 0.0213552 0 -0.000164368 0 0 0 0 0 0 0 0 0 0 0 0 0 0 0 0 0 12 0.002 
1080 4 0.016524 0.0575634 0.0325821 0 0 0 -0.0175509 -0.372068 -0.0199924 0 -0.000164368 0 0 0 0 0 0 0 0 0 0 0 0 0 0 0 0 0 12 0.002 
104 1 0.00306772 0.0600995 0.0329901 0 0 0 0.0709886 0.0644585 -0.0124081 0 -0.000164368 0 0 0 0 0 0 0 0 0 0 0 0 0 0 0 0 0 23 0.002 
931 4 0.00302338 0.0653857 0.0330047 0 0 0 0.0465901 -0.0589575 0.137653 0.00482013 -0.0125529 -0.0166605 0 0 0 0 0 0 0 0 0 0 0 0 0 0 0 0 20 0.002 
511 2 0.0117695 0.0635743 0.0329621 0 0 0 -0.0155567 -0.193345 -0.0395749 0 -0.000164368 0 0 0 0 0 0 0 0 0 0 0 0 0 0 0 0 0 25 0.002 
1068 4 0.0159001 0.0636849 0.0329674 0 0 0 -0.0108641 -0.300735 -0.00763045 0 -0.000164368 0 0 0 0 0 0 0 0 0 0 0 0 0 0 0 0 0 14 0.002 
343 2 0.009575 0.0678121 0.0329965 0 0 0 0.0534335 -0.168367 0.00714647 -2.31787e-05 0.000370534 -6.14778e-05 0 0 0 0 0 0 0 0 0 0 0 0 0 0 0 0 43 0.002 
995 2 0.0135496 0.0672054 0.0329856 0 0 0 -0.0204288 -0.268415 -0.00529709 0 -0.000164368 0 0 0 0 0 0 0 0 0 0 0 0 0 0 0 0 0 21 0.002 
499 2 0.0031841 0.0712347 0.0330021 0 0 0 0.0265161 -0.0166936 -0.0230965 4.63765e-05 -0.000552119 -0.00023145 1 0 0 0 0 0 0 0 0 0 0 0 0 0 0 0 40 0.002 
603 7 0.00720973 0.0719189 0.0329932 0 0 0 -0.0531716 -0.0805562 -0.0154353 0 -0.000164368 0 0 0 0 0 0 0 0 0 0 0 0 0 0 0 0 0 36 0.002 
883 2 0.0112011 0.0714562 0.0327345 0 0 0 -0.0117771 -0.10993 -0.00112359 -0.000431459 -0.000916662 4.49323e-05 0 1 0 0 0 0 0 0 0 0 0 0 0 0 0 0 21 0.002 
636 8 0.0151876 0.0713884 0.0330002 0 0 0 0.0176505 -0.15783 -0.000548856 0.000452579 5.89738e-05 3.95238e-06 0 1 0 0 0 0 0 0 0 0 0 0 0 0 0 0 18 0.002 
1074 10 0.013256 0.074914 0.0329989 0 0 0 -0.0195396 -0.154547 0.0100647 0 -0.000164368 0 0 0 0 0 0 0 0 0 0 0 0 0 0 0 0 0 11 0.002 
835 12 0.0173317 0.0749525 0.032995 0 0 0 0.0303312 -0.181472 0.000721664 -5.77454e-07 -0.000132655 8.97619e-06 0 0 0 0 0 0 0 0 0 0 0 1 0 0 0 0 31 0.002 
975 4 0.0175379 0.0820554 -0.0301463 0 0 0 1.0954 3.64153 6.15922 0 -0.000164368 0 0 0 0 0 0 0 0 0 0 0 0 0 0 0 0 0 9 0.002 
96 2 0.00496328 0.0931356 -0.0328241 0 0 0 0.0969324 0.197441 -0.0203974 0 -0.000164368 0 0 0 0 0 0 0 0 0 0 0 0 0 0 0 0 0 48 0.002 
430 4 0.00598582 0.100483 -0.0328931 0 0 0 0.484713 -0.20517 -0.147612 0 -0.000164368 0 0 0 0 0 0 0 0 0 0 0 0 0 0 0 0 0 39 0.002 
1250 6 0.00871098 0.104983 -0.0316238 0 0 0 0.25921 -0.332478 0.444751 0 -0.000164368 0 0 0 0 0 0 0 0 0 0 0 0 0 0 0 0 0 1 0.002 
814 13 0.00393424 0.10604 -0.0329326 0 0 0 -0.361034 -0.418051 0.116761 0 -0.000164368 0 0 0 0 0 0 0 0 0 0 0 0 0 0 0 0 0 39 0.002 
877 4 0.00686518 0.0824082 -0.0294478 0 0 0 -0.0618075 -1.10851 1.77632 0 -0.000164368 0 0 0 0 0 0 0 0 0 0 0 0 0 0 0 0 0 23 0.002 
854 2 0.0148736 0.0952957 -0.0305544 0 0 0 -2.49413 -0.148944 0.0483239 0 -0.000164368 0 0 0 0 0 0 0 0 0 0 0 0 0 0 0 0 0 25 0.002 
745 7 0.00423282 0.097958 -0.0296497 0 0 0 0.288785 -0.479922 0.0683156 0 -0.000164368 0 0 0 0 0 0 0 0 0 0 0 0 0 0 0 0 0 23 0.002 
1254 3 0.0151938 0.100772 -0.0305653 0 0 0 0.0965811 0.223154 0.181461 0 -0.000164368 0 0 0 0 0 0 0 0 0 0 0 0 0 0 0 0 0 0 0.002 
253 2 0.0180914 0.0977534 -0.0292246 0 0 0 -0.14903 -1.42727 0.67585 0 -0.000164368 0 0 0 0 0 0 0 0 0 0 0 0 0 0 0 0 0 38 0.002 
293 1 0.00296148 0.101856 -0.0297266 0 0 0 -0.0413669 -0.0475642 0.00871948 0.123982 0.060158 -0.0142868 0 0 0 0 0 0 0 0 0 0 0 0 0 0 0 0 39 0.002 
517 2 0.0137228 0.107812 -0.0317135 0 0 0 0.463658 -1.08277 -1.43819 0 -0.000164368 0 0 0 0 0 0 0 0 0 0 0 0 0 0 0 0 0 24 0.002 
857 7 0.0116943 0.0919553 -0.0282866 0 0 0 -1.83938 -0.749232 -0.654549 0 -0.000164368 0 0 0 0 0 0 0 0 0 0 0 0 0 0 0 0 0 19 0.002 
801 5 0.00785338 0.100049 -0.0282513 0 0 0 -0.045676 0.491805 1.02301 0 -0.000164368 0 0 0 0 0 0 0 0 0 0 0 0 0 0 0 0 0 27 0.002 
1218 8 0.00421581 0.107006 -0.028941 0 0 0 0.126679 0.144576 0.174212 0 -0.000164368 0 0 0 0 0 0 0 0 0 0 0 0 0 0 0 0 0 1 0.002 
710 2 0.0115237 0.0983192 -0.0259142 0 0 0 2.7808 2.4562 -2.58072 0 -0.000164368 0 0 0 0 0 0 0 0 0 0 0 0 0 0 0 0 0 29 0.002 
963 3 0.0137786 0.105809 -0.0272188 0 0 0 0.332046 0.944357 -1.3093 0 -0.000164368 0 0 0 0 0 0 0 0 0 0 0 0 0 0 0 0 0 20 0.002 
323 7 0.0171418 0.107902 -0.0258225 0 0 0 -1.1931 -0.157407 0.899625 0 -0.000164368 0 0 0 0 0 0 0 0 0 0 0 0 0 0 0 0 0 44 0.002 
195 7 0.00323857 0.0795122 -0.0295796 0 0 0 -2.16325 5.39314 -12.3351 0 -0.000164368 0 0 0 0 0 0 0 0 0 0 0 0 0 0 0 0 0 37 0.002 
1114 1 0.00347847 0.0993779 -0.0233702 0 0 0 0.313538 -0.0249598 0.853529 0.0583111 -0.0243755 -0.140279 1 0 0 0 0 0 0 0 0 0 0 0 0 0 0 0 10 0.002 
1258 8 0.00785566 0.103946 -0.0219647 0 0 0 0.299494 -1.27647 1.04935 0 -0.000164368 0 0 0 0 0 0 0 0 0 0 0 0 0 0 0 0 0 0 0.002 
1101 3 0.0137147 0.107018 -0.0215464 0 0 0 1.16761 0.192436 0.641134 0 -0.000164368 0 0 0 0 0 0 0 0 0 0 0 0 0 0 0 0 0 7 0.002 
513 4 0.00475511 0.0864784 -0.0176247 0 0 0 0.265655 0.117484 2.51568 0 -0.000164368 0 0 0 0 0 0 0 0 0 0 0 0 0 0 0 0 0 45 0.002 
1259 7 0.00376055 0.100266 -0.0195355 0 0 0 0.249528 0.962501 -0.450874 -0.0583111 0.0240468 0.140279 1 0 0 0 0 0 0 0 0 0 0 0 0 0 0 0 1 0.002 
662 1 0.0167247 0.102665 -0.0189794 0 0 0 -1.75876 1.43211 1.62259 0 -0.000164368 0 0 0 0 0 0 0 0 0 0 0 0 0 0 0 0 0 33 0.002 
53 3 0.00780637 0.104585 -0.0172005 0 0 0 -0.0671143 1.13656 2.38763 0 -0.000164368 0 0 0 0 0 0 0 0 0 0 0 0 0 0 0 0 0 52 0.002 
891 2 0.00301048 0.0993397 -0.0142168 0 0 0 0.148888 -0.828283 0.491242 0 -0.000164368 0 0 0 0 0 0 0 0 0 0 0 0 0 0 0 0 0 16 0.002 
890 6 0.0113485 0.107593 -0.013065 0 0 0 0.374066 -0.133313 0.775081 0 -0.000164368 0 0 0 0 0 0 0 0 0 0 0 0 0 0 0 0 0 26 0.002 
347 3 0.014604 0.0873205 -0.0125538 0 0 0 -0.459071 0.721889 -1.83862 0 -0.000164368 0 0 0 0 0 0 0 0 0 0 0 0 0 0 0 0 0 37 0.002 
167 2 0.00829236 0.0925983 -0.0129699 0 0 0 -1.04419 2.53794 -1.35171 0 -0.000164368 0 0 0 0 0 0 0 0 0 0 0 0 0 0 0 0 0 30 0.002 
1042 12 0.0185927 0.0966034 -0.0111397 0 0 0 0.609342 1.49889 0.214363 0 -0.000164368 0 0 0 0 0 0 0 0 0 0 0 0 0 0 0 0 0 16 0.002 
897 3 0.0107701 0.0887664 -0.0132195 0 0 0 4.40347 1.12061 -5.11874 0 -0.000164368 0 0 0 0 0 0 0 0 0 0 0 0 0 0 0 0 0 21 0.002 
229 6 0.00342574 0.0998088 -0.00787766 0 0 0 -0.520084 -1.85655 1.61966 0 -0.000164368 0 0 0 0 0 0 0 0 0 0 0 0 0 0 0 0 0 46 0.002 
729 9 0.00964227 0.107747 -0.009333 0 0 0 0.432888 0.143861 0.915204 0.00152348 -2.50007e-05 -0.00183807 0 0 0 0 0 0 0 0 1 0 0 0 0 0 0 0 30 0.002 
1090 12 0.0031152 0.104647 -0.00725164 0 0 0 0.11597 -0.519701 0.137719 0 -0.000164368 0 0 0 0 0 0 0 0 0 0 0 0 0 0 0 0 0 7 0.002 
1075 3 0.00822463 0.104441 -0.0057875 0 0 0 -0.0771347 -0.0681216 1.22469 0 -0.000164368 0 0 0 0 0 0 0 0 0 0 0 0 0 0 0 0 0 21 0.002 
744 1 0.00600598 0.107862 -0.00769542 0 0 0 0.291968 -0.146272 0.83131 -0.00152348 -0.000303736 0.00183807 0 0 0 0 0 0 0 0 1 0 0 0 0 0 0 0 19 0.002 
996 2 0.00498968 0.0766449 -0.00324992 0 0 0 -0.0917476 0.0659477 4.26834 0 -0.000164368 0 0 0 0 0 0 0 0 0 0 0 0 0 0 0 0 0 26 0.002 
904 3 0.0118472 0.0869571 -0.00580411 0 0 0 0.351257 4.35314 -3.60573 0 -0.000164368 0 0 0 0 0 0 0 0 0 0 0 0 0 0 0 0 0 14 0.002 
1210 2 0.00839236 0.0980482 -0.00512895 0 0 0 0.620021 0.831022 0.425601 0 -0.000164368 0 0 0 0 0 0 0 0 0 0 0 0 0 0 0 0 0 0 0.002 
730 3 0.00928196 0.0784517 -0.00353746 0 0 0 -0.809518 2.61461 -2.93287 0 -0.000164368 0 0 0 0 0 0 0 0 0 0 0 0 0 0 0 0 0 30 0.002 
803 4 0.0050499 0.0942387 -0.00365874 0 0 0 0.1096 1.67319 -1.30209 0 -0.000164368 0 0 0 0 0 0 0 0 0 0 0 0 0 0 0 0 0 31 0.002 
979 4 0.00493491 0.102184 -0.00380044 0 0 0 -0.718216 1.34037 -0.43391 0 -0.000164368 0 0 0 0 0 0 0 0 0 0 0 0 0 0 0 0 0 26 0.002 
1077 1 0.00908716 0.0910879 -0.00146772 0 0 0 -1.31144 -0.732784 -0.283499 0 -0.000164368 0 0 0 0 0 0 0 0 0 0 0 0 0 0 0 0 0 9 0.002 
1244 12 0.0158356 0.105358 -0.000271191 0 0 0 -0.698787 -0.518312 1.35488 0 -0.000164368 0 0 0 0 0 0 0 0 0 0 0 0 0 0 0 0 0 1 0.002 
406 5 0.0184154 0.0861764 0.00112463 0 0 0 -0.417742 0.405334 -0.752549 0 -0.000164368 0 0 0 0 0 0 0 0 0 0 0 0 0 0 0 0 0 47 0.002 
631 1 0.0166876 0.0962821 0.00298833 0 0 0 -0.198108 -0.917477 0.799481 0 -0.000164368 0 0 0 0 0 0 0 0 0 0 0 0 0 0 0 0 0 37 0.002 
1260 6 0.0186411 0.106186 0.00287331 0 0 0 0.191271 -0.104366 0.512318 0 -0.000164368 0 0 0 0 0 0 0 0 0 0 0 0 0 0 0 0 0 0 0.002 
1174 9 0.00373637 0.0996043 0.0049865 0 0 0 -0.361056 -0.680002 0.57721 0 -0.000164368 0 0 0 0 0 0 0 0 0 0 0 0 0 0 0 0 0 1 0.002 
433 9 0.0138748 0.104884 0.0049934 0 0 0 -0.490685 0.058296 0.739594 0 -0.000164368 0 0 0 0 0 0 0 0 0 0 0 0 0 0 0 0 0 33 0.002 
602 6 0.00730005 0.0839886 0.0064806 0 0 0 -0.0193932 -0.342905 -0.300814 0 -0.000164368 0 0 0 0 0 0 0 0 0 0 0 0 0 0 0 0 0 28 0.002 
1140 12 0.0118589 0.082048 0.00635455 0 0 0 -0.236319 0.0233317 -0.5203 0 -0.000164368 0 0 0 0 0 0 0 0 0 0 0 0 0 0 0 0 0 10 0.002 
179 1 0.0115998 0.0871615 0.00725213 0 0 0 -0.109574 -0.22671 -0.328553 -0.00214005 -0.0231719 0.014606 1 0 0 0 0 0 0 0 0 0 0 0 0 0 0 0 36 0.002 
468 8 0.0159977 0.0867591 0.00673326 0 0 0 0.0444154 0.0168469 -0.55075 0 -0.000164368 0 0 0 0 0 0 0 0 0 0 0 0 0 0 0 0 0 47 0.002 
188 6 0.0120188 0.0909659 0.00617962 0 0 0 0.679032 -0.318764 -0.0731477 0.00214005 0.0228432 -0.014606 1 0 0 0 0 0 0 0 0 0 0 0 0 0 0 0 49 0.002 
544 2 0.00583636 0.0946037 0.0053113 0 0 0 0.111935 0.760447 -0.459789 0 -0.000164368 0 0 0 0 0 0 0 0 0 0 0 0 0 0 0 0 0 47 0.002 
953 3 0.00677714 0.102101 0.0057449 0 0 0 -0.0153172 -0.5371 -0.054048 0 -0.000164368 0 0 0 0 0 0 0 0 0 0 0 0 0 0 0 0 0 15 0.002 
1098 3 0.00307409 0.0854653 0.00842868 0 0 0 0.0232383 -0.132747 -0.115859 -0.00464374 0.00403271 -0.00323388 0 0 1 0 0 0 0 0 0 0 0 0 0 0 0 0 15 0.002 
362 1 0.0081436 0.0884895 0.00993688 0 0 0 -0.135749 -0.243232 -0.0183066 0 -0.000164368 0 0 0 0 0 0 0 0 0 0 0 0 0 0 0 0 0 20 0.002 
952 3 0.00330054 0.0963739 0.00880903 0 0 0 0.254144 0.0645603 0.309637 7.9969e-06 -1.70804e-05 -8.17092e-05 0 0 1 0 0 0 0 0 0 0 0 0 0 0 0 0 12 0.002 
960 3 0.00329722 0.100372 0.00903199 0 0 0 -0.0882983 0.143318 0.11141 0 -0.000164368 0 0 0 0 0 0 0 0 0 0 0 0 0 0 0 0 0 15 0.002 
601 8 0.00818297 0.0982187 0.00873365 0 0 0 0.26198 -1.08289 1.00737 0 -0.000164368 0 0 0 0 0 0 0 0 0 0 0 0 0 0 0 0 0 33 0.002 
1169 3 0.00299331 0.104334 0.00828454 0 0 0 0.254528 0.280713 0.256295 -0.0147821 1.17031e-05 -0.000813114 0 0 0 0 0 0 0 0 0 0 0 0 0 0 0 0 1 0.002 
598 1 0.0178499 0.0990959 -0.0216294 0 0 0 -2.10605 1.28987 0.810204 0 -0.000164368 0 0 0 0 0 0 0 0 0 0 0 0 0 0 0 0 0 34 0.002 
902 3 0.0144069 0.0788218 0.0102169 0 0 0 0.211351 0.0759694 -0.316463 0 -0.000164368 0 0 0 0 0 0 0 0 0 0 0 0 0 0 0 0 0 18 0.002 
1188 4 0.00880716 0.08066 0.0100972 0 0 0 -0.023169 -0.198323 -0.329625 0 -0.000164368 0 0 0 0 0 0 0 0 0 0 0 0 0 0 0 0 0 5 0.002 
769 5 0.00554312 0.0830395 0.0104101 0 0 0 -0.0542855 -0.24333 -0.154645 0.00464374 -0.00436145 0.00323388 0 0 0 0 1 0 0 0 0 0 0 0 0 0 0 0 30 0.002 
359 3 0.00411067 0.0891765 0.0106146 0 0 0 -0.147704 -0.372667 0.167079 0 -0.000164368 0 0 0 0 0 0 0 0 0 0 0 0 0 0 0 0 0 39 0.002 
903 8 0.0168303 0.0900277 0.0117195 0 0 0 0.102812 -0.39941 -0.0419162 0 -0.000164368 0 0 0 0 0 0 0 0 0 0 0 0 0 0 0 0 0 49 0.002 
58 1 0.0030848 0.0941191 0.0121041 0 0 0 0.0566606 -0.0370704 0.234544 -7.9969e-06 -0.000311656 8.17092e-05 1 0 0 0 0 0 0 0 0 0 0 0 0 0 0 0 44 0.002 
792 2 0.0102782 0.0952743 0.0113008 0 0 0 0.187879 -0.188531 0.120236 0 -0.000164368 0 0 0 0 0 0 0 0 0 0 0 0 0 0 0 0 0 17 0.002 
839 3 0.0141977 0.0949742 0.0105066 0 0 0 0.0958573 -0.193215 0.10007 0 -0.000164368 0 0 0 0 0 0 0 0 0 0 0 0 0 0 0 0 0 12 0.002 
757 2 0.0169379 0.0982248 0.0117343 0 0 0 -0.241552 -0.340211 0.556779 0 -0.000164368 0 0 0 0 0 0 0 0 0 0 0 0 0 0 0 0 0 12 0.002 
773 5 0.0100974 0.102865 0.0117008 0 0 0 0.44732 0.146098 0.3079 0 -0.000164368 0 0 0 0 0 0 0 0 0 0 0 0 0 0 0 0 0 18 0.002 
317 11 0.00300693 0.107574 0.0109302 0 0 0 0.0880856 0.114447 0.481916 0 -0.000164368 0 0 0 0 0 0 0 0 0 0 0 0 0 0 0 0 0 34 0.002 
1063 3 0.00744447 0.107231 0.0103514 0 0 0 -0.19308 0.468377 0.159344 0 -0.000164368 0 0 0 0 0 0 0 0 0 0 0 0 0 0 0 0 0 12 0.002 
262 3 0.00804419 0.0786737 0.0143944 0 0 0 0.00252699 -0.332886 -0.203656 0 -0.000164368 0 0 0 0 0 0 0 0 0 0 0 0 0 0 0 0 0 32 0.002 
1221 1 0.00402003 0.0817794 0.0139023 0 0 0 -0.069449 -0.184233 -0.108959 0 -0.000164368 0 0 0 0 0 0 0 0 0 0 0 0 0 0 0 0 0 0 0.002 
639 9 0.0155719 0.0831998 0.0121954 0 0 0 -0.0634691 -0.159814 -0.314661 0 -0.000164368 0 0 0 0 0 0 0 0 0 0 0 0 0 0 0 0 0 43 0.002 
1111 4 0.00312218 0.085592 0.0125367 0 0 0 0.0723541 -0.13405 -0.0606398 0 -0.000164368 0 0 0 0 0 0 0 0 0 0 0 0 0 0 0 0 0 12 0.002 
243 5 0.00830071 0.0858784 0.013102 0 0 0 -0.0995502 -0.429673 -0.0374265 0 -0.000164368 0 0 0 0 0 0 0 0 0 0 0 0 0 0 0 0 0 19 0.002 
1238 1 0.0135414 0.0865721 0.0142829 0 0 0 0.0353053 -0.231621 -0.0720003 -0.000880315 0.00136642 -0.000844359 1 0 0 0 0 0 0 0 0 0 0 0 0 0 0 0 3 0.002 
1215 2 0.0030041 0.0907947 0.0144364 0 0 0 0.0109126 -0.152813 -0.00702147 0 -0.000164368 0 0 0 0 0 0 0 0 0 0 0 0 0 0 0 0 0 0 0.002 
481 2 0.00683025 0.0898133 0.0135163 0 0 0 0.00218749 -0.278192 -0.0264471 -0.00189052 -0.00524614 -0.0111455 0 0 0 0 0 0 0 0 0 0 0 0 0 0 0 0 23 0.002 
1032 4 0.0119593 0.0898302 0.0125957 0 0 0 -0.017639 -0.0588933 0.0677529 0.000880315 -0.00169515 0.000844359 1 0 0 0 0 0 0 0 0 0 0 0 0 0 0 0 16 0.002 
753 6 0.00723257 0.0954807 0.0140234 0 0 0 0.0548154 -0.221851 0.0598055 0 -0.000164368 0 0 0 0 0 0 0 0 0 0 0 0 0 0 0 0 0 55 0.002 
584 8 0.00332194 0.0982035 0.012652 0 0 0 0.161514 -0.136349 0.108175 0 -0.000164368 0 0 0 0 0 0 0 0 0 0 0 0 0 0 0 0 0 48 0.002 
583 1 0.00702765 0.100034 0.0135033 0 0 0 0.191417 -0.177129 0.160415 0 -0.000164368 0 0 0 0 0 0 0 0 0 0 0 0 0 0 0 0 0 40 0.002 
550 10 0.0132539 0.0988831 0.0137637 0 0 0 -0.0431244 -0.0255992 0.586192 -0.00105727 -0.00483123 0.00217118 0 0 0 0 0 0 0 0 0 2 0 0 0 0 0 0 37 0.002 
1227 5 0.0153008 0.102177 0.0128638 0 0 0 0.12622 0.250751 1.06391 0.000385783 0.00446903 -0.000908626 0 0 0 0 0 0 0 0 0 1 0 0 0 0 0 0 1 0.002 
508 9 0.00664365 0.104043 0.0138792 0 0 0 0.239652 -0.193117 0.657207 0 -0.000164368 0 0 0 0 0 0 0 0 0 0 0 0 0 0 0 0 0 40 0.002 
1066 1 0.0166142 0.106074 0.0133225 0 0 0 0.0192017 -0.0443704 2.00827 0 -0.000164368 0 0 0 0 0 0 0 0 0 0 0 0 0 0 0 0 0 22 0.002 
1091 5 0.00767748 0.107806 0.0148426 0 0 0 0.32759 -0.150539 0.733426 0.00379799 0.00161346 -0.00682989 0 0 0 0 0 0 0 0 0 0 0 0 0 0 0 0 8 0.002 
572 3 0.00305529 0.0751178 0.016547 0 0 0 0.00725796 -0.278569 -0.0241829 0 -0.000164368 0 0 0 0 0 0 0 0 0 0 0 0 0 0 0 0 0 35 0.002 
965 3 0.0175298 0.0755402 0.014481 0 0 0 -0.102333 -0.149887 -0.309047 0.00764508 0.0100317 0.00188558 0 0 1 0 0 0 0 0 0 0 0 0 0 0 0 0 19 0.002 
199 4 0.0115387 0.0791889 0.0166679 0 0 0 -0.210243 -0.135529 -0.0915522 0 -0.000164368 0 0 0 0 0 0 0 0 0 0 0 0 0 0 0 0 0 48 0.002 
1230 3 0.0149472 0.0796405 0.0145657 0 0 0 -0.255398 -0.139472 -0.346747 -0.00493681 -0.000622865 0.00200906 0 0 1 0 0 0 0 0 0 0 0 0 0 0 0 0 1 0.002 
1060 2 0.00973607 0.0829387 0.015606 0 0 0 0.00305436 -0.188672 -0.184581 0 -0.000164368 0 0 0 0 0 0 0 0 0 0 0 0 0 0 0 0 0 12 0.002 
370 4 0.00620493 0.0846798 0.0163145 0 0 0 -0.0239746 -0.262675 -0.105669 9.91885e-05 -0.000164164 -2.41728e-05 0 0 0 1 0 0 0 0 0 0 0 0 0 0 0 0 42 0.002 
827 2 0.00300164 0.0871969 0.0163615 0 0 0 -0.000715963 -0.197489 0.0098666 0 -0.000164368 0 0 0 0 0 0 0 0 0 0 0 0 0 0 0 0 0 23 0.002 
698 6 0.0108704 0.0887158 0.0164929 0 0 0 -0.0335279 -0.561194 0.0766636 0 -0.000164368 0 0 0 0 0 0 0 0 0 0 0 0 0 0 0 0 0 34 0.002 
377 4 0.0177643 0.0894231 0.0156483 0 0 0 0.162694 -0.433613 0.0551182 -0.000651284 0.00299393 0.000388179 0 0 0 1 0 0 0 0 0 0 0 0 0 0 0 0 49 0.002 
126 2 0.00608915 0.0924662 0.0163962 0 0 0 0.0778476 -0.199307 -0.108694 0.000908014 0.00456524 0.00987487 0 2 0 0 0 0 0 0 0 0 0 0 0 0 0 0 28 0.002 
1225 1 0.0100395 0.0926012 0.0158331 0 0 0 0.154927 -0.419602 0.00043319 -0.00107757 -0.000514951 0.000618853 1 1 0 0 0 0 0 0 0 0 0 0 0 0 0 0 3 0.002 
1147 9 0.0144013 0.0914557 0.0163639 0 0 0 0.0975402 -0.443259 0.139457 -4.70135e-05 -0.000159449 1.85033e-05 0 0 0 1 0 0 0 0 0 0 0 0 0 0 0 0 7 0.002 
1223 2 0.00309932 0.0951736 0.0159922 0 0 0 0.0312757 -0.271392 0.231314 -0.000156442 -0.000325304 -0.000322503 0 1 0 0 0 0 0 0 0 0 0 0 0 0 0 0 2 0.002 
927 3 0.0130136 0.0952647 0.0157261 0 0 0 0.0437748 -0.267319 0.45284 0.00294559 -0.000819685 -0.00400284 1 0 1 0 0 0 0 0 0 0 0 0 0 0 0 0 16 0.002 
895 10 0.0170752 0.0956714 0.015278 0 0 0 -0.0236518 0.0329329 0.165253 0 -0.000164368 0 0 0 0 0 0 0 0 0 0 0 0 0 0 0 0 0 40 0.002 
703 3 0.0100344 0.0984468 0.0160876 0 0 0 -0.205901 -0.240525 0.484865 0.052479 0.00301696 -0.0268963 0 0 1 0 0 0 0 0 0 1 0 0 0 0 0 0 30 0.002 
811 5 0.0185775 0.100145 0.0157013 0 0 0 0.294381 -0.19955 0.275513 0 -0.000164368 0 0 0 0 0 0 0 0 0 0 0 0 0 0 0 0 0 31 0.002 
331 7 0.00308838 0.104293 0.0157928 0 0 0 0.0597984 0.138823 0.354853 0 -0.000164368 0 0 0 0 0 0 0 0 0 0 0 0 0 0 0 0 0 47 0.002 
1155 5 0.0125379 0.104705 0.0162382 0 0 0 0.214712 -0.426932 0.408201 0.00100137 0.00211992 -0.020224 0 0 0 0 1 0 0 0 0 0 0 0 0 0 0 0 10 0.002 
399 3 0.0121028 0.0752618 0.0179008 0 0 0 0.189787 -0.180797 -0.200718 0 -0.000164368 0 0 0 0 0 0 0 0 0 0 0 0 0 0 0 0 0 42 0.002 
308 1 0.00316092 0.0790491 0.0175308 0 0 0 0.059954 -0.210204 -0.100106 0 -0.000164368 0 0 0 0 0 0 0 0 0 0 0 0 0 0 0 0 0 55 0.002 
1001 4 0.00813282 0.0779006 0.0186918 0 0 0 0.128413 -0.168724 -0.0857453 0 -0.000164368 0 0 0 0 0 0 0 0 0 0 0 0 0 0 0 0 0 26 0.002 
570 1 0.00299924 0.0832838 0.0182555 0 0 0 -0.000354187 -0.212834 -0.025863 0.000249448 -1.68259e-05 -6.83356e-05 0 0 0 1 0 0 0 0 0 0 0 0 0 0 0 0 36 0.002 
534 13 0.0132912 0.0838212 0.0174918 0 0 0 -0.0789178 -0.0951278 -0.107967 -0.00329022 0.00623571 -0.01022 0 0 0 0 0 0 0 0 0 0 0 0 1 0 0 0 42 0.002 
787 3 0.0185138 0.0821839 0.0181918 0 0 0 -0.129004 -0.188709 -0.181606 0 -0.000164368 0 0 0 0 0 0 0 0 0 0 0 0 0 0 0 0 0 27 0.002 
245 1 0.00674808 0.0884787 0.0176411 0 0 0 0.0651938 -0.282393 -0.0105681 0 -0.000164368 0 0 0 0 0 0 0 0 0 0 0 0 0 0 0 0 0 28 0.002 
492 4 0.0158873 0.0868362 0.0181441 0 0 0 -0.0116583 -0.220515 -0.119733 0 -0.000164368 0 0 0 0 0 0 0 0 0 0 0 0 0 0 0 0 0 26 0.002 
674 10 0.0029966 0.0912587 0.0186141 0 0 0 0.0428022 -0.142285 -0.00741889 -0.00162002 0.000422849 -0.00204179 0 1 0 0 0 0 0 0 0 1 0 0 0 0 0 0 30 0.002 
961 1 0.0173698 0.0934232 0.0186765 0 0 0 0.168866 -0.173796 0.153536 0 -0.000164368 0 0 0 0 0 0 0 0 0 0 0 0 0 0 0 0 0 14 0.002 
661 2 0.00617535 0.0980679 0.0168864 0 0 0 -0.0869372 -0.239262 0.252806 -0.0281565 0.000794043 0.0174378 0 2 1 0 0 0 0 0 0 0 0 0 0 0 0 0 17 0.002 
299 1 0.0133459 0.0980553 0.0185673 0 0 0 0.164163 -0.0903059 0.163232 -0.00813901 0.00248689 -0.0170601 1 0 1 0 0 0 0 0 0 0 0 0 0 0 0 0 35 0.002 
296 2 0.00309686 0.101658 0.0189639 0 0 0 0.0101531 -0.0369883 0.221489 0 -0.000164368 0 0 0 0 0 0 0 0 0 0 0 0 0 0 0 0 0 21 0.002 
836 4 0.00845148 0.102012 0.0171296 0 0 0 0.333185 -0.260008 0.212555 0 -0.000164368 0 0 0 0 0 0 0 0 0 0 0 0 0 0 0 0 0 29 0.002 
121 2 0.014772 0.101493 0.0170686 0 0 0 0.205882 -0.113233 0.0854395 -0.00100137 -0.00244866 0.020224 0 0 0 0 1 0 0 0 0 0 0 0 0 0 0 0 45 0.002 
767 5 0.00453092 0.107871 0.017302 0 0 0 0.176995 0.178489 0.328165 -0.00265569 -0.0015686 0.00591363 0 0 0 0 1 0 0 0 0 0 0 0 0 0 0 0 32 0.002 
303 3 0.015207 0.107922 0.0185255 0 0 0 -0.511271 0.576483 0.578178 0 -0.000164368 0 0 0 0 0 0 0 0 0 0 0 0 0 0 0 0 0 30 0.002 
437 8 0.0178848 0.0786165 0.0212954 0 0 0 -0.0854032 0.104731 0.129483 0 -0.000164368 0 0 0 0 0 0 0 0 0 0 0 0 0 0 0 0 0 38 0.002 