ITEM: TIMESTEP
10500000
ITEM: NUMBER OF ATOMS
1284
ITEM: BOX BOUNDS ff ff ff
-0.01 0.45
-0.15 0.15
-0.08 0.1
ITEM: ATOMS id type x y z ix iy iz vx vy vz fx fy fz c_cc_1 c_cc_2 c_cc_3 c_cc_4 c_cc_5 c_cc_6 c_cc_7 c_cc_8 c_cc_9 c_cc_10 c_cc_11 c_cc_12 c_cc_13 c_cc_14 c_cc_15 c_cc_16 f_fppacc radius 
1162 3 0.0165389 -0.0575577 7.41772e-05 0 0 0 0.207477 0.534285 9.26842 0 -0.000164368 0 0 0 0 0 0 0 0 0 0 0 0 0 0 0 0 0 12 0.002 
1177 7 0.00733611 -0.00129315 0.0579421 0 0 0 9.17038 33.8968 5.6679 -0.115908 0.397028 -0.672293 0 0 0 0 0 0 0 0 0 0 0 0 0 0 0 0 3 0.002 
716 5 0.00916396 0.0294281 -0.0407905 0 0 0 -0.609158 -1.12779 -13.0705 0 -0.000164368 0 0 0 0 0 0 0 0 0 0 0 0 0 0 0 0 0 28 0.002 
369 6 0.0111679 0.0257411 0.0345134 0 0 0 -0.474018 -0.89332 0.835116 0 -0.000164368 0 0 0 0 0 0 0 0 0 0 0 0 0 0 0 0 0 40 0.002 
263 2 0.0104002 0.00724025 0.0521704 0 0 0 4.30807 -3.16814 -2.81399 0 -0.000164368 0 0 0 0 0 0 0 0 0 0 0 0 0 0 0 0 0 31 0.002 
41 1 0.0151238 0.052857 -0.0355 0 0 0 -1.53928e-84 1.82794e-19 -1.12855e-12 -5.825e-86 -1.35525e-20 0 0 0 0 0 0 0 0 0 0 0 0 0 0 0 0 0 2 0.002 
1285 6 0.0142029 0.0453998 -0.03418 0 0 0 3.66787 -0.021427 -1.01211 0 -0.000164368 0 0 0 0 0 0 0 0 0 0 0 0 0 0 0 0 0 0 0.002 
137 1 0.0125076 0.0663469 -0.0324362 0 0 0 0.393526 -1.092 0.709052 0 -0.000164368 0 0 0 0 0 0 0 0 0 0 0 0 0 0 0 0 0 30 0.002 
948 3 0.00497745 0.0654874 -0.0314125 0 0 0 0.809159 2.85921 -7.73791 0 -0.000164368 0 0 0 0 0 0 0 0 0 0 0 0 0 0 0 0 0 28 0.002 
971 2 0.0102658 0.0450604 -0.0258921 0 0 0 -6.36388 -7.5517 0.839927 0 -0.000164368 0 0 0 0 0 0 0 0 0 0 0 0 0 0 0 0 0 24 0.002 
432 4 0.0056061 0.0685017 0.00290697 0 0 0 0.56774 0.241348 -0.930768 0 -0.000164368 0 0 0 0 0 0 0 0 0 0 0 0 0 0 0 0 0 52 0.002 
1149 4 0.0152045 0.0637031 -0.0257786 0 0 0 2.28488 -1.69434 -2.52109 0 -0.000164368 0 0 0 0 0 0 0 0 0 0 0 0 0 0 0 0 0 0 0.002 
947 4 0.0051557 0.0647172 -0.0199461 0 0 0 0.106237 -0.745518 0.191233 0 -0.000164368 0 0 0 0 0 0 0 0 0 0 0 0 0 0 0 0 0 22 0.002 
1146 2 0.00567461 0.0730451 -0.0217407 0 0 0 0.740069 0.2372 -0.783248 0 -0.000164368 0 0 0 0 0 0 0 0 0 0 0 0 0 0 0 0 0 24 0.002 
125 10 0.014004 0.0604782 -0.0190356 0 0 0 0.311217 -2.07855 -1.71644 0 -0.000164368 0 0 0 0 0 0 0 0 0 0 0 0 0 0 0 0 0 43 0.002 
735 8 0.00980666 0.0702048 -0.0210372 0 0 0 -1.08058 1.61212 -4.11152 0 -0.000164368 0 0 0 0 0 0 0 0 0 0 0 0 0 0 0 0 0 23 0.002 
839 3 0.0041528 0.0440431 -0.0125 0 0 0 0.65871 -1.5885 -2.29013 0 -0.000164368 0 0 0 0 0 0 0 0 0 0 0 0 0 0 0 0 0 16 0.002 
425 1 0.00347774 0.0493416 -0.0133703 0 0 0 0.655239 -0.739171 -2.60997 0 -0.000164368 0 0 0 0 0 0 0 0 0 0 0 0 0 0 0 0 0 47 0.002 
1061 5 0.00828589 0.0421371 -0.00837454 0 0 0 1.38053 -1.31216 -4.38649 0 -0.000164368 0 0 0 0 0 0 0 0 0 0 0 0 0 0 0 0 0 19 0.002 
572 3 0.00753037 0.0603441 -0.00552528 0 0 0 -0.199034 -0.632804 -0.700206 0 -0.000164368 0 0 0 0 0 0 0 0 0 0 0 0 0 0 0 0 0 36 0.002 
480 3 0.0039978 0.0669582 -0.00649832 0 0 0 -0.465244 -0.168778 -1.33226 0 -0.000164368 0 0 0 0 0 0 0 0 0 0 0 0 0 0 0 0 0 42 0.002 
638 6 0.011096 0.0569664 -0.0105078 0 0 0 4.1114 3.47103 -19.1276 0 -0.000164368 0 0 0 0 0 0 0 0 0 0 0 0 0 0 0 0 0 25 0.002 
951 10 0.0101187 0.0643773 -0.000984902 0 0 0 -0.161235 -0.216344 -0.59028 0 -0.000164368 0 0 0 0 0 0 0 0 0 0 0 0 0 0 0 0 0 22 0.002 
976 5 0.0096532 0.0675188 0.0103065 0 0 0 0.565587 -0.0589034 -0.909495 0 -0.000164368 0 0 0 0 0 0 0 0 0 0 0 0 0 0 0 0 0 22 0.002 
527 8 0.00441377 0.0684858 0.0113694 0 0 0 0.156533 -0.166769 -0.698546 0 -0.000164368 0 0 0 0 0 0 0 0 0 0 0 0 0 0 0 0 0 37 0.002 
230 6 0.00300822 0.0722639 0.0100599 0 0 0 0.0122069 0.0157752 -0.466046 0 -0.000164368 0 0 0 0 0 0 0 0 0 0 0 0 0 0 0 0 0 51 0.002 
193 8 0.0071306 0.0721727 0.0110778 0 0 0 0.128102 0.217923 -0.612574 0 -0.000164368 0 0 0 0 0 0 0 0 0 0 0 0 0 0 0 0 0 54 0.002 
1310 1 0.00705544 0.0618873 0.0187711 0 0 0 1.01496 0.812624 2.82341 0.196257 -0.211551 -0.33107 1 0 0 0 0 0 0 0 0 0 0 0 0 0 0 0 1 0.002 
338 6 0.0030254 0.074419 0.0157539 0 0 0 0.0491474 -0.184383 -0.133228 0 -0.000164368 0 0 0 0 0 0 0 0 0 0 0 0 0 0 0 0 0 47 0.002 
641 1 0.0161338 0.0726803 0.0147645 0 0 0 -1.05014 -1.1618 -0.190017 0 -0.000164368 0 0 0 0 0 0 0 0 0 0 0 0 0 0 0 0 0 24 0.002 
404 6 0.0168515 0.0645965 0.0181292 0 0 0 -0.272446 -0.773136 -0.48612 0 -0.000164368 0 0 0 0 0 0 0 0 0 0 0 0 0 0 0 0 0 27 0.002 
417 1 0.00477184 0.0587629 0.017128 0 0 0 1.09471 1.13733 -4.13068 0 -0.000164368 0 0 0 0 0 0 0 0 0 0 0 0 0 0 0 0 0 60 0.002 
1032 4 0.0166326 0.0603714 0.0207059 0 0 0 -0.29204 -0.0814487 -1.23499 -0.00239178 0.00612191 0.0102922 0 0 0 0 0 0 0 0 0 0 0 0 0 0 0 0 17 0.002 
998 5 0.00731741 0.0675818 0.0201978 0 0 0 0.121676 -0.115135 -0.256293 0 -0.000164368 0 0 0 0 0 0 0 0 0 0 0 0 0 0 0 0 0 19 0.002 
983 5 0.00298524 0.069674 0.0209766 0 0 0 -0.00594695 0.22839 -0.365592 0.0194151 -0.0167508 0.0131498 0 0 0 0 1 0 0 0 0 0 0 0 0 0 0 0 21 0.002 
1196 5 0.00519879 0.0741896 0.0192638 0 0 0 -0.155879 -0.102788 -0.0344537 0 -0.000164368 0 0 0 0 0 0 0 0 0 0 0 0 0 0 0 0 0 9 0.002 
753 6 0.0136117 0.074461 0.0204617 0 0 0 -0.00520108 -0.262553 -0.15863 0 -0.000164368 0 0 0 0 0 0 0 0 0 0 0 0 0 0 0 0 0 64 0.002 
550 10 0.0173011 0.0726081 0.0206764 0 0 0 -0.318306 -0.611448 -0.349909 0 -0.000164368 0 0 0 0 0 0 0 0 0 0 0 0 0 0 0 0 0 42 0.002 
1280 1 0.0158518 0.0505768 0.0233882 0 0 0 -0.551362 -1.35623 0.0468887 0 -0.000164368 0 0 0 0 0 0 0 0 0 0 0 0 0 0 0 0 0 0 0.002 
703 3 0.0112185 0.0557242 0.0228505 0 0 0 -0.333614 -1.4474 -0.0295214 0 -0.000164368 0 0 0 0 0 0 0 0 0 0 0 0 0 0 0 0 0 40 0.002 
553 7 0.00519851 0.0636426 0.0215965 0 0 0 -1.29354 0.692436 1.75367 -0.196257 0.211222 0.33107 1 0 0 0 0 0 0 0 0 0 0 0 0 0 0 0 40 0.002 
626 1 0.0124278 0.0691156 0.021401 0 0 0 0.390381 1.35612 -1.05566 0 -0.000164368 0 0 0 0 0 0 0 0 0 0 0 0 0 0 0 0 0 34 0.002 
18 3 0.00638039 0.0714391 0.0220967 0 0 0 -0.0430693 -0.0655062 -0.0833766 -0.00189212 0.00425486 -0.00330391 0 0 2 0 1 0 0 0 0 0 0 0 0 0 0 0 53 0.002 
1064 5 0.00979025 0.0734998 0.0219043 0 0 0 -0.0451537 -0.18055 -0.127474 0.0101705 0.000646141 -0.000673309 0 0 1 0 0 0 0 0 0 0 0 0 0 0 0 0 24 0.002 
182 2 0.00301229 0.0630426 0.0254803 0 0 0 -0.327843 0.496611 0.494238 0 -0.000164368 0 0 0 0 0 0 0 0 0 0 0 0 0 0 0 0 0 47 0.002 
326 4 0.00876529 0.0615719 0.024341 0 0 0 0.532886 0.536147 -1.0142 -0.0285484 0.0121433 -0.032034 0 0 0 1 0 0 0 0 0 0 0 0 0 0 0 0 58 0.002 
732 4 0.0155458 0.0616246 0.0243409 0 0 0 0.00235343 -0.00379529 -0.744505 0.00239178 -0.00645064 -0.0102922 0 0 0 0 0 0 0 0 0 0 0 0 0 0 0 0 39 0.002 
9 6 0.0122481 0.0649379 0.0235171 0 0 0 0.713237 0.123485 -0.166562 -0.113658 -0.0595322 -0.0501576 0 0 0 0 0 1 0 0 0 0 0 0 0 0 0 0 61 0.002 
548 4 0.00300677 0.0665418 0.0235326 0 0 0 -0.0525024 0.203967 -0.206126 0 -0.000164368 0 0 0 0 0 0 0 0 0 0 0 0 0 0 0 0 0 45 0.002 
821 3 0.0149055 0.0670497 0.025496 0 0 0 0.0520231 -0.110768 0.145987 0.113658 0.0592035 0.0501576 0 0 0 0 0 1 0 0 0 0 0 0 0 0 0 0 29 0.002 
665 2 0.00605364 0.0686611 0.0251858 0 0 0 0.179276 0.138315 -0.149639 -0.00642988 -0.0150679 -0.00200228 0 1 0 0 0 0 0 0 0 0 0 0 0 0 0 0 35 0.002 
288 1 0.0112509 0.0703856 0.025631 0 0 0 -0.145669 -0.485639 -0.104511 0 -0.000164368 0 0 0 0 0 0 0 0 0 0 0 0 0 0 0 0 0 45 0.002 
892 5 0.00301127 0.0727692 0.0237973 0 0 0 -0.0282119 0.121343 -0.130756 -0.000311503 0.00354491 -0.0115973 0 0 0 0 1 0 0 0 0 0 0 0 0 0 0 0 28 0.002 
883 2 0.0154195 0.0567714 0.0264142 0 0 0 1.20794 -0.843087 -0.40542 0 -0.000164368 0 0 0 0 0 0 0 0 0 0 0 0 0 0 0 0 0 24 0.002 
1074 10 0.00298963 0.058546 0.0249619 0 0 0 0.203953 -0.685631 -2.61781 -0.00437731 0.000751143 0.00198798 0 0 0 0 0 0 0 0 0 0 0 0 0 0 0 0 14 0.002 
416 5 0.0115891 0.0622726 0.0270404 0 0 0 0.0419328 0.493291 -0.730486 0.0285484 -0.012472 0.032034 0 0 0 1 0 0 0 0 0 0 0 0 0 0 0 0 51 0.002 
757 2 0.0175233 0.0646173 0.0273928 0 0 0 -0.0772864 0.227552 0.448659 0 -0.000164368 0 0 0 0 0 0 0 0 0 0 0 0 0 0 0 0 0 20 0.002 
1186 8 0.00304939 0.0669377 0.0278228 0 0 0 0.15225 0.0616308 -0.149702 -0.00228082 0.0106786 -0.00233172 0 0 0 0 0 0 0 2 0 0 0 0 0 0 0 0 14 0.002 
526 2 0.0106638 0.0664298 0.027121 0 0 0 0.25109 -0.100956 0.0206101 0 -0.000164368 0 0 0 0 0 0 0 0 0 0 0 0 0 0 0 0 0 34 0.002 
781 2 0.0178684 0.069594 0.0278685 0 0 0 -0.227468 -0.32693 -0.142966 0 -0.000164368 0 0 0 0 0 0 0 0 0 0 0 0 0 0 0 0 0 40 0.002 
1115 2 0.00299692 0.0709036 0.0273108 0 0 0 -0.0147398 0.0084489 -0.0576987 0.00390371 -0.00434338 0.0104789 0 0 0 0 1 0 0 1 0 0 0 0 0 0 0 0 20 0.002 
552 8 0.00659917 0.0725133 0.0260411 0 0 0 0.0938868 0.0150949 -0.0125847 0.00652486 0.0159225 0.000687025 0 1 0 0 0 0 0 0 0 0 0 0 0 0 0 0 55 0.002 
515 5 0.0149493 0.042123 0.0299344 0 0 0 1.91985 -2.31516 1.52323 0 -0.000164368 0 0 0 0 0 0 0 0 0 0 0 0 0 0 0 0 0 46 0.002 
1082 1 0.0172874 0.0604876 0.0293895 0 0 0 -0.1425 -0.530704 0.0364583 0 -0.000164368 0 0 0 0 0 0 0 0 0 0 0 0 0 0 0 0 0 27 0.002 
1078 1 0.00461899 0.0637016 0.0295408 0 0 0 -0.0172272 -0.0430213 -0.344029 0.015619 -0.00144364 -0.0192049 1 0 0 0 0 0 0 1 0 0 0 0 0 0 0 0 20 0.002 
763 3 0.0136739 0.0650024 0.0294023 0 0 0 0.111507 -0.0442668 0.0648134 0 -0.000164368 0 0 0 0 0 0 0 0 0 0 0 0 0 0 0 0 0 51 0.002 
378 2 0.00703421 0.0672344 0.0287818 0 0 0 0.0482465 0.31346 0.0397783 -9.49821e-05 -0.00134779 0.00131525 0 0 0 0 0 0 0 0 0 0 0 0 0 0 0 0 41 0.002 
695 2 0.00940924 0.0712724 0.0290978 0 0 0 -0.100298 -0.206953 -0.186048 0.00580889 0.00952924 -0.0117585 0 2 0 0 0 0 0 0 0 0 0 0 0 0 0 0 36 0.002 
531 1 0.00306752 0.0745108 0.0290507 0 0 0 0.038025 -0.0865521 -0.128435 0 -0.000164368 0 0 0 0 0 0 0 0 0 0 0 0 0 0 0 0 0 66 0.002 
1199 14 0.0125287 0.0737432 0.0289875 0 0 0 -0.0358921 -0.195001 -0.118267 0.00866368 0.00110092 -0.00122692 0 1 0 0 0 0 0 0 0 0 0 0 0 1 0 0 16 0.002 
1176 6 0.0165054 0.0734008 0.0290308 0 0 0 -0.0418051 -0.374353 -0.0238758 0.00400308 0.00142426 5.83685e-05 0 0 0 0 0 0 0 0 0 0 0 0 0 1 0 0 13 0.002 
741 5 0.00968911 0.0540609 0.0319162 0 0 0 -0.133449 -0.507624 -0.0914149 0 -0.000164368 0 0 0 0 0 0 0 0 0 0 0 0 0 0 0 0 0 31 0.002 
958 5 0.0170063 0.056599 0.0308562 0 0 0 0.130198 -0.873518 0.458061 0.00227584 0.00491501 0.00797223 0 0 0 0 1 0 0 0 0 0 0 0 0 0 0 0 24 0.002 
493 5 0.00333353 0.0606916 0.0317745 0 0 0 0.0840889 -0.519611 -0.47928 -0.0131439 -0.0111422 0.0224672 1 0 0 0 0 0 0 0 0 0 0 0 0 0 0 0 53 0.002 
324 5 0.0134572 0.0676535 0.0325101 0 0 0 0.0711718 -0.100741 0.274923 0.00923479 0.00834886 -0.00780951 0 0 0 0 1 0 0 0 0 0 0 0 0 0 0 0 49 0.002 
1191 3 0.0056922 0.0707963 0.0304158 0 0 0 -0.141235 -0.0542051 -0.116297 -0.0163987 -0.00464383 0.00359933 0 1 1 0 0 0 0 0 0 0 0 0 0 0 0 0 26 0.002 
1148 4 0.0143866 0.0714925 0.0318481 0 0 0 0.0210265 -0.0553565 0.00949465 0 -0.000164368 0 0 0 0 0 0 0 0 0 0 0 0 0 0 0 0 0 12 0.002 
103 5 0.0135978 0.0563422 0.0329676 0 0 0 -0.165031 -0.496389 -0.0308074 0 -0.000164368 0 0 0 0 0 0 0 0 0 0 0 0 0 0 0 0 0 44 0.002 
240 1 0.011164 0.0595256 0.0329202 0 0 0 -0.0469281 -0.396926 -0.0395927 0 -0.000164368 0 0 0 0 0 0 0 0 0 0 0 0 0 0 0 0 0 44 0.002 
490 2 0.0147441 0.0624978 0.033 0 0 0 0.281561 -0.463122 -0.00586623 0 -0.000164368 0 0 0 0 0 0 0 0 0 0 0 0 0 0 0 0 0 70 0.002 
1104 4 0.00299898 0.0653478 0.0329092 0 0 0 0.123791 0.0863187 0.179424 -0.00855331 -0.0176707 -0.00209196 0 0 0 1 0 0 0 0 0 0 0 0 0 0 0 0 12 0.002 
314 6 0.00676904 0.0638447 0.0329361 0 0 0 0.0213441 0.0220836 -0.0738779 0 -0.000164368 0 0 0 0 0 0 0 0 0 0 0 0 0 0 0 0 0 31 0.002 
845 3 0.0110787 0.0644984 0.0330029 0 0 0 0.0410392 -0.142323 -0.0557983 -0.00874379 -0.00795653 0.00955423 0 0 0 0 1 0 0 0 0 0 0 0 0 0 0 0 32 0.002 
928 2 0.00680098 0.0679811 0.0329977 0 0 0 0.0874642 0.0774321 0.150668 -0.00207694 -0.00823242 0.00932774 0 0 1 0 0 0 0 0 0 0 0 0 0 0 0 0 41 0.002 
635 4 0.0170652 0.0657608 0.032804 0 0 0 -0.0545878 -0.185732 -0.0117118 0 -0.000164368 0 0 0 0 0 0 0 0 0 0 0 0 0 0 0 0 0 53 0.002 
1071 3 0.00299741 0.0693227 0.0329794 0 0 0 0.0140923 0.049061 0.0593254 0.00301138 0.0227452 0.00429861 0 0 0 1 0 0 0 0 0 0 0 0 0 0 0 0 16 0.002 
1122 1 0.0101495 0.0702007 0.0329895 0 0 0 0.386939 -0.181097 -0.000414391 -0.00485852 -0.00567641 0.000455693 1 0 0 0 0 0 0 0 0 0 0 0 0 0 0 0 24 0.002 
627 2 0.00303678 0.0734475 0.0329841 0 0 0 0.0198795 -0.0759263 -0.0110434 0.00219434 -0.00721875 -0.000167664 0 1 0 0 0 0 0 0 0 0 0 0 0 0 0 0 43 0.002 
1172 8 0.00693721 0.0743809 0.0329049 0 0 0 0.0321625 -0.143596 -0.0289942 0 -0.000164368 0 0 0 0 0 0 0 0 0 0 0 0 0 0 0 0 0 22 0.002 
92 2 0.0111845 0.0740528 0.0329843 0 0 0 -0.025644 -0.0673877 -0.052133 -0.00750653 -0.00270518 -0.00310989 1 1 0 0 0 0 0 0 0 0 0 0 0 0 0 0 58 0.002 
442 7 0.0179969 0.0742315 0.0329645 0 0 0 -0.0207372 -0.209007 -0.00525669 0.000135541 -0.000290024 7.71382e-05 0 0 0 0 0 0 1 0 0 0 0 0 0 0 0 0 42 0.002 
1154 12 0.0187403 0.0722777 0.0248458 0 0 0 -0.173253 -0.377345 -0.139822 0 -0.000164368 0 0 0 0 0 0 0 0 0 0 0 0 0 0 0 0 0 14 0.002 
1068 4 0.0032674 0.0819706 -0.0314908 0 0 0 0.112455 0.387372 0.365374 0 -0.000164368 0 0 0 0 0 0 0 0 0 0 0 0 0 0 0 0 0 14 0.002 
61 8 0.00648391 0.0910521 -0.0329402 0 0 0 0.231967 -0.896851 -0.0012044 0 -0.000164368 0 0 0 0 0 0 0 0 0 0 0 0 0 0 0 0 0 21 0.002 
252 6 0.00516952 0.102172 -0.032948 0 0 0 1.71842 0.312387 -1.52587 0 -0.000164368 0 0 0 0 0 0 0 0 0 0 0 0 0 0 0 0 0 31 0.002 
896 1 0.00301188 0.107693 -0.0329962 0 0 0 0.052878 0.471396 0.0717189 0 -0.000164368 0 0 0 0 0 0 0 0 0 0 0 0 0 0 0 0 0 38 0.002 
706 9 0.00468087 0.106509 -0.0295576 0 0 0 0.599018 0.642037 -0.0913344 0 -0.000164368 0 0 0 0 0 0 0 0 0 0 0 0 0 0 0 0 0 60 0.002 
1270 6 0.0160354 0.0806147 -0.0279617 0 0 0 -1.77987 3.42349 -1.53442 0 -0.000164368 0 0 0 0 0 0 0 0 0 0 0 0 0 0 0 0 0 0 0.002 
1076 2 0.00456404 0.0908972 -0.0276317 0 0 0 0.027661 -0.222741 0.713551 0 -0.000164368 0 0 0 0 0 0 0 0 0 0 0 0 0 0 0 0 0 16 0.002 
1095 7 0.00806933 0.0768931 -0.0286083 0 0 0 -6.12548 2.61512 -4.37893 0 -0.000164368 0 0 0 0 0 0 0 0 0 0 0 0 0 0 0 0 0 19 0.002 
514 8 0.00995587 0.104887 -0.0252077 0 0 0 0.942756 0.161512 -0.238692 4.57779e-05 -0.000563587 -0.000100754 0 0 0 0 0 0 0 1 0 0 0 0 0 0 0 0 49 0.002 
621 4 0.00302499 0.107903 -0.0260171 0 0 0 0.0411405 -0.159736 0.30939 0 -0.000164368 0 0 0 0 0 0 0 0 0 0 0 0 0 0 0 0 0 38 0.002 
1123 3 0.00999642 0.107956 -0.022645 0 0 0 0.307061 -0.173024 0.164336 -4.57779e-05 0.000234851 0.000100754 0 0 0 0 0 0 0 1 0 0 0 0 0 0 0 0 9 0.002 
589 5 0.0107305 0.0824893 -0.021669 0 0 0 -0.816235 -0.0138991 -1.04285 0 -0.000164368 0 0 0 0 0 0 0 0 0 0 0 0 0 0 0 0 0 35 0.002 
1287 2 0.00600103 0.0963308 -0.020779 0 0 0 0.350319 -0.151297 0.342346 0 -0.000164368 0 0 0 0 0 0 0 0 0 0 0 0 0 0 0 0 0 1 0.002 
997 6 0.00353927 0.102205 -0.0211253 0 0 0 0.0932337 -0.0720346 0.329137 0 -0.000164368 0 0 0 0 0 0 0 0 0 0 0 0 0 0 0 0 0 22 0.002 
972 3 0.00571003 0.107797 -0.0219355 0 0 0 0.159683 0.397269 -0.163542 0 -0.000164368 0 0 0 0 0 0 0 0 0 0 0 0 0 0 0 0 0 26 0.002 
305 5 0.00873962 0.0850249 -0.0171183 0 0 0 0.388736 -0.364436 -0.17306 0 -0.000164368 0 0 0 0 0 0 0 0 0 0 0 0 0 0 0 0 0 42 0.002 
261 1 0.00742447 0.0937266 -0.0138692 0 0 0 0.140821 -1.1745 1.31592 0 -0.000164368 0 0 0 0 0 0 0 0 0 0 0 0 0 0 0 0 0 38 0.002 
1043 8 0.00470058 0.107983 -0.0138409 0 0 0 0.579116 -0.387892 0.203696 0 -0.000164368 0 0 0 0 0 0 0 0 0 0 0 0 0 0 0 0 0 13 0.002 
726 1 0.0100595 0.106314 -0.0124704 0 0 0 -1.90228 0.771369 1.78437 0 -0.000164368 0 0 0 0 0 0 0 0 0 0 0 0 0 0 0 0 0 37 0.002 
1100 2 0.0134435 0.0986664 -0.0112726 0 0 0 1.30768 -0.267153 -0.564115 0 -0.000164368 0 0 0 0 0 0 0 0 0 0 0 0 0 0 0 0 0 13 0.002 
568 1 0.00306641 0.101143 -0.0119471 0 0 0 -0.211641 -0.445158 -0.108661 0 -0.000164368 0 0 0 0 0 0 0 0 0 0 0 0 0 0 0 0 0 16 0.002 
1201 4 0.0180801 0.103792 -0.0110093 0 0 0 0.522016 0.694358 3.10603 0 -0.000164368 0 0 0 0 0 0 0 0 0 0 0 0 0 0 0 0 0 3 0.002 
937 4 0.0051502 0.0867253 -0.0093265 0 0 0 -8.69196 3.10756 -2.62839 0 -0.000164368 0 0 0 0 0 0 0 0 0 0 0 0 0 0 0 0 0 21 0.002 
1166 1 0.00299076 0.0910817 -0.00873631 0 0 0 0.020394 -0.460239 0.158456 0.0118414 -0.00470546 0.00379911 0 0 0 0 0 0 0 0 0 0 0 0 0 0 0 0 7 0.002 
336 9 0.00689417 0.10386 -0.0103534 0 0 0 -0.176754 -0.216087 0.384745 0 -0.000164368 0 0 0 0 0 0 0 0 0 0 0 0 0 0 0 0 0 45 0.002 
1292 9 0.00627253 0.107584 -0.00893487 0 0 0 0.000709999 -0.0522469 0.21314 0 -0.000164368 0 0 0 0 0 0 0 0 0 0 0 0 0 0 0 0 0 1 0.002 
987 4 0.0110954 0.10707 -0.00867316 0 0 0 0.0799609 -0.137517 0.310397 0 -0.000164368 0 0 0 0 0 0 0 0 0 0 0 0 0 0 0 0 0 15 0.002 
377 4 0.0132338 0.0779516 -0.00861513 0 0 0 -0.718134 -0.348244 -0.797598 0 -0.000164368 0 0 0 0 0 0 0 0 0 0 0 0 0 0 0 0 0 52 0.002 
1244 12 0.0161596 0.084152 -0.00587019 0 0 0 0.950026 0.639792 -1.84272 0 -0.000164368 0 0 0 0 0 0 0 0 0 0 0 0 0 0 0 0 0 7 0.002 
1253 2 0.00984627 0.0995252 -0.00627423 0 0 0 -0.00989825 -0.169286 -0.52271 0 -0.000164368 0 0 0 0 0 0 0 0 0 0 0 0 0 0 0 0 0 1 0.002 
140 4 0.00370273 0.10447 -0.0060898 0 0 0 0.177505 -0.0730143 0.024268 0 -0.000164368 0 0 0 0 0 0 0 0 0 0 0 0 0 0 0 0 0 39 0.002 
938 2 0.00995595 0.0938123 -0.00228607 0 0 0 -0.344016 -0.424272 0.698624 0 -0.000164368 0 0 0 0 0 0 0 0 0 0 0 0 0 0 0 0 0 14 0.002 
639 9 0.00292387 0.107886 -0.00358897 0 0 0 0.102368 -0.231847 0.337454 0.311042 0.00589398 -0.00591971 0 0 0 0 0 0 0 0 0 0 0 0 0 0 0 0 44 0.002 
395 6 0.00621444 0.0757332 0.000268079 0 0 0 0.430244 -0.755175 0.410885 0 -0.000164368 0 0 0 0 0 0 0 0 0 0 0 0 0 0 0 0 0 52 0.002 
920 3 0.0143776 0.0862154 -0.000584771 0 0 0 0.315245 1.93824 -1.10834 0 -0.000164368 0 0 0 0 0 0 0 0 0 0 0 0 0 0 0 0 0 23 0.002 
989 4 0.0146786 0.101639 0.000215646 0 0 0 -0.384541 -1.10954 2.40382 0 -0.000164368 0 0 0 0 0 0 0 0 0 0 0 0 0 0 0 0 0 12 0.002 
1062 4 0.00464392 0.105861 -0.000287917 0 0 0 -3.21056 -0.324449 1.92042 0 -0.000164368 0 0 0 0 0 0 0 0 0 0 0 0 0 0 0 0 0 19 0.002 
961 1 0.0179281 0.0860048 0.00233393 0 0 0 -0.265006 0.892739 -0.794701 0 -0.000164368 0 0 0 0 0 0 0 0 0 0 0 0 0 0 0 0 0 15 0.002 
801 5 0.0136193 0.0924192 0.00153079 0 0 0 0.0547776 -0.559189 0.739805 0 -0.000164368 0 0 0 0 0 0 0 0 0 0 0 0 0 0 0 0 0 29 0.002 
1092 4 0.0103942 0.0949097 0.00326058 0 0 0 -0.0706703 -0.366779 0.558089 0 -0.000164368 0 0 0 0 0 0 0 0 0 0 0 0 0 0 0 0 0 12 0.002 
1117 1 0.00605567 0.0975978 0.00189854 0 0 0 0.450181 0.0405016 0.862469 0 -0.000164368 0 0 0 0 0 0 0 0 0 0 0 0 0 0 0 0 0 0 0.002 
225 4 0.0153503 0.0968331 0.00339215 0 0 0 -2.37616 -0.635455 1.17291 0 -0.000164368 0 0 0 0 0 0 0 0 0 0 0 0 0 0 0 0 0 22 0.002 
570 1 0.0134487 0.104785 0.00247924 0 0 0 -0.397188 -0.68658 1.28692 0 -0.000164368 0 0 0 0 0 0 0 0 0 0 0 0 0 0 0 0 0 36 0.002 
846 5 0.00426109 0.106656 0.00430976 0 0 0 -2.14832 0.514454 3.96507 0 -0.000164368 0 0 0 0 0 0 0 0 0 0 0 0 0 0 0 0 0 16 0.002 
888 1 0.016068 0.10786 0.00195667 0 0 0 -0.194457 -0.450686 1.54097 0 -0.000164368 0 0 0 0 0 0 0 0 0 0 0 0 0 0 0 0 0 29 0.002 
1153 8 0.0187385 0.0811876 0.0038853 0 0 0 -0.000328226 0.0860756 -0.0552074 0 -0.000164368 0 0 0 0 0 0 0 0 0 0 0 0 0 0 0 0 0 24 0.002 
926 2 0.0039481 0.093036 0.00374806 0 0 0 0.375922 -0.259991 -0.49827 0 -0.000164368 0 0 0 0 0 0 0 0 0 0 0 0 0 0 0 0 0 23 0.002 
685 7 0.00760539 0.100963 0.00505941 0 0 0 0.484478 0.558527 0.621216 0 -0.000164368 0 0 0 0 0 0 0 0 0 0 0 0 0 0 0 0 0 32 0.002 
446 9 0.00562264 0.07867 0.00660263 0 0 0 -0.211532 0.208587 -0.811534 0 -0.000164368 0 0 0 0 0 0 0 0 0 0 0 0 0 0 0 0 0 54 0.002 
1202 4 0.0165724 0.105191 0.00763331 0 0 0 -0.183756 -0.31382 0.99749 0 -0.000164368 0 0 0 0 0 0 0 0 0 0 0 0 0 0 0 0 0 1 0.002 
834 3 0.0141371 0.0783083 0.00930825 0 0 0 -1.10756 -0.148998 -0.391518 0 -0.000164368 0 0 0 0 0 0 0 0 0 0 0 0 0 0 0 0 0 31 0.002 
967 2 0.0133952 0.0848819 0.00851164 0 0 0 -0.045574 -0.241772 -0.345634 0 -0.000164368 0 0 0 0 0 0 0 0 0 0 0 0 0 0 0 0 0 17 0.002 
151 8 0.00376689 0.0943732 0.00870404 0 0 0 0.223466 -0.067793 -0.215379 0 -0.000164368 0 0 0 0 0 0 0 0 0 0 0 0 0 0 0 0 0 21 0.002 
327 3 0.0042696 0.0990906 0.00790828 0 0 0 -1.02787 0.0818732 0.120111 0 -0.000164368 0 0 0 0 0 0 0 0 0 0 0 0 0 0 0 0 0 9 0.002 
222 8 0.015475 0.100273 0.00969647 0 0 0 -0.00646779 -0.374745 0.58542 0 -0.000164368 0 0 0 0 0 0 0 0 0 0 0 0 0 0 0 0 0 31 0.002 
1309 2 0.00577188 0.0874949 -0.00271275 0 0 0 -22.4603 6.76807 25.9984 0 -0.000164368 0 0 0 0 0 0 0 0 0 0 0 0 0 0 0 0 0 0 0.002 
536 2 0.0182507 0.0783825 -0.0193222 0 0 0 -1.55968 2.56614 -4.42775 0 -0.000164368 0 0 0 0 0 0 0 0 0 0 0 0 0 0 0 0 0 41 0.002 
321 7 0.00715243 0.0762869 0.00987757 0 0 0 -0.192323 0.354062 -0.657196 0 -0.000164368 0 0 0 0 0 0 0 0 0 0 0 0 0 0 0 0 0 37 0.002 
597 6 0.0148345 0.0750475 0.00624335 0 0 0 1.04946 0.517892 -2.04598 0 -0.000164368 0 0 0 0 0 0 0 0 0 0 0 0 0 0 0 0 0 49 0.002 
1229 6 0.00302023 0.0766868 0.0114429 0 0 0 0.0199686 -0.25831 -0.416717 0 -0.000164368 0 0 0 0 0 0 0 0 0 0 0 0 0 0 0 0 0 5 0.002 
1156 1 0.0112901 0.107342 0.0330004 0 0 0 -0.0157897 -0.000895299 0.00248849 7.65584e-05 -0.00011137 0.000374706 1 0 0 0 0 0 0 0 0 0 0 0 0 0 0 0 8 0.002 
941 3 0.00995189 0.0789438 0.0119062 0 0 0 0.0616915 0.231004 -0.400022 0 -0.000164368 0 0 0 0 0 0 0 0 0 0 0 0 0 0 0 0 0 30 0.002 
297 3 0.0034599 0.080749 0.0103107 0 0 0 0.0686541 -0.0877319 -0.346437 0 -0.000164368 0 0 0 0 0 0 0 0 0 0 0 0 0 0 0 0 0 43 0.002 
467 1 0.00952154 0.0869402 0.01174 0 0 0 0.102147 -0.232732 -0.0724021 0 -0.000164368 0 0 0 0 0 0 0 0 0 0 0 0 0 0 0 0 0 41 0.002 
871 2 0.00435863 0.0890763 0.0107291 0 0 0 -0.0738432 -0.12773 0.040507 0 -0.000164368 0 0 0 0 0 0 0 0 0 0 0 0 0 0 0 0 0 16 0.002 
1250 6 0.015673 0.0930352 0.0100049 0 0 0 -1.09914 1.1156 -0.203787 0 -0.000164368 0 0 0 0 0 0 0 0 0 0 0 0 0 0 0 0 0 3 0.002 
560 4 0.00990394 0.093831 0.0109037 0 0 0 -0.162474 0.0883165 -0.221285 0 -0.000164368 0 0 0 0 0 0 0 0 0 0 0 0 0 0 0 0 0 30 0.002 
827 2 0.00699331 0.0817985 0.0123167 0 0 0 0.0589732 -0.229752 -0.348749 0 -0.000164368 0 0 0 0 0 0 0 0 0 0 0 0 0 0 0 0 0 25 0.002 
1185 6 0.0110789 0.083413 0.0133014 0 0 0 -0.644938 0.0710542 -0.309848 0 -0.000164368 0 0 0 0 0 0 0 0 0 0 0 0 0 0 0 0 0 8 0.002 
606 4 0.00304661 0.0843358 0.0121868 0 0 0 0.0248764 -0.370247 -0.242085 0 -0.000164368 0 0 0 0 0 0 0 0 0 0 0 0 0 0 0 0 0 54 0.002 
1212 1 0.00564042 0.0869222 0.0139247 0 0 0 -0.0459868 -0.225295 -0.336944 0 -0.000164368 0 0 0 0 0 0 0 0 0 0 0 0 0 0 0 0 0 10 0.002 
927 3 0.0143046 0.0898098 0.013217 0 0 0 -0.139558 0.0274049 0.112312 0 -0.000164368 0 0 0 0 0 0 0 0 0 0 0 0 0 0 0 0 0 21 0.002 
574 5 0.00599059 0.0965315 0.0126141 0 0 0 -0.332882 -0.234259 0.0376217 0 -0.000164368 0 0 0 0 0 0 0 0 0 0 0 0 0 0 0 0 0 26 0.002 
84 8 0.0108073 0.104344 0.0135977 0 0 0 -0.0420406 -0.0449032 0.203442 0 -0.000164368 0 0 0 0 0 0 0 0 0 0 0 0 0 0 0 0 0 47 0.002 
192 7 0.0179221 0.106418 0.0133373 0 0 0 -0.135683 -0.135308 1.11896 0 -0.000164368 0 0 0 0 0 0 0 0 0 0 0 0 0 0 0 0 0 49 0.002 
126 2 0.00589443 0.0771124 0.0148945 0 0 0 -0.056901 -0.0771994 -0.29598 -0.000603163 0.000425048 0.00122759 0 0 0 0 0 0 0 0 0 0 0 0 0 0 0 0 32 0.002 
319 4 0.0105313 0.0798926 0.0165555 0 0 0 -0.397507 -0.293974 -0.14296 0 -0.000164368 0 0 0 0 0 0 0 0 0 0 0 0 0 0 0 0 0 9 0.002 
406 5 0.0165802 0.0824105 0.0151317 0 0 0 -0.326807 -0.324812 -0.0382439 0 -0.000164368 0 0 0 0 0 0 0 0 0 0 0 0 0 0 0 0 0 50 0.002 
1136 1 0.011644 0.0889135 0.0160718 0 0 0 -0.0366379 -0.150644 0.1752 0 -0.000164368 0 0 0 0 0 0 0 0 0 0 0 0 0 0 0 0 0 18 0.002 
481 2 0.00299412 0.088988 0.0166217 0 0 0 0.047897 -0.255168 -0.109039 -0.00137842 -0.00103402 0.00160655 0 1 0 0 0 0 0 0 0 0 0 0 0 0 0 0 24 0.002 
1133 6 0.00598102 0.0909324 0.0148109 0 0 0 -0.180742 -0.221358 -0.212294 0.00415489 0.000698837 -0.000718249 0 1 0 0 0 0 0 0 0 0 0 0 0 0 0 0 8 0.002 
696 4 0.00855563 0.0944839 0.0152594 0 0 0 0.00879113 -0.134265 -0.102634 -0.000303114 6.61671e-05 -0.0010738 0 0 0 1 0 0 0 0 0 0 0 0 0 0 0 0 45 0.002 
721 5 0.0128472 0.0952918 0.0151831 0 0 0 0.0843158 -0.017924 -0.332125 0 -0.000164368 0 0 0 0 0 0 0 0 0 0 0 0 0 0 0 0 0 37 0.002 
650 3 0.00308167 0.0979034 0.0165434 0 0 0 0.0567242 0.0328707 0.148689 0 -0.000164368 0 0 0 0 0 0 0 0 0 0 0 0 0 0 0 0 0 43 0.002 
1026 6 0.00706573 0.104719 0.0151664 0 0 0 -0.0347868 0.246524 0.489916 0 -0.000164368 0 0 0 0 0 0 0 0 0 0 0 0 0 0 0 0 0 29 0.002 
959 6 0.00899626 0.0761672 0.0174981 0 0 0 -0.278544 -0.334556 -0.0194219 0.000302752 -0.00188648 -0.000480576 0 0 0 0 0 1 0 0 0 0 0 0 0 0 0 0 37 0.002 
1009 1 0.0151154 0.077115 0.0175541 0 0 0 0.00401273 -0.124292 -0.133373 0 -0.000164368 0 0 0 0 0 0 0 0 0 0 0 0 0 0 0 0 0 12 0.002 
1223 2 0.00320543 0.0793409 0.0168431 0 0 0 -0.0558076 -0.10174 -0.133843 0.000603163 -0.000753785 -0.00122759 0 0 0 0 0 0 0 0 0 0 0 0 0 0 0 0 4 0.002 
902 3 0.0144622 0.0817227 0.0189742 0 0 0 -0.12069 -0.169447 -0.0214336 0.000139105 -0.000190479 -0.00055036 0 0 0 0 0 0 0 0 0 0 0 0 0 0 0 0 22 0.002 
891 2 0.0180439 0.0797871 0.0181432 0 0 0 0.00772866 -0.07257 -0.0929196 0 -0.000164368 0 0 0 0 0 0 0 0 0 0 0 0 0 0 0 0 0 18 0.002 
245 1 0.00765636 0.0829214 0.0168429 0 0 0 -0.0438854 -0.227804 -0.278286 0 -0.000164368 0 0 0 0 0 0 0 0 0 0 0 0 0 0 0 0 0 34 0.002 
674 10 0.00390538 0.0842683 0.0172668 0 0 0 -0.15058 -0.222366 -0.0366706 0 -0.000164368 0 0 0 0 0 0 0 0 0 0 0 0 0 0 0 0 0 31 0.002 
128 4 0.0118759 0.0847014 0.0177756 0 0 0 -0.0254994 -0.0770611 -0.236779 0 -0.000164368 0 0 0 0 0 0 0 0 0 0 0 0 0 0 0 0 0 46 0.002 
286 14 0.0177112 0.084453 0.0185561 0 0 0 0.000739992 -0.204344 -0.110858 0 -0.000164368 0 0 0 0 0 0 0 0 0 0 0 0 0 0 0 0 0 51 0.002 
179 1 0.00829432 0.0869012 0.0169439 0 0 0 -0.142649 -0.113464 -0.193848 0 -0.000164368 0 0 0 0 0 0 0 0 0 0 0 0 0 0 0 0 0 37 0.002 
20 3 0.0154294 0.0876547 0.0173726 0 0 0 -0.0412238 -0.222998 -0.0703184 0 -0.000164368 0 0 0 0 0 0 0 0 0 0 0 0 0 0 0 0 0 42 0.002 
224 5 0.00902329 0.0920574 0.0183958 0 0 0 -0.0605999 -0.12722 -0.0142244 0.00268799 0.00116643 0.000379595 0 0 0 1 2 0 0 0 0 0 0 0 0 0 0 0 54 0.002 
70 6 0.0168974 0.0927074 0.0170807 0 0 0 -0.131466 -0.0859562 -0.152467 0 -0.000164368 0 0 0 0 0 0 0 0 0 0 0 0 0 0 0 0 0 41 0.002 
680 6 0.00406946 0.0936986 0.0175437 0 0 0 -0.0625322 -0.120261 -0.0176751 0 -0.000164368 0 0 0 0 0 0 0 0 0 0 0 0 0 0 0 0 0 53 0.002 
931 4 0.0177392 0.0967741 0.0184097 0 0 0 -0.105102 -0.123735 0.134546 0 -0.000164368 0 0 0 0 0 0 0 0 0 0 0 0 0 0 0 0 0 21 0.002 
1237 4 0.00814934 0.0984136 0.0188386 0 0 0 -0.0379774 -0.315833 -0.101866 0 -0.000164368 0 0 0 0 0 0 0 0 0 0 0 0 0 0 0 0 0 1 0.002 
907 8 0.00574409 0.102033 0.0179372 0 0 0 0.183279 0.00363366 0.319884 0 -0.000164368 0 0 0 0 0 0 0 0 0 0 0 0 0 0 0 0 0 29 0.002 
107 2 0.0113437 0.10234 0.0173256 0 0 0 0.00217358 -0.226709 0.149869 0 -0.000164368 0 0 0 0 0 0 0 0 0 0 0 0 0 0 0 0 0 29 0.002 
707 2 0.00347905 0.105479 0.017019 0 0 0 -0.287997 -0.225932 0.192764 0 -0.000164368 0 0 0 0 0 0 0 0 0 0 0 0 0 0 0 0 0 51 0.002 
1302 3 0.017597 0.107794 0.0179352 0 0 0 0.356147 0.0956388 0.253504 0 -0.000164368 0 0 0 0 0 0 0 0 0 0 0 0 0 0 0 0 0 0 0.002 
278 11 0.0031492 0.0773952 0.0205444 0 0 0 0.0548098 0.01011 0.0888029 0 -0.000164368 0 0 0 0 0 0 0 0 0 0 0 0 0 0 0 0 0 49 0.002 
1193 8 0.00700889 0.0790366 0.0194335 0 0 0 -0.0229916 0.0443925 -0.169092 0.00359142 -0.00303945 -0.00291106 0 0 0 0 0 1 0 1 0 0 0 0 0 0 0 0 26 0.002 
601 8 0.0106408 0.0773273 0.021001 0 0 0 -0.0301934 -0.155863 -0.0629633 0 -0.000164368 0 0 0 0 0 0 0 0 0 0 0 0 0 0 0 0 0 35 0.002 
661 2 0.00598203 0.0827397 0.020513 0 0 0 -0.0979837 -0.0353959 -0.138587 -0.00368244 0.00291763 0.00330656 0 1 0 0 0 0 0 1 0 0 0 0 0 0 0 0 26 0.002 
287 6 0.0106958 0.0879812 0.020176 0 0 0 -0.0898486 -0.170509 -0.0539466 0 -0.000164368 0 0 0 0 0 0 0 0 0 0 0 0 0 0 0 0 0 35 0.002 
1215 2 0.0063683 0.0892967 0.0195121 0 0 0 -0.0243897 -0.172535 0.0221229 -0.0044291 -0.00215264 -0.000165688 0 1 0 0 1 0 0 0 0 0 0 0 0 0 0 0 3 0.002 
887 1 0.00304628 0.0921808 0.0211041 0 0 0 -0.00820972 -0.140691 0.024115 -0.000115727 7.6186e-05 1.0206e-05 1 0 0 0 0 0 0 0 0 0 0 0 0 0 0 0 25 0.002 
658 8 0.0128593 0.0928116 0.0191876 0 0 0 0.00681256 0.00451246 0.0132089 0.00216922 0.00114541 5.66086e-05 0 0 0 0 1 0 0 0 0 0 0 0 0 0 0 0 33 0.002 
1001 4 0.00648615 0.0943026 0.0207916 0 0 0 -0.0189733 -0.233078 0.00331035 0 -0.000164368 0 0 0 0 0 0 0 0 0 0 0 0 0 0 0 0 0 28 0.002 
1273 2 0.0137611 0.0978743 0.0195732 0 0 0 -0.263429 -0.236069 0.0437067 0 -0.000164368 0 0 0 0 0 0 0 0 0 0 0 0 0 0 0 0 0 0 0.002 
176 2 0.00324126 0.099719 0.0201373 0 0 0 0.0709504 -0.170352 0.10771 0.000262121 0.00041536 -8.60671e-05 0 0 0 0 0 0 0 0 0 0 0 0 0 0 0 0 40 0.002 
1099 2 0.0119369 0.101535 0.0212719 0 0 0 -0.0808325 -0.259878 0.214932 0 -0.000164368 0 0 0 0 0 0 0 0 0 0 0 0 0 0 0 0 0 14 0.002 
76 2 0.0165286 0.101913 0.0202561 0 0 0 -0.0823626 -0.212386 -0.171736 0 -0.000164368 0 0 0 0 0 0 0 0 0 0 0 0 0 0 0 0 0 32 0.002 
1051 10 0.00309711 0.106799 0.0211555 0 0 0 -0.0279033 -0.0630677 0.0843891 -0.000965447 6.28009e-05 -0.000188105 0 0 0 0 0 0 0 0 0 1 0 0 0 0 0 0 18 0.002 
1290 7 0.00687769 0.105979 0.019512 0 0 0 -0.0703167 -0.135047 0.00782341 0 -0.000164368 0 0 0 0 0 0 0 0 0 0 0 0 0 0 0 0 0 0 0.002 
503 7 0.00635903 0.0753299 0.0229866 0 0 0 0.0150009 -0.0924696 -0.00556425 0.00154086 0.00209325 0.00321379 0 0 0 0 0 0 2 0 0 0 0 0 0 0 0 0 45 0.002 
583 1 0.0163989 0.0770361 0.0219495 0 0 0 0.0392135 -0.262581 -0.162435 0 -0.000164368 0 0 0 0 0 0 0 0 0 0 0 0 0 0 0 0 0 51 0.002 
262 3 0.0132633 0.0801293 0.0224376 0 0 0 -0.0304376 -0.082165 0.0731492 -0.000139105 -0.000138257 0.00055036 0 0 0 0 0 0 0 0 0 0 0 0 0 0 0 0 40 0.002 
934 1 0.0171419 0.081078 0.0219926 0 0 0 -0.298004 -0.085672 -0.108612 0.00510681 -0.00130628 -0.00653349 2 0 0 0 0 0 0 0 0 0 0 0 0 0 0 0 34 0.002 
1077 1 0.00987325 0.0834008 0.0211985 0 0 0 -0.0348552 -0.0643477 -0.152928 0 -0.000164368 0 0 0 0 0 0 0 0 0 0 0 0 0 0 0 0 0 13 0.002 
1025 4 0.0137476 0.0842351 0.0221118 0 0 0 -0.00303853 -0.179393 -0.0515798 0 -0.000164368 0 0 0 0 0 0 0 0 0 0 0 0 0 0 0 0 0 27 0.002 
582 7 0.00300725 0.0844081 0.0228034 0 0 0 -0.0198628 -0.130776 0.0557526 -0.00272338 -0.000302049 0.000771546 0 0 0 0 0 0 1 0 0 0 0 0 0 0 0 0 33 0.002 