ITEM: TIMESTEP
10000000
ITEM: NUMBER OF ATOMS
17241
ITEM: BOX BOUNDS ff ff ff
-0.01 0.45
-0.15 0.15
-0.08 0.1
ITEM: ATOMS id type x y z ix iy iz vx vy vz fx fy fz c_cc_1 c_cc_2 c_cc_3 c_cc_4 c_cc_5 c_cc_6 c_cc_7 c_cc_8 c_cc_9 c_cc_10 c_cc_11 c_cc_12 c_cc_13 c_cc_14 c_cc_15 c_cc_16 f_fppacc radius c_cc_17 
6441 5 0.032359 -0.0138967 -0.0592055 0 0 0 0.021533 -0.535133 0.206182 0 -1.05196e-05 0 0 0 0 0 0 0 0 0 0 0 0 0 0 0 0 0 65 0.0008 0 
8826 3 0.0197121 -0.0113452 -0.0555258 0 0 0 1.0338 -6.57845 1.23229 0 -1.05196e-05 0 0 0 0 0 0 0 0 0 0 0 0 0 0 0 0 0 73 0.0008 0 
18210 9 0.0278138 -0.0332653 -0.0487404 0 0 0 -3.95444 -18.4269 10.4203 0 -1.05196e-05 0 0 0 0 0 0 0 0 0 0 0 0 0 0 0 0 0 0 0.0008 0 
16394 2 0.00799473 -0.0085969 -0.0581006 0 0 0 0.70435 -8.22483 4.67452 0 -1.05196e-05 0 0 0 0 0 0 0 0 0 0 0 0 0 0 0 0 0 15 0.0008 0 
13338 7 0.00318113 -0.0280328 -0.0513678 0 0 0 0.24604 -6.22023 2.77641 0 -1.05196e-05 0 0 0 0 0 0 0 0 0 0 0 0 0 0 0 0 0 36 0.0008 0 
7988 8 0.0452961 -0.0376563 -0.0450276 0 0 0 2.85237 -2.84812 2.4083 0 -1.05196e-05 0 0 0 0 0 0 0 0 0 0 0 0 0 0 0 0 0 71 0.0008 0 
7081 8 0.010514 -0.0440588 -0.0386457 0 0 0 0.259168 -8.0414 11.087 0 -1.05196e-05 0 0 0 0 0 0 0 0 0 0 0 0 0 0 0 0 0 59 0.0008 0 
15707 4 0.00614432 -0.0434506 -0.0392724 0 0 0 -7.63088 -10.8959 11.3522 0 -1.05196e-05 0 0 0 0 0 0 0 0 0 0 0 0 0 0 0 0 0 16 0.0008 0 
12053 7 0.00602851 -0.035732 -0.0418108 0 0 0 0.579797 -6.03065 4.1305 0 -1.05196e-05 0 0 0 0 0 0 0 0 0 0 0 0 0 0 0 0 0 57 0.0008 0 
6919 5 0.0134512 -0.0345877 -0.0433047 0 0 0 0.451064 -6.05498 1.82587 0 -1.05196e-05 0 0 0 0 0 0 0 0 0 0 0 0 0 0 0 0 0 82 0.0008 0 
5893 5 0.0166731 -0.0432235 -0.0397402 0 0 0 -0.629145 -5.99192 7.38632 0 -1.05196e-05 0 0 0 0 0 0 0 0 0 0 0 0 0 0 0 0 0 31 0.0008 0 
13911 4 0.0342707 -0.044313 -0.0358664 0 0 0 0.904302 -2.00409 2.47001 0 -1.05196e-05 0 0 0 0 0 0 0 0 0 0 0 0 0 0 0 0 0 37 0.0008 0 
14272 5 0.0408231 -0.0486298 -0.0334401 0 0 0 2.63892 -3.46927 3.56103 -0.00761643 0.0248009 0.00476096 0 0 0 0 0 0 0 0 0 0 0 0 0 0 0 0 32 0.0008 0 
5154 1 0.0153248 -0.0370394 -0.0310213 0 0 0 0.978524 -1.96079 8.08655 0 -1.05196e-05 0 0 0 0 0 0 0 0 0 0 0 0 0 0 0 0 0 60 0.0008 0 
18682 3 0.00229093 -0.0497777 -0.0307841 0 0 0 0.463289 -3.16054 4.43671 0 -3.55035e-05 0 0 0 0 0 0 0 0 0 0 0 0 0 0 0 0 0 0 0.0012 0 
18580 2 0.0189708 -0.0551813 -0.0193969 0 0 0 -1.22087 -9.86488 30.064 0 -3.55035e-05 0 0 0 0 0 0 0 0 0 0 0 0 0 0 0 0 0 0 0.0012 0 
8490 8 0.0147855 -0.0477108 -0.0275172 0 0 0 0.590956 -6.18818 9.3438 0 -1.05196e-05 0 0 0 0 0 0 0 0 0 0 0 0 0 0 0 0 0 77 0.0008 0 
11820 2 0.00971468 -0.0535168 -0.0251543 0 0 0 3.47282 -3.45825 12.7523 -0.013068 0.0511814 0.0213385 0 0 0 0 0 0 0 0 0 0 0 0 0 0 0 0 55 0.0008 0 
7605 5 0.0145726 -0.0515809 -0.0283834 0 0 0 -0.72579 -3.81887 6.88866 0 -1.05196e-05 0 0 0 0 0 0 0 0 0 0 0 0 0 0 0 0 0 79 0.0008 0 
12815 2 0.0312022 -0.0512762 -0.0281091 0 0 0 -0.653023 -4.44441 6.25617 0 -1.05196e-05 0 0 0 0 0 0 0 0 0 0 0 0 0 0 0 0 0 19 0.0008 0 
12335 5 0.0254374 -0.0551894 -0.0262236 0 0 0 -0.149903 -0.0192171 0.0496052 -7.95477e-18 -9.80505e-07 2.53098e-06 0 0 0 0 0 0 0 0 0 0 0 0 0 0 0 0 11 0.0008 0 
17120 6 0.0163401 -0.0560855 -0.0179381 0 0 0 -2.05123 -3.39981 9.65943 0 -1.05196e-05 0 0 0 0 0 0 0 0 0 0 0 0 0 0 0 0 0 12 0.0008 0 
13761 6 0.0260515 -0.0530382 -0.0130832 0 0 0 -8.51942 -9.11699 17.4716 0 -1.05196e-05 0 0 0 0 0 0 0 0 0 0 0 0 0 0 0 0 0 42 0.0008 0 
16464 1 0.0286639 -0.058073 -0.00912386 0 0 0 -4.63564 -2.4888 19.038 0 -1.05196e-05 0 0 0 0 0 0 0 0 0 0 0 0 0 0 0 0 0 22 0.0008 0 
702 2 0.0331715 -0.0585762 -0.0174812 0 0 0 -0.0775241 -0.0318586 0.0822364 1.02781e-17 -9.80505e-07 2.53098e-06 0 0 0 0 0 0 0 0 0 0 0 0 0 0 0 0 64 0.0008 0 
9644 2 0.038336 -0.0592083 -0.0148455 0 0 0 -0.0916341 -0.0194731 0.0758117 0 -1.05196e-05 0 0 0 0 0 0 0 0 0 0 0 0 0 0 0 0 0 14 0.0008 0 
13872 3 0.0401975 -0.0590075 -0.0159613 0 0 0 -0.0408678 -0.00344854 0.018448 -6.09296e-18 -2.53692e-07 1.35713e-06 0 0 0 0 0 0 0 0 0 0 0 0 0 0 0 0 20 0.0008 0 
11726 4 0.0418629 -0.0590211 -0.0158881 0 0 0 -0.0489486 -0.00974802 0.0521472 -4.4197e-18 -2.53692e-07 1.35713e-06 0 0 0 0 0 0 0 0 0 0 0 0 0 0 0 0 19 0.0008 0 
17627 1 0.04568 -0.0592021 -0.0149198 0 0 0 -0.0424414 -0.0176907 0.0946366 1.01691e-18 -2.53692e-07 1.35713e-06 0 0 0 0 0 0 0 0 0 0 0 0 0 0 0 0 0 0.0008 0 
15188 4 0.0391488 -0.0594799 -0.0134341 0 0 0 0.0452282 -0.00736178 0.0401248 -2.07094e-06 -2.49968e-06 -1.72202e-06 0 0 0 0 0 0 0 0 0 0 0 0 0 0 0 0 3 0.0008 0 
14055 8 0.0425685 -0.0593276 -0.0142489 0 0 0 -0.237465 0.00145424 -0.00792149 1.78162e-09 6.62591e-07 1.53571e-06 0 0 0 0 0 0 0 0 0 0 0 0 0 0 0 0 18 0.0008 0 
2229 5 0.0169921 -0.0583581 -0.00551085 0 0 0 0.147331 -4.07384 17.2363 0 -1.05196e-05 0 0 0 0 0 0 0 0 0 0 0 0 0 0 0 0 0 76 0.0008 0 
13923 7 0.000800104 -0.059544 -0.0130912 0 0 0 4.71902e-05 0.000263763 -0.00141098 1.14481e-16 -2.53719e-07 1.35713e-06 0 0 0 0 0 0 0 0 0 0 0 0 0 0 0 0 19 0.0008 0 
11974 2 0.0273348 -0.0596429 -0.0125618 0 0 0 -0.0606713 -0.00668995 0.035788 -1.46579e-18 -2.53692e-07 1.35713e-06 0 0 0 0 0 0 0 0 0 0 0 0 0 0 0 0 17 0.0008 0 
17917 3 0.0361666 -0.0596189 -0.0126885 0 0 0 0.0136832 -0.00667053 0.0231848 3.8482e-07 -1.03568e-05 1.1905e-07 0 0 1 0 0 0 0 0 0 0 0 0 0 0 0 0 1 0.0008 0 
1313 4 0.0377647 -0.0596336 -0.0126115 0 0 0 0.014852 -0.00126693 0.00710294 -1.70994e-07 -8.20451e-07 1.16762e-06 0 0 1 0 0 0 0 0 0 0 0 0 0 0 0 0 40 0.0008 0 
15694 7 0.0414735 -0.0595834 -0.0128802 0 0 0 -0.185832 -0.018148 0.097084 4.78857e-06 -1.03804e-10 -1.34284e-08 0 0 0 0 0 0 0 0 0 0 0 0 0 0 0 0 0 0.0008 0 
16349 4 0.000799966 -0.059838 -0.011518 0 0 0 -0.000480217 0.000350358 -0.00187721 3.15096e-06 1.12833e-07 -5.50182e-07 0 0 0 1 0 0 0 0 0 0 0 0 0 0 0 0 3 0.0008 0 
14527 2 0.00293411 -0.0598867 -0.011258 0 0 0 0.0324543 -0.0125263 0.0670099 -3.05572e-18 -2.53692e-07 1.35713e-06 0 0 0 0 0 0 0 0 0 0 0 0 0 0 0 0 15 0.0008 0 
17453 12 0.0264059 -0.0599039 -0.0111655 0 0 0 -0.0283147 -0.00615821 0.0329435 6.1888e-19 -2.53692e-07 1.35713e-06 0 0 0 0 0 0 0 0 0 0 0 0 0 0 0 0 2 0.0008 0 
17465 4 0.0280411 -0.0599102 -0.0111323 0 0 0 -0.0277633 -0.00342823 0.0183394 -3.90101e-19 -2.53692e-07 1.35713e-06 0 0 0 0 0 0 0 0 0 0 0 0 0 0 0 0 0 0.0008 0 
18396 4 0.034926 -0.0598054 -0.0116928 0 0 0 -0.0100282 0.000407604 -0.00219429 2.09379e-09 -2.32926e-07 1.36156e-06 0 0 0 0 0 0 0 0 0 0 0 0 0 0 0 0 1 0.0008 0 
6537 6 0.035753 -0.0600571 -0.0103464 0 0 0 -0.0125938 8.46263e-05 -0.000481234 -3.50873e-10 -3.90851e-07 1.32074e-06 0 0 0 0 0 0 0 0 0 0 0 0 0 0 0 0 30 0.0008 0 
5801 6 0.0371564 -0.0599078 -0.0111448 0 0 0 -0.00606569 -0.000665222 0.00355862 -5.42295e-16 -2.53695e-07 1.35713e-06 0 0 0 0 0 0 0 0 0 0 0 0 0 0 0 0 38 0.0008 0 
15673 4 0.0402708 -0.0598666 -0.0113654 0 0 0 0.0243223 -0.00446875 0.0239057 -1.96743e-18 -2.53692e-07 1.35713e-06 0 0 0 0 0 0 0 0 0 0 0 0 0 0 0 0 26 0.0008 0 
8832 3 0.043517 -0.0598571 -0.0114163 0 0 0 -0.0226531 -0.00908538 0.0486024 1.18553e-18 -2.53692e-07 1.35713e-06 0 0 0 0 0 0 0 0 0 0 0 0 0 0 0 0 60 0.0008 0 
13493 8 0.0456878 -0.0598293 -0.011565 0 0 0 -0.0172992 -0.00962213 0.0514738 9.42503e-19 -2.53692e-07 1.35713e-06 0 0 0 0 0 0 0 0 0 0 0 0 0 0 0 0 61 0.0008 0 
5338 2 0.00546811 -0.0603004 -0.0090447 0 0 0 0.00514901 1.54041e-05 0.000145201 -2.32304e-08 -6.74799e-08 8.92772e-08 0 1 0 0 0 0 0 0 0 0 0 0 0 0 0 0 61 0.0008 0 
12749 3 0.0243084 -0.0603267 -0.00890385 0 0 0 -0.000152038 6.77908e-06 -1.5705e-05 -3.69418e-07 -1.30082e-08 -4.94327e-07 0 0 2 0 0 0 0 0 0 0 0 0 0 0 0 0 14 0.0008 0 
14170 7 0.00125697 -0.0601198 -0.0100108 0 0 0 0.00367124 0.000576078 -0.00316067 -1.71084e-07 -1.31884e-07 9.97181e-07 0 0 0 1 0 0 1 0 0 0 0 0 0 0 0 0 11 0.0008 0 
15555 3 0.00260352 -0.0602786 -0.00916146 0 0 0 0.00148147 -7.52753e-05 0.000504874 -6.99143e-07 -7.59162e-08 -1.9916e-07 0 0 1 0 0 0 1 0 0 0 0 0 0 0 0 0 10 0.0008 0 
15381 2 0.00700135 -0.0602162 -0.00949492 0 0 0 0.0068805 -0.000966656 0.00505516 4.42688e-11 -2.60937e-07 1.35431e-06 0 0 0 0 0 0 0 0 0 0 0 0 0 0 0 0 8 0.0008 0 
14539 6 0.0106725 -0.0601382 -0.00991222 0 0 0 0.0053707 0.000625174 -0.00334342 -9.95359e-08 -5.71214e-08 3.09178e-07 0 0 0 0 0 1 0 0 0 0 0 0 0 0 0 0 3 0.0008 0 
13193 11 0.0233772 -0.0600877 -0.0101827 0 0 0 -0.00285651 -0.00034981 0.00186943 -3.6296e-07 1.6814e-07 -8.99041e-07 0 0 1 0 0 0 0 0 0 0 0 0 0 0 0 0 28 0.0008 0 
2010 2 0.0263559 -0.060272 -0.00919639 0 0 0 -0.0128318 0.000391166 -0.00211338 3.00951e-07 -8.24929e-09 5.98745e-08 0 1 0 0 0 0 0 0 0 0 0 0 0 0 0 0 50 0.0008 0 
1903 4 0.0279465 -0.0602059 -0.00955013 0 0 0 -0.00919178 -0.00406184 0.0217289 -5.69928e-19 -2.53692e-07 1.35713e-06 0 0 0 0 0 0 0 0 0 0 0 0 0 0 0 0 85 0.0008 0 
17490 7 0.0305476 -0.0602491 -0.00931912 0 0 0 -0.000468958 0.000478945 -0.00262019 1.54412e-06 6.7071e-07 -2.21879e-06 0 0 0 0 0 0 1 0 0 0 0 0 0 0 0 0 1 0.0008 0 
18020 5 0.0322243 -0.0601759 -0.00971086 0 0 0 0.00423681 -0.00540837 0.0289322 -8.3215e-19 -2.53692e-07 1.35713e-06 0 0 0 0 0 0 0 0 0 0 0 0 0 0 0 0 1 0.0008 0 
11428 3 0.0343129 -0.0602129 -0.00951287 0 0 0 -0.00565975 -0.00268013 0.0143374 1.94429e-16 -2.53691e-07 1.35713e-06 0 0 0 0 0 0 0 0 0 0 0 0 0 0 0 0 15 0.0008 0 
10209 5 0.037603 -0.0601945 -0.00961133 0 0 0 -0.00245534 -0.000784066 0.00420935 -4.57824e-10 -2.41679e-07 1.35932e-06 0 0 0 0 0 0 0 0 0 0 0 0 0 0 0 0 34 0.0008 0 
14994 1 0.0390541 -0.0600653 -0.0103021 0 0 0 0.000118242 -0.000250848 0.00122122 -5.19254e-08 1.69962e-06 7.4528e-07 1 0 0 0 0 0 0 0 0 0 0 0 0 0 0 0 16 0.0008 0 
12382 5 0.0414692 -0.0602463 -0.00933419 0 0 0 0.0150033 -0.00101894 0.00545085 5.06092e-19 -2.53692e-07 1.35713e-06 0 0 0 0 0 0 0 0 0 0 0 0 0 0 0 0 14 0.0008 0 
12757 3 0.000815671 -0.0604128 -0.00844317 0 0 0 0.00110134 -7.63733e-07 1.03215e-05 6.25562e-09 -2.44733e-09 1.49138e-07 0 0 0 0 0 0 0 0 0 0 0 0 0 0 0 0 28 0.0008 0 
7654 8 0.00260829 -0.0605726 -0.0075888 0 0 0 -0.000450157 -9.64111e-05 0.000532905 3.97007e-07 -6.58711e-09 1.41531e-07 0 0 1 0 0 0 0 2 0 0 0 0 0 0 0 0 91 0.0008 0 
17336 10 0.00401934 -0.0604255 -0.00837531 0 0 0 0.00763875 1.98564e-05 2.49705e-05 8.44066e-08 -2.12203e-07 7.93323e-07 0 0 0 0 0 0 0 0 0 1 0 0 0 0 0 0 26 0.0008 0 
15828 4 0.00545873 -0.0605944 -0.00747202 0 0 0 -0.000141666 -0.000115332 0.000188484 3.19178e-07 3.42082e-07 1.78384e-07 0 1 0 0 0 0 0 0 0 0 0 0 0 0 0 0 14 0.0008 0 
8467 4 0.00836598 -0.06037 -0.00867248 0 0 0 0.0102508 -0.00011212 0.000763614 -4.50743e-07 -2.0842e-07 1.81291e-07 0 0 0 1 0 0 0 0 0 0 0 0 0 0 0 0 52 0.0008 0 
752 3 0.0102592 -0.0605691 -0.00760743 0 0 0 -1.01555e-05 -2.57749e-05 4.92308e-05 1.55227e-07 4.7661e-08 2.50519e-07 0 0 1 0 0 0 0 0 0 0 0 0 0 0 0 0 57 0.0008 0 
2108 4 0.0115186 -0.0603877 -0.00857742 0 0 0 -4.43398e-06 7.63482e-06 1.39738e-05 2.96445e-07 4.30501e-08 -4.42798e-09 0 0 1 1 0 1 0 0 0 0 0 0 0 0 0 0 65 0.0008 0 
7967 9 0.012805 -0.0605625 -0.00764233 0 0 0 0.000177383 2.46346e-05 -0.00017859 2.84424e-07 -3.74638e-08 -1.28742e-07 0 0 0 1 0 0 0 0 1 0 0 0 0 0 0 0 76 0.0008 0 
13645 4 0.0150424 -0.0605963 -0.00746157 0 0 0 4.40776e-06 -3.91923e-07 -1.97746e-05 8.42939e-08 1.94753e-08 1.953e-07 0 0 0 3 0 0 0 0 0 0 0 0 0 0 0 0 50 0.0008 0 
18001 5 0.0167575 -0.0603701 -0.00867189 0 0 0 0.00150956 0.000602775 -0.00316596 4.49712e-12 -1.14415e-07 1.38496e-06 0 0 0 0 0 0 0 0 0 0 0 0 0 0 0 0 0 0.0008 0 
17147 2 0.0182089 -0.0604954 -0.00800145 0 0 0 0.000827856 -8.6783e-06 0.000116036 6.1307e-08 -2.39263e-08 -9.28828e-07 0 1 0 0 0 0 0 0 0 0 0 0 0 0 0 0 7 0.0008 0 
15203 3 0.0200608 -0.0603512 -0.00877318 0 0 0 -0.000191501 6.9484e-06 -6.23166e-05 2.29736e-07 -1.69221e-08 2.57005e-08 0 0 2 0 0 0 0 0 0 0 0 0 0 0 0 0 18 0.0008 0 
15517 2 0.021319 -0.0605328 -0.00780159 0 0 0 -0.000162432 1.23105e-05 -2.93077e-05 1.4479e-07 -6.47718e-08 1.87089e-08 0 2 1 0 0 0 0 0 0 0 0 0 0 0 0 0 11 0.0008 0 
10441 10 0.0228516 -0.0604484 -0.00825316 0 0 0 -8.30553e-05 -1.90355e-05 5.49477e-05 -1.45277e-07 -4.10588e-08 5.60154e-07 0 1 0 0 0 0 0 0 0 1 0 0 0 0 0 0 46 0.0008 0 
17720 5 0.0260921 -0.060562 -0.00764522 0 0 0 2.97036e-06 -2.2887e-05 -4.20876e-06 -2.30926e-07 -1.63072e-08 8.65456e-08 0 1 0 0 2 0 0 0 0 0 0 0 0 0 0 0 5 0.0008 0 
874 2 0.0278604 -0.0605751 -0.0075754 0 0 0 -3.96722e-05 -4.74126e-06 5.11486e-05 2.61003e-07 5.46326e-08 8.51341e-07 0 1 0 0 0 0 0 0 0 0 0 0 0 0 0 0 45 0.0008 0 
4132 2 0.0291481 -0.0604005 -0.00850942 0 0 0 0.00468939 -0.00111615 0.00596876 3.127e-10 -2.59238e-07 1.35586e-06 0 0 0 0 0 0 0 0 0 0 0 0 0 0 0 0 68 0.0008 0 
9557 4 0.0306648 -0.0605423 -0.00775081 0 0 0 -0.00128479 -0.000423563 -0.00180808 1.10353e-05 9.8764e-06 -7.7701e-07 0 0 0 2 0 0 1 0 0 0 0 0 0 0 0 0 53 0.0008 0 
15810 2 0.0329669 -0.0604433 -0.00828025 0 0 0 0.0356948 -0.0038442 0.0205647 4.07041e-18 -2.53692e-07 1.35713e-06 0 0 0 0 0 0 0 0 0 0 0 0 0 0 0 0 5 0.0008 0 
8496 3 0.0345202 -0.0605402 -0.007762 0 0 0 0.000679493 -0.000374441 0.00137468 -4.63546e-09 5.54596e-07 1.50457e-06 0 0 0 0 0 0 0 0 0 0 0 0 0 0 0 0 50 0.0008 0 
8211 15 0.0357894 -0.060351 -0.00877385 0 0 0 0.0129311 -0.000469318 -0.00068283 -3.13946e-07 -4.97599e-06 -2.39571e-07 0 0 0 0 0 0 0 0 0 0 0 0 0 0 1 0 60 0.0008 0 
4489 4 0.0373845 -0.0604861 -0.00805137 0 0 0 0.000944921 -0.000160734 0.000178893 -2.71626e-09 1.91762e-06 1.76869e-06 0 0 0 0 0 0 0 0 0 0 0 0 0 0 0 0 55 0.0008 0 
9184 3 0.0389312 -0.0603585 -0.00873395 0 0 0 -8.28436e-05 -0.000127523 0.000565569 -2.02973e-08 -2.18558e-06 -6.42644e-07 1 0 1 0 0 0 0 0 0 0 0 0 0 0 0 0 62 0.0008 0 
7257 5 0.0409429 -0.0605262 -0.00783661 0 0 0 0.00465339 0.000249903 -0.0012589 2.00007e-11 -2.88334e-07 1.35119e-06 0 0 0 0 0 0 0 0 0 0 0 0 0 0 0 0 25 0.0008 0 
924 3 0.0427518 -0.0604241 -0.00838275 0 0 0 0.0219709 0.000350388 -0.00187441 5.73929e-19 -2.53692e-07 1.35713e-06 0 0 0 0 0 0 0 0 0 0 0 0 0 0 0 0 50 0.0008 0 
18698 3 0.00631381 -0.0585503 -0.00385831 0 0 0 0.259879 0.556124 7.9958 -1.45834e-05 -0.0145865 0.00214416 0 0 0 0 0 0 0 0 0 0 0 0 0 0 0 0 0 0.0012 0 
3129 3 0.000811027 -0.0607068 -0.0068705 0 0 0 0.00110849 -4.73758e-06 5.50083e-06 9.66744e-09 -3.04484e-08 2.8479e-08 0 0 1 0 0 0 0 0 0 0 0 0 0 0 0 0 36 0.0008 0 
8040 3 0.00219343 -0.0608565 -0.00606984 0 0 0 -9.6928e-05 1.27716e-06 2.21779e-05 -9.24273e-07 -1.04211e-07 1.318e-06 0 0 1 0 0 0 0 1 0 0 0 0 0 0 0 0 100 0.0008 0 
14580 12 0.00399406 -0.0607195 -0.00680282 0 0 0 -0.000313957 -4.4236e-05 5.1982e-06 1.93422e-07 -2.68328e-07 8.25173e-07 0 0 0 0 0 0 0 1 0 1 0 2 0 0 0 0 47 0.0008 0 
12332 2 0.0067653 -0.0607642 -0.00656386 0 0 0 -0.000196957 -2.27953e-06 -8.61094e-07 2.80467e-07 7.92635e-08 7.57318e-10 0 1 0 0 0 0 0 0 0 0 0 0 0 0 0 0 47 0.0008 0 
17589 11 0.00826858 -0.0606634 -0.00710269 0 0 0 0.000134227 -1.49739e-05 4.28679e-05 7.0218e-07 3.15529e-07 8.2858e-07 0 0 0 1 0 0 0 0 0 0 2 0 0 0 0 0 23 0.0008 0 
16821 3 0.00957017 -0.0608344 -0.00618807 0 0 0 -1.00308e-05 -1.20447e-05 9.87069e-05 1.79989e-08 -1.89527e-07 1.82178e-07 0 0 2 0 0 0 0 0 0 0 1 0 0 0 0 0 23 0.0008 0 
15785 4 0.0115167 -0.0607528 -0.0066247 0 0 0 7.78737e-05 1.40451e-05 -5.52636e-05 -3.64511e-07 -6.51078e-08 -2.9421e-08 0 0 0 2 0 0 0 0 0 0 0 0 0 0 0 0 7 0.0008 0 
16369 1 0.0138303 -0.0607882 -0.00643506 0 0 0 1.51683e-05 -1.91129e-06 -5.80788e-07 1.20563e-07 -6.47141e-08 -1.87004e-08 2 0 0 1 0 0 0 0 1 0 0 0 0 0 0 0 14 0.0008 0 
13527 2 0.0165974 -0.0606655 -0.00709152 0 0 0 2.11556e-05 5.26204e-06 -4.66363e-05 2.98285e-08 4.89561e-08 3.00351e-08 0 1 0 1 0 0 0 0 0 0 0 0 0 0 0 0 13 0.0008 0 
13175 6 0.0180518 -0.060788 -0.00643636 0 0 0 2.33988e-05 -6.12473e-06 5.78034e-06 2.17326e-09 1.34153e-07 -1.06562e-08 0 2 0 0 0 2 0 0 0 0 0 0 0 0 0 0 29 0.0008 0 
16168 4 0.0196218 -0.0606338 -0.00726089 0 0 0 0.000361358 -3.6486e-06 6.91287e-05 -1.96246e-07 8.54884e-09 -6.66641e-08 0 0 1 1 0 0 0 0 0 0 0 0 0 0 0 0 24 0.0008 0 
15806 3 0.0209576 -0.0608192 -0.00626956 0 0 0 -3.43561e-05 9.12931e-07 -3.80208e-06 1.24002e-07 -2.75868e-09 4.01099e-09 0 1 1 0 0 0 0 0 0 0 0 0 0 0 0 0 26 0.0008 0 
9574 2 0.0224909 -0.0607349 -0.00672004 0 0 0 3.69783e-06 3.40273e-06 2.55512e-05 9.49336e-08 -1.07456e-08 -1.2218e-08 0 2 0 0 0 0 0 0 0 0 0 0 0 0 0 0 47 0.0008 0 
7627 1 0.0241532 -0.0606193 -0.00733863 0 0 0 -2.86273e-05 -1.56851e-06 1.37557e-05 -3.71819e-07 -3.96733e-08 5.7909e-08 1 0 1 0 0 0 0 0 0 1 0 0 0 0 0 0 37 0.0008 0 
15618 1 0.0253232 -0.0608198 -0.00626601 0 0 0 6.69129e-07 -7.06157e-06 -3.93413e-05 -1.07944e-07 -2.63547e-07 -1.50961e-07 3 0 0 0 1 0 0 0 0 0 0 0 0 0 0 0 18 0.0008 0 
658 6 0.0269227 -0.0608133 -0.00630108 0 0 0 -0.000119245 -3.56479e-05 9.61548e-05 -1.06733e-06 3.09768e-07 -3.40368e-07 1 1 0 0 1 2 0 0 0 0 0 0 0 0 0 0 63 0.0008 0 
16870 13 0.0293114 -0.0606989 -0.00691231 0 0 0 7.4536e-05 -0.000191158 0.00154738 6.56614e-06 -1.20888e-06 -8.42715e-06 0 0 0 1 0 0 0 0 0 0 0 0 1 0 0 0 14 0.0008 0 
6450 6 0.0307273 -0.060836 -0.00617945 0 0 0 -0.000398197 4.2308e-05 -0.000595024 -8.14296e-07 3.24418e-06 -5.35409e-06 0 0 0 1 0 1 0 0 0 0 0 0 0 0 0 0 55 0.0008 0 
3551 3 0.0321437 -0.0606992 -0.00691092 0 0 0 -0.000733764 -9.34263e-05 0.0014105 -9.11518e-06 -1.76402e-06 -2.14325e-06 0 0 1 0 0 0 0 0 0 0 0 0 0 0 0 0 40 0.0008 0 
10802 6 0.0336673 -0.060789 -0.00643128 0 0 0 0.00021302 -0.000187592 0.000962783 -2.16327e-06 4.20002e-06 -3.80017e-06 0 0 1 0 0 2 0 0 0 0 0 0 0 0 0 0 19 0.0008 0 
5232 3 0.0360218 -0.0606419 -0.00721779 0 0 0 0.00119727 -0.000237229 0.00122128 3.07535e-07 -1.08148e-06 -7.1072e-07 0 0 1 0 0 0 0 0 0 0 0 0 0 0 1 0 53 0.0008 0 
7503 4 0.0374346 -0.0607801 -0.00647852 0 0 0 0.00261165 -0.000199084 0.00112497 1.41199e-07 2.52061e-07 8.85165e-07 0 0 0 1 0 0 0 0 0 0 0 0 0 0 0 0 56 0.0008 0 
10781 5 0.0390101 -0.0606521 -0.00716318 0 0 0 0.000112553 -0.000120131 0.000740561 4.31713e-07 3.47314e-07 -9.02936e-08 0 0 1 0 1 0 0 0 0 0 0 0 0 0 0 0 55 0.0008 0 
4160 5 0.0403773 -0.0608053 -0.00634371 0 0 0 -0.00231024 -4.68961e-05 0.000489214 -8.09638e-10 -6.05373e-07 1.3003e-06 0 0 0 0 0 0 0 0 0 0 0 0 0 0 0 0 56 0.0008 0 
11962 4 0.0421938 -0.0607096 -0.00685595 0 0 0 0.000134122 0.000776637 -0.00173583 2.18672e-07 4.90302e-07 3.4233e-07 0 0 0 0 0 0 0 0 0 0 0 0 0 0 0 0 42 0.0008 0 
10116 2 0.0455693 -0.0607158 -0.00679215 0 0 0 -0.00318899 -0.0180021 0.00341624 3.84704e-06 -3.50519e-06 -9.83699e-06 0 1 0 0 0 0 0 0 0 0 0 0 0 0 0 0 64 0.0008 0 
18712 1 0.0104257 -0.0584895 6.52921e-05 0 0 0 -2.92399 0.771751 14.5964 0 -3.55035e-05 0 0 0 0 0 0 0 0 0 0 0 0 0 0 0 0 0 0 0.0012 0 
7649 2 0.000800082 -0.0609356 -0.00528715 0 0 0 4.4079e-05 -6.18097e-07 -2.54101e-06 -8.16294e-08 -1.8405e-08 3.59609e-09 0 0 1 0 0 0 0 0 0 0 0 0 0 0 0 0 55 0.0008 0 
4413 6 0.00378879 -0.0609355 -0.00523106 0 0 0 0.000983174 -0.000147989 8.96414e-05 -7.1977e-08 1.54209e-07 4.8602e-07 0 0 0 0 0 0 0 0 0 0 0 1 0 0 0 0 71 0.0008 0 
14360 4 0.00530853 -0.0608871 -0.00590627 0 0 0 -0.000342143 -3.67592e-05 0.000236326 4.38962e-07 -1.88343e-07 2.22926e-09 0 0 0 1 0 0 0 0 0 0 0 1 0 0 0 0 37 0.0008 0 
3837 1 0.00661249 -0.0609356 -0.00498054 0 0 0 -0.000172832 -5.76953e-06 -1.13854e-05 1.44237e-07 5.81728e-08 9.30048e-08 2 1 0 1 0 0 0 0 0 0 0 0 0 0 0 0 101 0.0008 0 
4306 9 0.00811369 -0.0609356 -0.00553375 0 0 0 -0.000134246 1.82522e-05 5.30474e-07 3.923e-07 -2.74289e-07 1.15426e-06 1 0 1 0 0 0 0 0 0 0 1 0 0 0 0 0 60 0.0008 0 
255 2 0.010821 -0.0609356 -0.00519561 0 0 0 0.000126931 7.7051e-06 -2.58912e-05 -2.56522e-07 -9.57889e-08 2.42884e-08 0 0 1 1 0 0 0 0 0 0 0 0 0 0 0 0 53 0.0008 0 
4848 7 0.012582 -0.0609356 -0.00544512 0 0 0 4.09386e-05 3.73755e-06 -3.12875e-05 5.57368e-08 4.18012e-08 -9.89895e-08 1 0 0 1 0 0 1 0 0 0 0 0 0 0 0 0 63 0.0008 0 
15272 2 0.0141317 -0.0609356 -0.00487077 0 0 0 1.07552e-05 2.17336e-06 -5.80855e-06 6.26319e-08 -1.34898e-08 -8.89965e-08 1 1 0 0 0 0 0 0 0 0 0 0 0 0 0 0 13 0.0008 0 
1637 5 0.015428 -0.0608817 -0.00593522 0 0 0 -6.2446e-05 -1.47844e-06 8.67495e-06 1.80061e-07 -2.40519e-08 3.9801e-08 0 0 0 1 1 0 0 0 0 0 0 0 0 0 0 0 76 0.0008 0 
5892 2 0.0169257 -0.0609356 -0.00530952 0 0 0 -6.69106e-05 -1.50552e-06 -5.28484e-05 9.13524e-08 1.32488e-08 4.14871e-08 0 2 0 0 0 1 0 0 0 0 0 0 0 0 0 0 51 0.0008 0 
5399 2 0.0194633 -0.0609264 -0.00569604 0 0 0 7.57839e-06 -9.69818e-06 6.80533e-06 -1.88384e-08 1.69143e-08 -1.76891e-08 0 2 0 1 0 1 0 0 0 0 0 0 0 0 0 0 82 0.0008 0 
11880 4 0.0207098 -0.0609356 -0.00469324 0 0 0 6.77828e-06 -1.74402e-06 1.3121e-06 1.3399e-08 9.72009e-09 -8.18826e-09 0 1 1 2 0 0 0 0 0 0 0 0 0 0 0 0 50 0.0008 0 
16506 3 0.0222425 -0.0609356 -0.0051523 0 0 0 -9.4658e-06 -4.43183e-06 3.15131e-05 -7.12726e-08 -3.14928e-09 2.50736e-08 0 1 0 1 0 0 0 0 0 0 0 0 0 0 0 0 10 0.0008 0 
13149 4 0.0237932 -0.0609058 -0.00580628 0 0 0 1.83526e-05 -1.43333e-06 8.29879e-06 -5.56353e-08 -5.81629e-08 -1.29652e-08 2 1 0 1 0 0 0 0 0 0 0 0 0 0 0 0 63 0.0008 0 
14683 7 0.0250781 -0.0609356 -0.00468926 0 0 0 -2.86044e-05 -2.48255e-05 3.14571e-05 -1.69287e-07 -3.01262e-08 2.51737e-07 1 0 0 0 0 0 2 0 0 0 0 0 0 0 0 0 24 0.0008 0 
12617 7 0.0266776 -0.0609356 -0.00472489 0 0 0 -0.000210531 -1.43222e-05 1.8309e-05 -2.83016e-07 1.11037e-07 -2.60203e-07 0 0 0 0 0 1 0 0 0 0 0 0 0 0 0 0 35 0.0008 0 
14576 3 0.0283736 -0.0609357 -0.0056381 0 0 0 -0.000781657 -0.00022034 0.000345013 -1.1961e-06 2.6261e-06 4.32732e-06 0 0 1 0 0 1 0 0 0 0 0 0 1 0 0 0 20 0.0008 0 
808 1 0.0297118 -0.0609356 -0.00476019 0 0 0 -0.000665495 6.10722e-07 0.00010811 1.73101e-08 5.20814e-09 -9.22793e-08 1 0 0 0 0 0 0 0 0 0 0 0 0 0 0 0 62 0.0008 0 
9751 4 0.0313106 -0.0609356 -0.00469329 0 0 0 -0.00151319 1.72353e-06 0.00078885 -3.45691e-06 -4.02551e-07 -1.10447e-05 0 0 0 0 0 1 0 0 0 0 0 0 0 0 0 0 33 0.0008 0 
10544 4 0.0328725 -0.0609356 -0.00505057 0 0 0 -0.000543386 -4.36603e-05 0.000393285 9.47152e-08 5.88535e-07 1.16142e-06 0 0 0 1 0 1 0 0 0 0 0 0 0 0 0 0 32 0.0008 0 
2102 5 0.0351684 -0.0608906 -0.00588746 0 0 0 0.000287004 -0.000266397 0.000504329 1.96995e-06 -6.291e-07 1.59242e-06 0 0 1 0 1 1 0 0 0 0 0 0 0 0 0 0 101 0.0008 0 
338 3 0.0365797 -0.0609356 -0.00513506 0 0 0 0.000570179 -8.75646e-06 1.02055e-06 -6.12184e-08 -7.68781e-07 6.45439e-07 0 0 1 1 1 0 0 0 0 0 0 0 0 0 0 0 42 0.0008 0 
4777 3 0.0387676 -0.0609356 -0.00560737 0 0 0 0.0023498 1.45514e-05 0.00119722 -2.91106e-08 -9.24821e-08 -2.38793e-07 0 0 0 0 1 0 0 0 0 0 0 0 0 0 0 0 76 0.0008 0 
818 5 0.0401313 -0.0609356 -0.00476803 0 0 0 0.00326477 -6.52167e-05 0.00149072 -3.03659e-09 6.23529e-07 1.76501e-08 0 0 0 0 0 0 0 0 0 0 0 0 0 0 0 0 86 0.0008 0 
4952 4 0.0416436 -0.0609356 -0.00537071 0 0 0 0.000583469 -0.000243508 -0.000615783 2.56109e-07 -9.61957e-07 -1.0006e-07 0 0 0 0 0 0 0 0 0 0 0 0 0 0 0 0 67 0.0008 0 
9087 1 0.0432213 -0.0609351 -0.00564949 0 0 0 0.00368897 0.000253638 -0.00141294 -4.88456e-08 -1.27427e-06 1.16295e-06 0 0 0 0 0 0 0 0 0 0 0 0 0 0 0 0 48 0.0008 0 
9387 3 0.044808 -0.0609359 -0.00540263 0 0 0 -0.00568175 0.00166665 0.00961177 6.89356e-06 2.80633e-05 -1.02596e-05 0 1 1 0 0 0 0 0 0 0 0 0 0 0 0 0 36 0.0008 0 
4709 6 0.0464076 -0.0609352 -0.0054343 0 0 0 -0.00575711 -0.00200885 -0.00821167 4.47502e-07 -1.0349e-05 1.34092e-07 0 0 1 0 0 0 0 0 0 0 0 0 0 0 0 0 64 0.0008 0 
3715 8 0.031343 -0.0588007 0.00115787 0 0 0 -0.935654 0.702491 13.2914 0 -1.05196e-05 0 0 0 0 0 0 0 0 0 0 0 0 0 0 0 0 0 87 0.0008 0 
7937 2 0.000802627 -0.0609356 -0.00368737 0 0 0 -0.000342473 1.67463e-06 1.28735e-06 3.06778e-08 5.28251e-09 -1.40436e-08 0 1 0 0 0 0 0 0 0 0 0 0 0 0 0 0 63 0.0008 0 
10595 5 0.00235147 -0.0609356 -0.0044797 0 0 0 1.28597e-05 -2.37963e-05 5.33727e-05 4.39782e-08 1.70052e-07 4.11501e-07 0 0 1 0 2 0 0 0 0 0 0 0 0 0 0 0 96 0.0008 0 
9977 6 0.00370921 -0.0609357 -0.00363329 0 0 0 0.00014984 6.24136e-06 -3.14398e-06 -3.66326e-07 -3.09336e-07 1.4951e-07 0 0 0 0 1 1 0 0 0 0 0 0 0 0 0 0 57 0.0008 0 
5611 3 0.00515827 -0.0609356 -0.00431285 0 0 0 -0.00032009 -9.04381e-08 -0.000354608 -6.99453e-15 1.60977e-09 2.14332e-15 0 0 0 0 0 0 0 0 0 0 0 0 0 0 0 0 86 0.0008 0 
8455 4 0.00656492 -0.0609356 -0.00338149 0 0 0 0.000682049 -4.55795e-06 1.53958e-05 -4.32112e-08 2.07952e-08 7.34487e-08 1 0 0 1 0 0 0 0 0 0 0 0 0 0 0 0 87 0.0008 0 
2611 5 0.0093035 -0.0609356 -0.00446371 0 0 0 0.000244016 -9.9652e-09 -0.000123778 -3.80613e-13 1.59002e-10 1.71514e-12 0 0 0 0 0 0 0 0 0 0 0 0 0 0 0 0 64 0.0008 0 
12917 2 0.0112613 -0.0609356 -0.00365751 0 0 0 -8.86603e-05 -7.59095e-06 5.82798e-05 -1.69557e-07 -6.59154e-09 -2.4917e-08 0 2 0 0 0 0 0 0 0 0 0 0 0 0 0 0 40 0.0008 0 
2015 2 0.0128807 -0.0609356 -0.00387331 0 0 0 -2.61174e-05 5.09428e-06 -1.41786e-05 4.48838e-08 3.16097e-08 -6.34315e-08 0 1 0 0 0 0 1 0 0 0 0 0 0 0 0 0 47 0.0008 0 
14749 4 0.0156447 -0.0609356 -0.004351 0 0 0 3.26804e-06 -4.08796e-06 3.42055e-06 -1.93337e-08 -1.2396e-08 4.67916e-08 0 2 0 1 1 0 0 0 0 0 0 0 0 0 0 0 29 0.0008 0 
16330 3 0.0174946 -0.0609356 -0.00381409 0 0 0 4.0522e-06 7.52003e-06 -2.46163e-05 -4.72546e-08 -3.459e-08 -3.69055e-08 0 1 2 0 0 0 0 0 0 0 0 0 0 0 0 0 26 0.0008 0 
14256 8 0.0190592 -0.0609356 -0.0041481 0 0 0 7.67226e-06 -4.89484e-07 3.23294e-06 -1.46955e-08 1.00732e-08 2.11877e-08 0 1 1 0 0 0 0 0 0 0 0 0 0 0 0 0 29 0.0008 0 
700 8 0.0203058 -0.0609356 -0.00314527 0 0 0 -1.77657e-06 -7.58823e-07 3.37828e-06 1.78745e-08 1.43497e-08 -9.1505e-09 0 0 0 1 0 0 0 1 0 0 0 0 0 0 0 0 31 0.0008 0 
11529 2 0.0218706 -0.0609356 -0.00359005 0 0 0 -0.000109064 -3.82705e-12 0.000536668 1.04522e-19 -5.42832e-14 -5.20987e-19 0 0 0 0 0 0 0 0 0 0 0 0 0 0 0 0 22 0.0008 0 
13211 3 0.0235468 -0.0609356 -0.00422575 0 0 0 -5.73799e-07 -3.39095e-06 -1.10188e-05 -8.85583e-08 -6.49273e-09 -4.39525e-08 0 0 1 1 0 0 1 0 0 0 0 0 0 0 0 0 40 0.0008 0 
2137 3 0.0247172 -0.0609356 -0.00313053 0 0 0 -3.21148e-05 1.57514e-05 3.07829e-05 5.13441e-08 -4.12249e-08 5.99553e-08 0 0 2 0 0 0 1 0 0 0 0 0 0 0 0 0 46 0.0008 0 
11224 7 0.026946 -0.0609356 -0.00314777 0 0 0 -0.000111295 1.10249e-05 4.9984e-05 8.32407e-07 7.41795e-08 -2.52412e-07 0 0 0 0 0 0 1 0 0 0 0 0 0 0 0 0 23 0.0008 0 
9227 6 0.028274 -0.0609356 -0.00404128 0 0 0 2.72064e-05 -1.87661e-06 6.64733e-05 7.07471e-07 -3.89996e-07 9.61869e-07 0 0 1 0 0 1 0 0 0 0 0 0 0 0 0 0 50 0.0008 0 
7804 2 0.0301636 -0.0609356 -0.00322533 0 0 0 -0.000682094 -2.05705e-07 0.000258317 -1.65558e-08 3.53847e-08 9.52083e-08 1 0 0 0 0 0 0 0 0 0 0 0 0 0 0 0 30 0.0008 0 
9956 4 0.031763 -0.0609356 -0.00315901 0 0 0 0.000843588 0.000275741 0.00082276 -1.85102e-06 -1.27339e-06 -7.35774e-06 0 0 0 2 0 0 0 0 0 0 0 0 0 0 0 0 29 0.0008 0 
4603 1 0.0333228 -0.0609356 -0.00351531 0 0 0 0.000241838 1.10623e-05 9.80544e-05 1.65418e-06 -4.12208e-07 1.53718e-06 1 0 0 2 0 0 0 0 0 0 0 0 0 0 0 0 42 0.0008 0 
4071 8 0.0346787 -0.0609356 -0.0043648 0 0 0 0.00107814 -4.24866e-06 0.00103025 -2.94574e-09 1.29575e-07 -5.24523e-09 0 0 0 0 0 0 0 0 0 0 0 0 0 0 0 0 57 0.0008 0 
9740 2 0.0363558 -0.0609356 -0.00355086 0 0 0 -0.000335283 2.60624e-05 -4.42531e-06 -3.17295e-08 -3.59186e-07 -6.35836e-08 0 1 1 0 0 0 0 0 0 0 0 0 0 0 0 0 51 0.0008 0 
6612 3 0.037915 -0.0609356 -0.00425351 0 0 0 0.000439739 -1.79952e-05 3.65511e-05 -1.76475e-07 4.78781e-08 -2.31458e-07 0 0 1 0 0 0 0 0 0 0 0 0 0 0 0 0 48 0.0008 0 
12082 1 0.0393983 -0.0609356 -0.00334411 0 0 0 -0.00266174 6.07061e-06 -0.000603141 -5.00437e-12 6.0291e-08 1.02543e-12 0 0 0 0 0 0 0 0 0 0 0 0 0 0 0 0 69 0.0008 0 
4793 1 0.0426624 -0.0609356 -0.00413479 0 0 0 -0.00177368 -2.46147e-06 -0.00080776 -4.06275e-11 -3.37412e-08 -5.83567e-11 0 0 0 0 0 0 0 0 0 0 0 0 0 0 0 0 37 0.0008 0 
298 1 0.0442459 -0.0609356 -0.00390269 0 0 0 -0.00135411 3.30476e-06 9.82401e-05 3.4754e-10 1.54821e-08 -1.46078e-09 0 0 0 0 0 0 0 0 0 0 0 0 0 0 0 0 38 0.0008 0 
8538 8 0.0458606 -0.0609356 -0.00382881 0 0 0 0.00190985 1.05713e-12 -9.63037e-05 2.45698e-19 -3.72694e-19 -9.44175e-21 0 0 0 0 0 0 0 0 0 0 0 0 0 0 0 0 51 0.0008 0 
1802 7 0.0474729 -0.060925 -0.00423937 0 0 0 -0.00137242 0.00641617 -0.00975277 0 -1.05196e-05 0 0 0 0 0 0 0 0 0 0 0 0 0 0 0 0 0 93 0.0008 0 
5540 9 0.000817666 -0.0609356 -0.00208771 0 0 0 0.000207623 2.52234e-06 4.5863e-06 6.22864e-08 3.25721e-08 8.74815e-09 0 1 0 0 0 0 0 0 1 0 0 0 0 0 0 0 101 0.0008 0 
894 6 0.00220442 -0.0609356 -0.00288652 0 0 0 0.000284939 1.19008e-06 -7.00912e-07 -2.67116e-07 -1.47935e-07 1.05403e-06 0 0 0 0 1 0 0 0 0 0 0 0 0 0 0 0 76 0.0008 0 
1225 1 0.00362244 -0.0609356 -0.00203587 0 0 0 0.000147231 2.50464e-05 1.79453e-05 1.18517e-07 -1.33324e-07 -2.65868e-07 1 0 0 0 0 1 0 0 0 0 0 0 0 0 0 0 186 0.0008 0 
9269 5 0.0050716 -0.0609356 -0.00271506 0 0 0 0.000261159 3.72365e-08 -0.000226607 -1.04305e-14 -1.46067e-09 4.51825e-14 0 0 0 0 0 0 0 0 0 0 0 0 0 0 0 0 77 0.0008 0 
11208 2 0.00650146 -0.0609356 -0.00178298 0 0 0 -1.92941e-05 2.13064e-06 -1.43938e-05 6.08479e-08 -3.66593e-08 6.35352e-08 0 0 0 1 0 0 0 0 0 0 0 0 0 0 0 0 44 0.0008 0 
10613 5 0.00797458 -0.0609356 -0.00258015 0 0 0 -0.000947177 -4.09924e-12 0.00280664 1.39329e-19 0 3.02153e-19 0 0 0 0 0 0 0 0 0 0 0 0 0 0 0 0 38 0.0008 0 
12304 8 0.00982572 -0.0609356 -0.00295121 0 0 0 -0.000136135 -4.00441e-06 -6.73756e-05 5.88832e-08 -3.20946e-08 1.30828e-07 0 1 0 0 0 0 0 1 0 0 0 0 0 0 0 0 54 0.0008 0 
10360 1 0.0122528 -0.0609356 -0.00240182 0 0 0 1.0023e-05 1.44289e-06 1.41368e-06 1.58158e-09 9.34299e-09 -4.67291e-08 2 2 0 0 0 0 0 0 0 0 0 0 0 0 0 0 67 0.0008 0 
12116 6 0.0141925 -0.0609356 -0.00295174 0 0 0 0.000228454 3.15183e-12 -0.000142399 -3.76033e-20 0 1.8718e-20 0 0 0 0 0 0 0 0 0 0 0 0 0 0 0 0 17 0.0008 0 
10496 1 0.0162135 -0.0609356 -0.00285574 0 0 0 1.35438e-05 -1.26221e-07 -4.98655e-06 2.53608e-08 -3.43685e-08 -3.10375e-09 2 0 1 1 0 0 0 0 0 0 0 0 0 0 0 0 52 0.0008 0 
14724 5 0.0151446 -0.0609356 -0.00166532 0 0 0 4.2327e-06 1.17333e-06 -2.08718e-05 1.33675e-08 -1.13008e-08 -9.67413e-09 1 0 0 0 2 0 0 0 0 0 0 0 0 0 0 0 21 0.0008 0 
7764 4 0.018458 -0.0609356 -0.00253421 0 0 0 -0.000109671 4.11864e-12 -0.000332163 1.88004e-20 0 -3.69079e-21 0 0 0 0 0 0 0 0 0 0 0 0 0 0 0 0 60 0.0008 0 
5953 8 0.0197888 -0.0609356 -0.00163119 0 0 0 3.00507e-05 2.61175e-06 7.40934e-06 6.1654e-08 3.39423e-08 7.80054e-09 0 0 0 0 0 0 0 2 0 0 0 0 0 0 0 0 63 0.0008 0 
14434 6 0.0214194 -0.0609356 -0.00199663 0 0 0 1.6912e-05 -8.70664e-07 -8.31611e-06 1.00748e-07 -3.95149e-09 -8.18972e-08 0 0 0 0 0 2 0 1 0 0 0 0 0 0 0 0 28 0.0008 0 