ITEM: TIMESTEP
10550000
ITEM: NUMBER OF ATOMS
1289
ITEM: BOX BOUNDS ff ff ff
-0.01 0.45
-0.15 0.15
-0.08 0.1
ITEM: ATOMS id type x y z ix iy iz vx vy vz fx fy fz c_cc_1 c_cc_2 c_cc_3 c_cc_4 c_cc_5 c_cc_6 c_cc_7 c_cc_8 c_cc_9 c_cc_10 c_cc_11 c_cc_12 c_cc_13 c_cc_14 c_cc_15 c_cc_16 f_fppacc radius 
1032 4 0.00478357 -0.0475222 -0.0333682 0 0 0 -0.0660135 -10.6154 15.0578 -0.0153597 1.68355 0.939351 0 0 0 0 0 0 0 0 0 0 0 0 0 0 0 0 17 0.002 
839 3 0.0175084 -0.0134149 -0.0544036 0 0 0 0.424546 -4.35683 1.2042 0 -0.000164368 0 0 0 0 0 0 0 0 0 0 0 0 0 0 0 0 0 16 0.002 
137 1 0.0144144 -0.0226782 -0.0523296 0 0 0 1.37616 -15.6647 2.48368 0 -0.000164368 0 0 0 0 0 0 0 0 0 0 0 0 0 0 0 0 0 30 0.002 
956 1 0.00945683 -0.0158051 -0.0507109 0 0 0 -1.4864 -9.33322 6.85739 0 -0.000164368 0 0 0 0 0 0 0 0 0 0 0 0 0 0 0 0 0 12 0.002 
1310 1 0.0182057 0.0139917 -0.0533516 0 0 0 4.01277 -23.1953 -8.15123 0 -0.000164368 0 0 0 0 0 0 0 0 0 0 0 0 0 0 0 0 0 1 0.002 
313 1 0.0134195 0.0277311 -0.0283346 0 0 0 1.16019 -2.29132 -3.19322 0 -0.000164368 0 0 0 0 0 0 0 0 0 0 0 0 0 0 0 0 0 30 0.002 
218 4 0.0119954 0.037178 -0.0184081 0 0 0 1.39201 -5.37974 -2.71252 0 -0.000164368 0 0 0 0 0 0 0 0 0 0 0 0 0 0 0 0 0 18 0.002 
369 6 0.00441985 0.00327898 0.0540165 0 0 0 0.189469 -0.756329 0.656166 0 -0.000164368 0 0 0 0 0 0 0 0 0 0 0 0 0 0 0 0 0 40 0.002 
41 1 0.0151238 0.052857 -0.0355 0 0 0 1.66089e-205 -1.62365e-19 -5.61329e-12 -1.10598e-205 -1.35525e-20 -3.55271e-15 0 0 0 0 0 0 0 0 0 0 0 0 0 0 0 0 2 0.002 
714 4 0.00484693 0.0617327 -0.0313922 0 0 0 -0.3943 -0.959958 -1.13919 0 -0.000164368 0 0 0 0 0 0 0 0 0 0 0 0 0 0 0 0 0 35 0.002 
1301 3 0.0102096 0.0394217 -0.0310061 0 0 0 0.669015 -3.71525 -4.67711 0 -0.000164368 0 0 0 0 0 0 0 0 0 0 0 0 0 0 0 0 0 0 0.002 
417 1 0.00417362 0.0510947 -0.0285927 0 0 0 0.302052 0.346509 0.748256 0 -0.000164368 0 0 0 0 0 0 0 0 0 0 0 0 0 0 0 0 0 60 0.002 
834 3 0.0115463 0.0411981 -0.0261907 0 0 0 1.3758 -1.76724 -2.88853 0 -0.000164368 0 0 0 0 0 0 0 0 0 0 0 0 0 0 0 0 0 31 0.002 
1146 2 0.00752063 0.0523201 -0.0238375 0 0 0 0.558 -1.90909 -0.901189 0 -0.000164368 0 0 0 0 0 0 0 0 0 0 0 0 0 0 0 0 0 24 0.002 
377 4 0.00601218 0.0664267 -0.0237887 0 0 0 0.286972 -0.570454 -0.35261 0 -0.000164368 0 0 0 0 0 0 0 0 0 0 0 0 0 0 0 0 0 52 0.002 
554 3 0.003591 0.0551573 -0.0202191 0 0 0 -0.126475 -0.906863 -0.128754 0 -0.000164368 0 0 0 0 0 0 0 0 0 0 0 0 0 0 0 0 0 27 0.002 
404 6 0.00804821 0.0558774 -0.0205884 0 0 0 0.336906 -1.25261 -0.586982 0 -0.000164368 0 0 0 0 0 0 0 0 0 0 0 0 0 0 0 0 0 27 0.002 
395 6 0.0159068 0.0617097 -0.0187012 0 0 0 0.289536 -0.220996 -1.9072 0 -0.000164368 0 0 0 0 0 0 0 0 0 0 0 0 0 0 0 0 0 52 0.002 
1317 6 0.0052434 0.0710747 0.00432909 0 0 0 -14.8716 32.4061 -39.7988 0 -0.000164368 0 0 0 0 0 0 0 0 0 0 0 0 0 0 0 0 0 0 0.002 
835 12 0.0110771 0.0687183 -0.017804 0 0 0 0.720183 0.383069 -3.13322 0 -0.000164368 0 0 0 0 0 0 0 0 0 0 0 0 0 0 0 0 0 33 0.002 
1311 3 0.00659711 0.0742607 -0.0129952 0 0 0 0.412699 0.45236 3.53717 0 -0.000164368 0 0 0 0 0 0 0 0 0 0 0 0 0 0 0 0 0 0 0.002 
1313 5 0.00470006 0.0411233 -0.007992 0 0 0 0.237203 -2.6225 -2.16379 0 -0.000164368 0 0 0 0 0 0 0 0 0 0 0 0 0 0 0 0 0 0 0.002 
1304 1 0.00352039 0.0703793 0.00947246 0 0 0 0.447565 1.5778 -0.581612 0 -0.000164368 0 0 0 0 0 0 0 0 0 0 0 0 0 0 0 0 0 0 0.002 
567 7 0.0119855 0.0749946 -0.00219074 0 0 0 0.33139 0.489939 -0.155238 0 -0.000164368 0 0 0 0 0 0 0 0 0 0 0 0 0 0 0 0 0 28 0.002 
1158 12 0.00660938 0.0402589 -0.00111314 0 0 0 0.843155 -1.23859 -0.411226 0 -0.000164368 0 0 0 0 0 0 0 0 0 0 0 0 0 0 0 0 0 13 0.002 
1082 1 0.00309141 0.0729509 -0.00101672 0 0 0 1.48583 1.64073 -4.04468 0 -0.000164368 0 0 0 0 0 0 0 0 0 0 0 0 0 0 0 0 0 27 0.002 
524 5 0.0147127 0.0704165 0.0040639 0 0 0 0.0934657 0.944883 -2.11077 0.30649 0.301493 -0.187945 0 0 0 0 0 0 0 0 0 0 0 0 0 0 0 0 39 0.002 
900 1 0.016556 0.0743384 0.00489684 0 0 0 -0.839614 -0.316556 0.787435 0 -0.000164368 0 0 0 0 0 0 0 0 0 0 0 0 0 0 0 0 0 27 0.002 
103 5 0.0116294 0.0686278 0.00538411 0 0 0 0.254335 -0.733689 -2.79682 -0.30649 -0.301822 0.187945 0 0 0 0 0 0 0 0 0 0 0 0 0 0 0 0 44 0.002 
213 4 0.014708 0.0708423 0.00978746 0 0 0 -1.34648 0.753718 -1.25083 0 -0.000164368 0 0 0 0 0 0 0 0 0 0 0 0 0 0 0 0 0 47 0.002 
1162 3 0.0055377 0.0603641 0.0109643 0 0 0 0.927177 -1.24237 -0.632096 0 -0.000164368 0 0 0 0 0 0 0 0 0 0 0 0 0 0 0 0 0 12 0.002 
416 5 0.00625122 0.0730384 0.0111149 0 0 0 -0.747236 1.32577 -0.451023 0.00425574 0.00594934 -0.000439124 0 0 0 0 1 0 0 0 0 0 0 0 0 0 0 0 52 0.002 
1044 10 0.0183863 0.0749883 0.0327443 0 0 0 -0.0583929 -0.0691724 0.00871566 0.00331019 6.53918e-05 0.00283176 0 0 0 0 0 0 0 0 0 1 0 0 0 0 0 0 24 0.002 
703 3 0.0162673 0.0580324 0.0114502 0 0 0 1.15035 -1.59032 -2.62578 0 -0.000164368 0 0 0 0 0 0 0 0 0 0 0 0 0 0 0 0 0 40 0.002 
311 2 0.0162881 0.065915 0.0128979 0 0 0 -0.77091 1.00166 -2.91976 0.0125565 0.0124919 -0.00275672 0 1 0 0 0 0 0 0 0 0 0 0 0 0 0 0 48 0.002 
553 7 0.00330551 0.0703964 0.0136285 0 0 0 0.330318 0.405961 -0.705767 0 -0.000164368 0 0 0 0 0 0 0 0 0 0 0 0 0 0 0 0 0 40 0.002 
9 6 0.00887901 0.0730467 0.0142593 0 0 0 -0.0373986 1.16376 -0.274316 0 -0.000164368 0 0 0 0 0 0 0 0 0 0 0 0 0 0 0 0 0 61 0.002 
1318 9 0.0170478 0.0495297 0.0164157 0 0 0 2 -1.04905 -0.0001 0 -0.000164368 0 0 0 0 0 0 0 0 0 0 0 0 0 0 0 0 0 0 0.002 
338 6 0.00594823 0.0613207 0.0174373 0 0 0 0.83443 0.138673 1.09813 0 -0.000164368 0 0 0 0 0 0 0 0 0 0 0 0 0 0 0 0 0 47 0.002 
983 5 0.00330367 0.0692221 0.0180383 0 0 0 0.1868 0.25109 -0.244371 0 -0.000164368 0 0 0 0 0 0 0 0 0 0 0 0 0 0 0 0 0 21 0.002 
1154 12 0.0175894 0.0703434 0.0164974 0 0 0 0.193397 0.231986 -0.677069 0 -0.000164368 0 0 0 0 0 0 0 0 0 0 0 0 0 0 0 0 0 14 0.002 
326 4 0.0102522 0.0714072 0.0179728 0 0 0 0.229598 -0.0852648 0.235218 0 -0.000164368 0 0 0 0 0 0 0 0 0 0 0 0 0 0 0 0 0 58 0.002 
902 3 0.0142882 0.0725361 0.017597 0 0 0 0.335495 0.190752 -0.0981432 0 -0.000164368 0 0 0 0 0 0 0 0 0 0 0 0 0 0 0 0 0 22 0.002 
1196 5 0.00299765 0.0733498 0.016904 0 0 0 0.0106406 0.0450192 0.278213 0.00103141 -0.000653426 -0.00016363 0 0 0 0 0 0 0 0 0 0 0 0 0 0 0 0 9 0.002 
182 2 0.0040197 0.0643844 0.0198887 0 0 0 -0.0472283 0.329267 -1.21225 0 -0.000164368 0 0 0 0 0 0 0 0 0 0 0 0 0 0 0 0 0 47 0.002 
675 1 0.0104461 0.0636481 0.0198615 0 0 0 -1.1396 -0.226585 -0.658979 0 -0.000164368 0 0 0 0 0 0 0 0 0 0 0 0 0 0 0 0 0 38 0.002 
665 2 0.00860465 0.0673699 0.0202038 0 0 0 0.439386 0.293392 -1.39802 0.00563085 0.00128097 -0.00212142 0 1 0 0 0 0 0 0 0 0 0 0 0 0 0 0 36 0.002 
966 3 0.0149773 0.0687419 0.0207165 0 0 0 -0.457396 0.284361 -0.237637 0 -0.000164368 0 0 0 0 0 0 0 0 0 0 0 0 0 0 0 0 0 30 0.002 
18 3 0.00611118 0.0708462 0.0212487 0 0 0 0.0246115 0.326795 0.0981548 0 -0.000164368 0 0 0 0 0 0 0 0 0 0 0 0 0 0 0 0 0 53 0.002 
1064 5 0.00938024 0.0743921 0.0212482 0 0 0 0.434447 0.371474 0.291181 0.000554898 -0.00338689 -0.00103388 0 0 0 0 1 0 0 0 0 0 0 0 0 0 0 0 25 0.002 
583 1 0.016896 0.0729691 0.0212029 0 0 0 0.682979 -0.943647 0.172024 0 -0.000164368 0 0 0 0 0 0 0 0 0 0 0 0 0 0 0 0 0 51 0.002 
1198 5 0.0171047 0.0660096 0.02301 0 0 0 -0.62443 -0.05287 -0.378416 0 -0.000164368 0 0 0 0 0 0 0 0 0 0 0 0 0 0 0 0 0 13 0.002 
548 4 0.00327242 0.068159 0.0221467 0 0 0 -0.0469753 0.145211 -0.0679464 0 -0.000164368 0 0 0 0 0 0 0 0 0 0 0 0 0 0 0 0 0 45 0.002 
288 1 0.0099975 0.0701931 0.0226713 0 0 0 -0.19498 -0.23905 -0.240108 -0.00563085 -0.00160971 0.00212142 0 1 0 0 0 0 0 0 0 0 0 0 0 0 0 0 46 0.002 
836 4 0.0129337 0.0732644 0.0227698 0 0 0 0.293467 -0.344472 0.0540043 0 -0.000164368 0 0 0 0 0 0 0 0 0 0 0 0 0 0 0 0 0 40 0.002 
477 2 0.0108659 0.0490837 0.0313912 0 0 0 -18.2358 32.6528 -39.7674 0 -0.000164368 0 0 0 0 0 0 0 0 0 0 0 0 0 0 0 0 0 15 0.002 
1078 1 0.00954318 0.0623683 0.0256009 0 0 0 0.101404 -0.189806 -0.184755 0 -0.000164368 0 0 0 0 0 0 0 0 0 0 0 0 0 0 0 0 0 20 0.002 
821 3 0.0127701 0.0674487 0.0241823 0 0 0 -0.194222 -0.346506 0.103877 0 -0.000164368 0 0 0 0 0 0 0 0 0 0 0 0 0 0 0 0 0 29 0.002 
892 5 0.0030338 0.0712885 0.02496 0 0 0 0.124475 -0.180646 0.0157409 0 -0.000164368 0 0 0 0 0 0 0 0 0 0 0 0 0 0 0 0 0 28 0.002 
503 7 0.0061159 0.0739331 0.0242924 0 0 0 -0.138923 -0.163086 -0.0228474 0.00288486 0.00186947 -0.0023206 0 0 0 0 0 0 2 0 0 0 0 0 0 0 0 0 47 0.002 
823 9 0.0101312 0.0734957 0.0256773 0 0 0 0.0772029 -0.0202909 -0.0911797 -0.000455037 -0.000562825 -0.000375825 0 0 0 0 0 0 0 0 1 0 0 0 0 0 0 0 22 0.002 
781 2 0.0170467 0.0674624 0.0268526 0 0 0 0.136506 -0.19185 -0.0593946 -0.00906934 -0.0130013 0.00494971 0 1 0 0 0 0 0 0 0 0 0 0 0 0 0 0 41 0.002 
552 8 0.00740752 0.070455 0.0257682 0 0 0 0.131799 -0.16023 -0.184465 0.0008703 -0.00147609 -0.00146987 0 0 0 0 0 0 1 1 0 0 0 0 0 0 0 0 57 0.002 
1199 14 0.0144327 0.0707446 0.0257535 0 0 0 0.320969 -0.418017 -0.0634461 0 -0.000164368 0 0 0 0 0 0 0 0 0 0 0 0 0 0 0 0 0 16 0.002 
958 5 0.00621741 0.0599446 0.0287838 0 0 0 0.879183 -0.566053 -0.496243 0 -0.000164368 0 0 0 0 0 0 0 0 0 0 0 0 0 0 0 0 0 24 0.002 
763 3 0.0123963 0.0620841 0.0287701 0 0 0 0.114902 -0.169006 -0.244135 0 -0.000164368 0 0 0 0 0 0 0 0 0 0 0 0 0 0 0 0 0 51 0.002 
757 2 0.0162964 0.0632845 0.0288746 0 0 0 0.255874 -0.287725 -0.0254894 0 -0.000164368 0 0 0 0 0 0 0 0 0 0 0 0 0 0 0 0 0 20 0.002 
1186 8 0.00491154 0.0662587 0.029739 0 0 0 0.133584 0.126199 -0.128211 -0.00199694 0.00172659 -0.00173716 0 0 0 0 0 0 0 1 0 0 0 0 0 0 0 0 15 0.002 
378 2 0.0091021 0.0666083 0.0289938 0 0 0 0.0768493 -0.0781257 -0.0959558 0 -0.000164368 0 0 0 0 0 0 0 0 0 0 0 0 0 0 0 0 0 41 0.002 
526 2 0.0133497 0.0659885 0.0279719 0 0 0 0.109147 -0.261014 -0.0706795 0 -0.000164368 0 0 0 0 0 0 0 0 0 0 0 0 0 0 0 0 0 34 0.002 
1115 2 0.00307358 0.0696325 0.0286237 0 0 0 0.0699786 -0.0621724 0.175113 0 -0.000164368 0 0 0 0 0 0 0 0 0 0 0 0 0 0 0 0 0 20 0.002 
695 2 0.0108778 0.0701059 0.0280558 0 0 0 0.0868612 -0.119359 -0.148535 0 -0.000164368 0 0 0 0 0 0 0 0 0 0 0 0 0 0 0 0 0 36 0.002 
1191 3 0.00682263 0.0710745 0.0296733 0 0 0 0.074857 0.109293 -0.278047 -0.000239556 -0.00092919 0.00241391 0 0 0 0 0 0 0 1 0 0 0 0 0 0 0 0 27 0.002 
1176 6 0.0168391 0.0715396 0.0289022 0 0 0 0.207869 -0.262989 -0.172752 -0.000295707 7.91517e-07 -0.000324985 0 0 0 0 0 1 0 0 0 0 0 0 0 0 0 0 14 0.002 
531 1 0.00299836 0.073575 0.029465 0 0 0 0.0594218 -0.016359 -0.0175043 -0.0119939 0.00431804 -0.000631865 1 0 0 0 0 0 0 0 0 0 0 0 0 0 0 0 67 0.002 
329 7 0.0104937 0.0738676 0.0297233 0 0 0 0.190584 -0.126741 0.0413971 0 -0.000164368 0 0 0 0 0 0 0 0 0 0 0 0 0 0 0 0 0 52 0.002 
818 4 0.0143549 0.0746696 0.0289978 0 0 0 0.154038 -0.264749 0.012907 0.000268005 -0.000308522 -0.00123725 0 0 0 2 0 1 0 0 0 0 0 0 0 0 0 0 33 0.002 
240 1 0.0135001 0.0542247 0.0308173 0 0 0 1.69343 -0.880534 -0.965433 0 -0.000164368 0 0 0 0 0 0 0 0 0 0 0 0 0 0 0 0 0 44 0.002 
1104 4 0.00307844 0.0635869 0.0320979 0 0 0 -0.0336138 -0.12063 -0.150083 0 -0.000164368 0 0 0 0 0 0 0 0 0 0 0 0 0 0 0 0 0 12 0.002 
928 2 0.00762955 0.064892 0.0323204 0 0 0 0.0305945 0.0598268 0.0371978 0.00226914 0.00279421 -0.00126934 0 1 0 0 0 0 0 1 0 0 0 0 0 0 0 0 43 0.002 
324 5 0.0115378 0.0659524 0.0321771 0 0 0 0.0771626 -0.0642382 -0.00162183 0.000158674 0.000170281 -3.19534e-05 0 0 0 0 1 0 0 0 0 0 0 0 0 0 0 0 50 0.002 
1148 4 0.0140061 0.0689344 0.0306024 0 0 0 0.191512 -0.193548 -0.0906728 0 -0.000164368 0 0 0 0 0 0 0 0 0 0 0 0 0 0 0 0 0 12 0.002 
314 6 0.00696494 0.0609794 0.0327292 0 0 0 -0.0548348 0.0388478 -0.121659 -0.000272196 -0.00501391 0.0030065 0 1 0 0 0 0 0 0 0 0 0 0 0 0 0 0 32 0.002 
490 2 0.0157269 0.0592341 0.0329926 0 0 0 0.0577292 -0.293865 -0.0126657 0 -0.000164368 0 0 0 0 0 0 0 0 0 0 0 0 0 0 0 0 0 70 0.002 
845 3 0.0114774 0.061815 0.0329472 0 0 0 0.269086 -0.205507 -0.0483604 0 -0.000164368 0 0 0 0 0 0 0 0 0 0 0 0 0 0 0 0 0 32 0.002 
635 4 0.0151794 0.0642301 0.0329536 0 0 0 -0.0211127 -0.264381 0.0415632 0 -0.000164368 0 0 0 0 0 0 0 0 0 0 0 0 0 0 0 0 0 53 0.002 
1071 3 0.00301688 0.0676585 0.0330075 0 0 0 0.0486659 -0.0365031 -0.10811 0.00084645 0.00076248 0.000462388 0 0 1 0 0 0 0 0 0 0 0 0 0 0 0 0 17 0.002 
1110 7 0.0177561 0.0672694 0.0325742 0 0 0 -0.012406 -0.219185 -0.0291798 0 -0.000164368 0 0 0 0 0 0 0 0 0 0 0 0 0 0 0 0 0 19 0.002 
1122 1 0.00877909 0.0687491 0.0329083 0 0 0 -0.00912123 -0.0736048 -0.0356278 -0.000158674 -0.000499017 3.19534e-05 0 0 0 0 1 0 0 0 0 0 0 0 0 0 0 0 25 0.002 
627 2 0.00300361 0.0716576 0.0330029 0 0 0 0.050046 0.0160595 -0.0017625 -0.000585331 -0.0017491 -0.00262883 0 1 1 0 0 0 0 0 0 0 0 0 0 0 0 0 45 0.002 
92 2 0.0115704 0.0717461 0.0329847 0 0 0 0.100317 -0.188392 -0.0142534 0 -0.000164368 0 0 0 0 0 0 0 0 0 0 0 0 0 0 0 0 0 58 0.002 
442 7 0.0165922 0.0712054 0.0329673 0 0 0 0.110014 -0.106815 -0.0119909 0 -0.000164368 0 0 0 0 0 0 0 0 0 0 0 0 0 0 0 0 0 42 0.002 
1172 8 0.00756128 0.073411 0.0328951 0 0 0 0.0778756 -0.00128718 -0.0939651 0 -0.000164368 0 0 0 0 0 0 0 0 0 0 0 0 0 0 0 0 0 22 0.002 
718 11 0.0144163 0.0745748 0.0329908 0 0 0 0.0736922 -0.114126 0.0271014 -0.00302611 -0.000457094 -0.000958265 0 0 0 1 0 0 0 0 0 1 0 0 0 0 0 0 51 0.002 
933 1 0.00345714 0.0788419 -0.0317495 0 0 0 1.1548 0.694998 1.50306 0 -0.000164368 0 0 0 0 0 0 0 0 0 0 0 0 0 0 0 0 0 28 0.002 
998 5 0.0141363 0.0899681 -0.0303415 0 0 0 -4.78873 8.262 6.36142 0 -0.000164368 0 0 0 0 0 0 0 0 0 0 0 0 0 0 0 0 0 19 0.002 
790 3 0.0037039 0.0867093 -0.0324962 0 0 0 1.62928 -0.812255 -0.00176727 0 -0.000164368 0 0 0 0 0 0 0 0 0 0 0 0 0 0 0 0 0 37 0.002 
1280 1 0.00576688 0.0908223 -0.0292966 0 0 0 -2.37282 -1.22985 5.46123 0 -0.000164368 0 0 0 0 0 0 0 0 0 0 0 0 0 0 0 0 0 0 0.002 
716 5 0.0126233 0.101835 -0.0298669 0 0 0 2.31554 2.45763 4.49204 0 -0.000164368 0 0 0 0 0 0 0 0 0 0 0 0 0 0 0 0 0 28 0.002 
4 6 0.00566875 0.102187 -0.0325051 0 0 0 0.0528142 -0.88874 0.391504 0 -0.000164368 0 0 0 0 0 0 0 0 0 0 0 0 0 0 0 0 0 32 0.002 
194 2 0.0124865 0.105537 -0.0328142 0 0 0 1.0061 1.61832 0.700643 0 -0.000164368 0 0 0 0 0 0 0 0 0 0 0 0 0 0 0 0 0 39 0.002 
431 5 0.00353319 0.107723 -0.0329863 0 0 0 0.247053 0.46731 0.015968 0 -0.000164368 0 0 0 0 0 0 0 0 0 0 0 0 0 0 0 0 0 13 0.002 
451 1 0.00900521 0.10758 -0.0328418 0 0 0 -0.553396 1.28997 -0.21912 0 -0.000164368 0 0 0 0 0 0 0 0 0 0 0 0 0 0 0 0 0 37 0.002 
894 9 0.017757 0.105856 -0.0327071 0 0 0 0.551235 -1.15503 0.0530203 0 -0.000164368 0 0 0 0 0 0 0 0 0 0 0 0 0 0 0 0 0 12 0.002 
896 1 0.00587679 0.0958617 -0.0293129 0 0 0 0.0561121 -0.718904 0.166589 0 -0.000164368 0 0 0 0 0 0 0 0 0 0 0 0 0 0 0 0 0 38 0.002 
252 6 0.00324978 0.0997068 -0.0303938 0 0 0 -0.0321304 -0.980596 0.0690686 0 -0.000164368 0 0 0 0 0 0 0 0 0 0 0 0 0 0 0 0 0 31 0.002 
641 1 0.00395529 0.0850832 -0.0272403 0 0 0 0.430105 3.29745 1.42391 0 -0.000164368 0 0 0 0 0 0 0 0 0 0 0 0 0 0 0 0 0 24 0.002 
322 2 0.00562075 0.103602 -0.0283385 0 0 0 -0.456468 0.0395947 -0.199032 0 -0.000164368 0 0 0 0 0 0 0 0 0 0 0 0 0 0 0 0 0 53 0.002 
706 9 0.00361642 0.107428 -0.0289607 0 0 0 0.0765338 0.200182 -0.0511922 -0.0109857 -0.00530665 -0.0155922 0 0 0 0 0 0 0 0 1 0 0 0 0 0 0 0 61 0.002 
1312 4 0.0132531 0.106089 -0.0278718 0 0 0 0.00358169 -0.749735 0.431592 0 -0.000164368 0 0 0 0 0 0 0 0 0 0 0 0 0 0 0 0 0 0 0.002 
748 7 0.017391 0.105736 -0.0273342 0 0 0 -0.967785 -0.955076 0.67601 0 -0.000164368 0 0 0 0 0 0 0 0 0 0 0 0 0 0 0 0 0 36 0.002 
61 8 0.016093 0.0934729 -0.0263305 0 0 0 0.479719 1.56199 -1.05651 0 -0.000164368 0 0 0 0 0 0 0 0 0 0 0 0 0 0 0 0 0 21 0.002 
1100 2 0.00678612 0.0997233 -0.0255343 0 0 0 0.311345 -0.271943 -0.706725 0 -0.000164368 0 0 0 0 0 0 0 0 0 0 0 0 0 0 0 0 0 13 0.002 
536 2 0.00303797 0.101393 -0.0260508 0 0 0 -0.0756523 -0.256361 0.28388 0 -0.000164368 0 0 0 0 0 0 0 0 0 0 0 0 0 0 0 0 0 41 0.002 
77 12 0.00732039 0.105535 -0.0250448 0 0 0 -0.0846841 -0.06612 -0.71877 -0.006573 0.0131684 -0.0082794 0 0 0 0 0 0 0 0 0 0 0 3 0 0 0 0 55 0.002 
974 2 0.00422042 0.108022 -0.0250716 0 0 0 -0.629737 -0.367379 0.0996606 0.00531934 0.00878378 0.00903284 0 0 0 0 0 0 0 0 1 0 0 1 0 0 0 0 32 0.002 
514 8 0.0103913 0.108019 -0.0256345 0 0 0 -0.155801 0.415009 -0.374705 -0.0502681 -0.0926469 -0.00657124 0 0 0 0 0 0 0 0 0 0 0 1 0 0 0 0 50 0.002 
794 6 0.014995 0.0885248 -0.0236261 0 0 0 3.13075 3.51769 0.178043 0 -0.000164368 0 0 0 0 0 0 0 0 0 0 0 0 0 0 0 0 0 20 0.002 
527 8 0.00702615 0.0936164 -0.0221557 0 0 0 0.143588 -0.762935 0.644775 0 -0.000164368 0 0 0 0 0 0 0 0 0 0 0 0 0 0 0 0 0 37 0.002 
126 2 0.00959411 0.102483 -0.0239113 0 0 0 0.940267 0.409538 -1.61144 0.0176968 -0.0211396 0.0117831 0 0 0 0 0 0 0 0 0 0 0 1 0 0 0 0 33 0.002 
735 8 0.00300072 0.104606 -0.0233665 0 0 0 0.00654823 -0.0698892 0.202117 0 -0.000164368 0 0 0 0 0 0 0 0 0 0 0 0 0 0 0 0 0 23 0.002 
1299 5 0.0138404 0.107203 -0.0220926 0 0 0 -0.919051 0.449731 0.577779 0.000791398 0.00208599 -0.00591164 0 0 0 0 1 0 0 0 0 0 0 0 0 0 0 0 2 0.002 
731 2 0.0149223 0.0862265 -0.020021 0 0 0 0.00831853 2.44782 1.7058 0 -0.000164368 0 0 0 0 0 0 0 0 0 0 0 0 0 0 0 0 0 27 0.002 
972 3 0.00800606 0.107422 -0.0214942 0 0 0 0.148397 -0.06116 -0.133988 0 -0.000164368 0 0 0 0 0 0 0 0 0 0 0 0 0 0 0 0 0 26 0.002 
985 4 0.0061615 0.0824354 -0.0193537 0 0 0 1.1478 4.59178 -3.29042 0 -0.000164368 0 0 0 0 0 0 0 0 0 0 0 0 0 0 0 0 0 23 0.002 
368 5 0.00554809 0.0966614 -0.01955 0 0 0 0.496432 0.15487 0.430724 0.0078601 -0.0123714 -0.0024747 0 0 0 0 1 0 0 0 0 0 0 0 0 0 0 0 43 0.002 
1270 6 0.00309015 0.0997439 -0.0189448 0 0 0 0.0489217 -0.438378 0.441789 -0.0078601 0.0120427 0.0024747 0 0 0 0 1 0 0 0 0 0 0 0 0 0 0 0 1 0.002 
997 6 0.0045251 0.103846 -0.0181223 0 0 0 0.140617 -0.233451 0.207452 0 -0.000164368 0 0 0 0 0 0 0 0 0 0 0 0 0 0 0 0 0 22 0.002 
621 4 0.0038933 0.107767 -0.0191302 0 0 0 0.170169 -0.060531 0.510253 0 -0.000164368 0 0 0 0 0 0 0 0 0 0 0 0 0 0 0 0 0 38 0.002 
1287 2 0.0140582 0.107457 -0.0181612 0 0 0 0.543823 0.280024 1.50423 -0.000791398 -0.00241473 0.00591164 0 0 0 0 1 0 0 0 0 0 0 0 0 0 0 0 2 0.002 
211 2 0.013883 0.0878342 -0.0162227 0 0 0 0.38264 0.109468 0.100108 0 -0.000164368 0 0 0 0 0 0 0 0 0 0 0 0 0 0 0 0 0 32 0.002 
1076 2 0.0108068 0.104804 -0.0159001 0 0 0 0.274375 -0.128856 0.0532726 0 -0.000164368 0 0 0 0 0 0 0 0 0 0 0 0 0 0 0 0 0 16 0.002 
1043 8 0.00768565 0.107257 -0.0166682 0 0 0 0.615481 -0.000626727 0.0849487 0 -0.000164368 0 0 0 0 0 0 0 0 0 0 0 0 0 0 0 0 0 13 0.002 
446 9 0.00312797 0.0851145 -0.014439 0 0 0 -0.0957341 0.824725 -1.17623 0 -0.000164368 0 0 0 0 0 0 0 0 0 0 0 0 0 0 0 0 0 54 0.002 
1300 2 0.0178496 0.105138 -0.0131742 0 0 0 0.060929 0.142366 2.3364 0 -0.000164368 0 0 0 0 0 0 0 0 0 0 0 0 0 0 0 0 0 0 0.002 
1293 6 0.0109915 0.099627 -0.0123013 0 0 0 -0.533041 0.134319 -0.22588 0 -0.000164368 0 0 0 0 0 0 0 0 0 0 0 0 0 0 0 0 0 0 0.002 
1123 3 0.0143293 0.106753 -0.0115137 0 0 0 -0.955627 0.0664289 1.77538 0 -0.000164368 0 0 0 0 0 0 0 0 0 0 0 0 0 0 0 0 0 9 0.002 
154 5 0.0161341 0.0847702 -0.00938708 0 0 0 -0.120859 0.459538 -0.490812 0 -0.000164368 0 0 0 0 0 0 0 0 0 0 0 0 0 0 0 0 0 14 0.002 
741 5 0.00815937 0.105708 -0.00943054 0 0 0 2.1693 4.20644 1.24165 0 -0.000164368 0 0 0 0 0 0 0 0 0 0 0 0 0 0 0 0 0 31 0.002 
263 2 0.00315084 0.107127 -0.0093765 0 0 0 -2.11273 -2.94747 0.385943 0 -0.000164368 0 0 0 0 0 0 0 0 0 0 0 0 0 0 0 0 0 31 0.002 
883 2 0.0114831 0.0960065 -0.00694264 0 0 0 1.05836 3.37156 -0.138338 0 -0.000164368 0 0 0 0 0 0 0 0 0 0 0 0 0 0 0 0 0 24 0.002 
321 7 0.00459565 0.0864999 -0.00628415 0 0 0 0.162806 0.855386 -1.24461 0 -0.000164368 0 0 0 0 0 0 0 0 0 0 0 0 0 0 0 0 0 37 0.002 
938 2 0.0166196 0.0869052 -0.00506749 0 0 0 0.774307 0.571458 -0.959871 0 -0.000164368 0 0 0 0 0 0 0 0 0 0 0 0 0 0 0 0 0 14 0.002 
961 1 0.00538867 0.0972663 -0.00460761 0 0 0 -0.807316 -0.341836 0.407448 0 -0.000164368 0 0 0 0 0 0 0 0 0 0 0 0 0 0 0 0 0 15 0.002 
550 10 0.00500574 0.0850403 -0.00238203 0 0 0 -0.195455 1.33118 -0.41494 0 -0.000164368 0 0 0 0 0 0 0 0 0 0 0 0 0 0 0 0 0 42 0.002 
230 6 0.00718667 0.0890219 -0.00218657 0 0 0 -0.0334873 1.89107 -0.0374702 0 -0.000164368 0 0 0 0 0 0 0 0 0 0 0 0 0 0 0 0 0 51 0.002 
193 8 0.00891738 0.0778738 -0.00122315 0 0 0 -0.568384 0.487032 -0.826941 0 -0.000164368 0 0 0 0 0 0 0 0 0 0 0 0 0 0 0 0 0 54 0.002 
626 1 0.0148701 0.0883328 -0.000380928 0 0 0 1.2274 0.500771 -0.0947939 -0.0323994 -0.0198866 -0.0891482 0 0 0 0 0 0 0 0 0 0 0 0 0 0 0 0 34 0.002 
920 3 0.00870141 0.10239 -0.000239277 0 0 0 -0.635078 0.864827 1.02559 0.0699677 0.018255 -0.101376 0 0 2 0 0 0 0 0 0 0 0 0 0 0 0 0 25 0.002 
1253 2 0.0089287 0.106332 -0.000205852 0 0 0 1.43053 0.148145 1.16445 -0.052681 0.152341 -0.175108 0 1 1 0 0 0 0 0 0 0 0 0 0 0 0 0 3 0.002 
493 5 0.00295079 0.0773688 0.000966192 0 0 0 0.901678 0.355382 -1.07221 0.034373 0.0432983 -0.0151054 0 0 0 0 0 0 0 0 0 0 0 0 0 0 0 0 53 0.002 
967 2 0.0137524 0.0829113 0.000651272 0 0 0 -0.0880308 0.282747 -0.276383 0 -0.000164368 0 0 0 0 0 0 0 0 0 0 0 0 0 0 0 0 0 17 0.002 
676 1 0.0156251 0.0906415 0.00274343 0 0 0 -1.0622 -1.31142 0.987386 0.0323994 0.0195579 0.0891482 0 0 0 0 0 0 0 0 0 0 0 0 0 0 0 0 38 0.002 
1153 8 0.00858997 0.0993816 0.00224005 0 0 0 -0.748895 -0.0966662 0.0171387 -0.0248024 -0.125591 0.109737 0 0 1 0 0 0 0 0 0 0 0 0 0 0 0 0 25 0.002 
125 10 0.00342839 0.102871 0.00324554 0 0 0 -0.0652809 -0.774138 1.97199 0 -0.000164368 0 0 0 0 0 0 0 0 0 0 0 0 0 0 0 0 0 43 0.002 
440 5 0.0140688 0.103018 0.00133505 0 0 0 -0.818265 -0.395188 0.549008 0 -0.000164368 0 0 0 0 0 0 0 0 0 0 0 0 0 0 0 0 0 60 0.002 
319 4 0.0104738 0.0788481 0.00319698 0 0 0 -0.215775 2.46361 -2.95939 0.0420638 -0.206703 -0.00957784 0 0 0 1 0 0 0 0 0 0 0 0 0 0 0 0 10 0.002 
1229 6 0.00332583 0.0806237 0.0035096 0 0 0 0.147768 1.22908 -0.121624 0 -0.000164368 0 0 0 0 0 0 0 0 0 0 0 0 0 0 0 0 0 5 0.002 
1218 8 0.00809025 0.0819029 0.00358775 0 0 0 -0.761393 1.78328 -0.646306 -0.0420638 0.206374 0.00957784 0 0 0 1 0 0 0 0 0 0 0 0 0 0 0 0 6 0.002 
225 4 0.00466556 0.0892247 0.00386631 0 0 0 0.00450208 -0.2787 0.120011 0 -0.000164368 0 0 0 0 0 0 0 0 0 0 0 0 0 0 0 0 0 22 0.002 
407 4 0.00356929 0.0972769 0.00585801 0 0 0 1.65289 -0.518553 0.72244 -0.00417322 -0.045544 -0.0326822 0 0 0 0 0 0 0 0 0 0 0 0 0 0 0 0 35 0.002 
339 4 0.00841865 0.105694 0.00362771 0 0 0 -0.372272 1.37844 0.527308 0.00751573 -0.0456625 0.166747 0 1 0 0 0 0 0 0 0 0 0 0 0 0 0 0 39 0.002 
257 6 0.0179795 0.103775 0.00485504 0 0 0 -0.70708 -0.494766 0.874165 0 -0.000164368 0 0 0 0 0 0 0 0 0 0 0 0 0 0 0 0 0 34 0.002 
941 3 0.00757178 0.0786357 0.00678933 0 0 0 -0.00846623 0.832255 -0.924236 0 -0.000164368 0 0 0 0 0 0 0 0 0 0 0 0 0 0 0 0 0 30 0.002 
297 3 0.00299806 0.083268 0.0066922 0 0 0 0.0451079 0.106633 0.342557 -0.00170106 0.000287832 -0.00171531 0 0 0 0 0 0 0 0 0 0 0 0 0 0 0 0 43 0.002 
926 2 0.00311664 0.0873645 0.00766444 0 0 0 0.0151663 0.212236 0.477824 0 -0.000164368 0 0 0 0 0 0 0 0 0 0 0 0 0 0 0 0 0 23 0.002 
143 7 0.0152948 0.0899148 0.00719833 0 0 0 0.924353 1.38477 0.340714 0 -0.000164368 0 0 0 0 0 0 0 0 0 0 0 0 0 0 0 0 0 7 0.002 
342 4 0.0120485 0.0938536 0.0065703 0 0 0 -0.422896 -0.904263 -0.889176 0 -0.000164368 0 0 0 0 0 0 0 0 0 0 0 0 0 0 0 0 0 45 0.002 
1289 4 0.00408612 0.10007 0.00855096 0 0 0 -0.136325 -0.137209 2.34316 -0.000930401 0.0449118 0.00467763 0 0 0 0 0 0 0 0 0 0 0 0 0 0 0 0 1 0.002 
832 8 0.0170394 0.0998129 0.00604338 0 0 0 0.417292 0.00788165 0.320871 0 -0.000164368 0 0 0 0 0 0 0 0 0 0 0 0 0 0 0 0 0 42 0.002 
799 3 0.00811977 0.105754 0.00793144 0 0 0 0.0214852 0.446924 0.704449 0 -0.000164368 0 0 0 0 0 0 0 0 0 0 0 0 0 0 0 0 0 41 0.002 
1223 2 0.00341023 0.0779349 0.00843899 0 0 0 0.374867 1.58334 -1.48085 0 -0.000164368 0 0 0 0 0 0 0 0 0 0 0 0 0 0 0 0 0 4 0.002 
753 6 0.0173046 0.0770176 0.00852564 0 0 0 1.0304 2.09283 -0.969766 0 -0.000164368 0 0 0 0 0 0 0 0 0 0 0 0 0 0 0 0 0 64 0.002 
1152 2 0.0142357 0.0801969 0.00710224 0 0 0 -0.415196 1.89313 -1.57942 0 -0.000164368 0 0 0 0 0 0 0 0 0 0 0 0 0 0 0 0 0 8 0.002 
1009 1 0.00670611 0.0824904 0.00816868 0 0 0 -0.189373 1.06335 0.558188 0 -0.000164368 0 0 0 0 0 0 0 0 0 0 0 0 0 0 0 0 0 12 0.002 
959 6 0.00450838 0.0755297 -0.00752727 0 0 0 -2.67603 3.00382 -7.45433 0 -0.000164368 0 0 0 0 0 0 0 0 0 0 0 0 0 0 0 0 0 37 0.002 
189 5 0.0153024 0.107001 0.00854796 0 0 0 -0.709313 0.159155 0.501184 0 -0.000164368 0 0 0 0 0 0 0 0 0 0 0 0 0 0 0 0 0 28 0.002 
1292 9 0.00334269 0.107046 0.00880006 0 0 0 0.0666913 -0.163105 0.505383 0 -0.000164368 0 0 0 0 0 0 0 0 0 0 0 0 0 0 0 0 0 1 0.002 
732 4 0.00593589 0.0752779 0.00434414 0 0 0 0.659828 1.48641 -3.22615 0 -0.000164368 0 0 0 0 0 0 0 0 0 0 0 0 0 0 0 0 0 39 0.002 
1185 6 0.00923121 0.0756574 0.0110828 0 0 0 0.92366 0.473867 -0.695259 -0.00425574 -0.00627808 0.000439124 0 0 0 0 0 1 0 0 0 0 0 0 0 0 0 0 9 0.002 
827 2 0.00622824 0.0784648 0.0119942 0 0 0 0.03712 0.0591215 -0.413465 0 -0.000164368 0 0 0 0 0 0 0 0 0 0 0 0 0 0 0 0 0 25 0.002 
606 4 0.00305116 0.0808981 0.0121402 0 0 0 -0.21263 0.0361791 -0.16261 -0.00184758 -0.00318884 0.00404082 0 0 0 1 0 0 0 0 0 0 0 0 0 0 0 0 55 0.002 
824 6 0.0185999 0.0945502 0.0112977 0 0 0 -0.274362 0.100511 0.0819291 0 -0.000164368 0 0 0 0 0 0 0 0 0 0 0 0 0 0 0 0 0 36 0.002 
140 4 0.00441852 0.0983771 0.0120818 0 0 0 0.519952 -0.628779 3.29076 0.00510362 0.000139085 0.0280045 0 0 0 0 0 0 0 0 0 0 0 0 0 0 0 0 39 0.002 
927 3 0.0158486 0.0986918 0.0105218 0 0 0 0.0547819 0.0642053 -0.090259 0.0015093 -0.00116376 0.00125587 0 0 2 0 0 0 0 0 0 0 0 0 0 0 0 0 23 0.002 
1062 4 0.00582539 0.103175 0.0105498 0 0 0 -0.37189 0.109699 0.389971 0 -0.000164368 0 0 0 0 0 0 0 0 0 0 0 0 0 0 0 0 0 19 0.002 
1160 2 0.0136728 0.106168 0.0125261 0 0 0 -0.148759 -0.0818434 0.366452 0.0471097 -0.019143 -0.0283691 0 1 0 0 0 0 0 0 0 0 0 0 0 0 0 0 9 0.002 
639 9 0.00766422 0.10801 0.0113486 0 0 0 0.058119 -0.0294389 -0.0269104 -7.33764e-05 -0.0122208 -0.00194421 0 0 0 0 0 0 0 0 0 0 0 0 0 0 0 0 44 0.002 
1092 4 0.0158616 0.0789771 0.0135384 0 0 0 0.663567 -0.768164 -0.809322 0.00878885 0.0591584 -0.0373041 0 0 0 0 0 0 0 0 0 0 0 0 0 0 0 0 12 0.002 
1166 1 0.0141803 0.0834233 0.0136198 0 0 0 0.108032 -0.41837 1.78227 0 -0.000164368 0 0 0 0 0 0 0 0 0 0 0 0 0 0 0 0 0 7 0.002 
871 2 0.00307671 0.0848371 0.0130874 0 0 0 -0.145819 -0.0928577 0.301687 0 -0.000164368 0 0 0 0 0 0 0 0 0 0 0 0 0 0 0 0 0 16 0.002 
467 1 0.01842 0.0873827 0.0137613 0 0 0 0.347205 -0.217734 -0.3276 0 -0.000164368 0 0 0 0 0 0 0 0 0 0 0 0 0 0 0 0 0 41 0.002 
336 9 0.00437486 0.0890963 0.0129285 0 0 0 -0.330824 -0.42489 0.446253 -0.00136684 -0.00593015 0.0121749 0 0 0 0 0 0 0 0 1 0 0 0 0 0 0 0 46 0.002 
1201 4 0.0145414 0.0903877 0.013729 0 0 0 -0.648393 -0.84323 -0.10132 0 -0.000164368 0 0 0 0 0 0 0 0 0 0 0 0 0 0 0 0 0 3 0.002 
568 1 0.00996705 0.0955967 0.0137114 0 0 0 0.0360908 -0.490503 0.777741 -0.00107317 -0.00217963 -0.00222825 1 0 0 0 0 0 0 0 0 0 0 0 0 0 0 0 17 0.002 
570 1 0.0130905 0.0986107 0.0134169 0 0 0 -0.145298 -0.109979 -0.266097 0.00103354 -0.000897629 -0.00206437 1 0 1 0 0 0 0 0 0 0 0 0 0 0 0 0 38 0.002 
327 3 0.00438781 0.102002 0.0143134 0 0 0 0.247903 0.318367 0.275478 0 -0.000164368 0 0 0 0 0 0 0 0 0 0 0 0 0 0 0 0 0 9 0.002 
989 4 0.00830817 0.101176 0.0130853 0 0 0 -0.255998 0.191056 0.0187125 0 -0.000164368 0 0 0 0 0 0 0 0 0 0 0 0 0 0 0 0 0 12 0.002 
300 1 0.0180645 0.105446 0.0140441 0 0 0 -0.888469 0.0130402 0.878857 0 -0.000164368 0 0 0 0 0 0 0 0 0 0 0 0 0 0 0 0 0 41 0.002 
820 4 0.0143694 0.0761716 0.0158521 0 0 0 -0.345679 -0.0796448 0.202501 -0.00878885 -0.0594872 0.0373041 0 0 0 0 0 0 0 0 0 0 0 0 0 0 0 0 17 0.002 
674 10 0.00317857 0.0786314 0.0154262 0 0 0 0.154699 -0.155648 -0.0644767 0.00184758 0.00286011 -0.00404082 0 0 0 1 0 0 0 0 0 0 0 0 0 0 0 0 32 0.002 
801 5 0.00929363 0.0794645 0.0144518 0 0 0 0.567785 -0.206464 -0.223936 0 -0.000164368 0 0 0 0 0 0 0 0 0 0 0 0 0 0 0 0 0 29 0.002 
1212 1 0.006755 0.0831864 0.0154195 0 0 0 -0.192853 -0.0239973 -0.165265 0 -0.000164368 0 0 0 0 0 0 0 0 0 0 0 0 0 0 0 0 0 10 0.002 
151 8 0.00425922 0.0869881 0.0163214 0 0 0 -0.283046 -0.724395 0.779361 0.00173009 0.00587768 -0.00765921 0 0 0 0 0 0 0 1 1 0 0 0 0 0 0 0 23 0.002 
1068 4 0.00848182 0.0870695 0.0146799 0 0 0 -0.221057 0.220637 0.0545733 -0.00947381 -0.00975379 -0.00497124 0 0 0 0 0 0 0 0 0 0 0 0 0 0 0 0 14 0.002 
726 1 0.00663302 0.091085 0.0161049 0 0 0 0.0947592 -0.484298 0.0635807 0 -0.000164368 0 0 0 0 0 0 0 0 0 0 0 0 0 0 0 0 0 37 0.002 
951 10 0.0105358 0.0920478 0.0159991 0 0 0 0.138273 -0.00144323 0.105766 0.00415187 -0.00533025 0.00156695 0 0 0 0 0 0 0 0 0 1 0 0 0 0 0 0 23 0.002 
1117 1 0.00355504 0.0937697 0.01478 0 0 0 0.444668 -0.0464306 -0.0701123 0 -0.000164368 0 0 0 0 0 0 0 0 0 0 0 0 0 0 0 0 0 0 0.002 
685 7 0.00618795 0.0972921 0.016421 0 0 0 -0.0676242 -0.0033734 -0.170783 0 -0.000164368 0 0 0 0 0 0 0 0 0 0 0 0 0 0 0 0 0 32 0.002 
1250 6 0.0105134 0.098435 0.0164628 0 0 0 0.179214 0.248117 0.0548138 0.000404536 -0.00188919 -0.00207185 2 0 0 0 0 2 0 0 0 0 0 0 0 0 0 0 7 0.002 
574 5 0.00309362 0.106085 0.0150832 0 0 0 -0.0718539 -0.165443 0.0441938 0 -0.000164368 0 0 0 0 0 0 0 0 0 0 0 0 0 0 0 0 0 26 0.002 
888 1 0.0108579 0.10738 0.0150062 0 0 0 -0.344679 0.241201 0.456936 0.00773436 0.0029503 0.00904229 2 1 0 0 0 0 0 0 0 0 0 0 0 0 0 0 32 0.002 
846 5 0.00695632 0.108007 0.0152968 0 0 0 -0.132698 0.0932029 0.159899 -0.0401327 0.000274899 0.0122504 1 0 0 0 1 0 0 0 0 0 0 0 0 0 0 0 18 0.002 
1193 8 0.00594071 0.0756339 0.0189244 0 0 0 0.284519 0.250324 -0.0431643 -0.0107158 -0.00678105 -0.00981128 0 0 0 0 0 0 0 0 0 0 0 0 0 0 0 0 26 0.002 
245 1 0.0097155 0.0760923 0.0167697 0 0 0 0.336711 0.140317 -0.563968 0 -0.000164368 0 0 0 0 0 0 0 0 0 0 0 0 0 0 0 0 0 34 0.002 
179 1 0.00602433 0.0801967 0.0182623 0 0 0 -0.0705968 0.228463 0.520311 0 -0.000164368 0 0 0 0 0 0 0 0 0 0 0 0 0 0 0 0 0 37 0.002 
128 4 0.0153797 0.0804679 0.0186056 0 0 0 -0.0101029 -0.27769 0.518956 0 -0.000164368 0 0 0 0 0 0 0 0 0 0 0 0 0 0 0 0 0 46 0.002 
481 2 0.00303719 0.0825165 0.0167695 0 0 0 0.10046 0.174769 -0.144815 0 -0.000164368 0 0 0 0 0 0 0 0 0 0 0 0 0 0 0 0 0 24 0.002 
287 6 0.0100462 0.0844099 0.0176251 0 0 0 -0.226496 -0.0935608 -0.0603339 0 -0.000164368 0 0 0 0 0 0 0 0 0 0 0 0 0 0 0 0 0 35 0.002 