ITEM: TIMESTEP
9700000
ITEM: NUMBER OF ATOMS
1191
ITEM: BOX BOUNDS ff ff ff
-0.01 0.45
-0.15 0.15
-0.08 0.1
ITEM: ATOMS id type x y z ix iy iz vx vy vz fx fy fz c_cc_1 c_cc_2 c_cc_3 c_cc_4 c_cc_5 c_cc_6 c_cc_7 c_cc_8 c_cc_9 c_cc_10 c_cc_11 c_cc_12 c_cc_13 c_cc_14 c_cc_15 c_cc_16 f_fppacc radius 
457 6 0.00401493 -0.0577124 0.000921272 0 0 0 0.53579 0.983048 18.5735 0 -0.000164368 0 0 0 0 0 0 0 0 0 0 0 0 0 0 0 0 0 25 0.002 
272 2 0.0085259 -0.0427815 0.0387761 0 0 0 0.307031 12.9954 12.805 0 -0.000164368 0 0 0 0 0 0 0 0 0 0 0 0 0 0 0 0 0 42 0.002 
303 3 0.0129914 -0.0458628 0.0355645 0 0 0 0.233282 4.47392 5.18567 -0.000329352 0.430338 -0.410065 0 0 0 0 0 0 0 0 0 0 0 0 0 0 0 0 29 0.002 
126 2 0.0103289 0.00355939 -0.0522297 0 0 0 0.0336657 -11.0513 -0.927786 0 -0.000164368 0 0 0 0 0 0 0 0 0 0 0 0 0 0 0 0 0 24 0.002 
189 5 0.00301478 0.0233851 -0.0467896 0 0 0 0.488919 -5.39102 -3.50007 0 -0.000164368 0 0 0 0 0 0 0 0 0 0 0 0 0 0 0 0 0 26 0.002 
510 9 0.00654045 0.0157081 -0.0357362 0 0 0 -0.267506 -8.71518 -0.545804 0 -0.000164368 0 0 0 0 0 0 0 0 0 0 0 0 0 0 0 0 0 63 0.002 
1209 10 0.0148633 0.0321667 -0.0432516 0 0 0 -6.36852 -19.7996 -9.69585 0 -0.000164368 0 0 0 0 0 0 0 0 0 0 0 0 0 0 0 0 0 0 0.002 
659 4 0.00904041 0.0285393 0.0502485 0 0 0 6.52091 -11.1341 0.724589 0 -0.000164368 0 0 0 0 0 0 0 0 0 0 0 0 0 0 0 0 0 14 0.002 
1058 2 0.0100567 0.0684094 0.00556744 0 0 0 0.157045 0.388372 -3.00552 0 -0.000164368 0 0 0 0 0 0 0 0 0 0 0 0 0 0 0 0 0 17 0.002 
41 1 0.015124 0.0528566 -0.0355 0 0 0 -3.86903e-12 -3.54319e-12 2.1745e-12 1.0112e-11 2.50637e-12 -7.53175e-13 0 0 0 0 0 0 0 0 0 0 0 0 0 0 0 0 2 0.002 
724 1 0.00449617 0.0734803 -0.0328777 0 0 0 2.72839 -1.51673 4.5639 0 -0.000164368 0 0 0 0 0 0 0 0 0 0 0 0 0 0 0 0 0 24 0.002 
481 2 0.0127767 0.0384489 -0.0257024 0 0 0 4.91769 -10.1848 5.10493 0 -0.000164368 0 0 0 0 0 0 0 0 0 0 0 0 0 0 0 0 0 22 0.002 
1012 7 0.00377552 0.0734753 0.007885 0 0 0 -0.173387 1.06025 -1.07 0 -0.000164368 0 0 0 0 0 0 0 0 0 0 0 0 0 0 0 0 0 24 0.002 
831 4 0.017204 0.0749169 -0.0264511 0 0 0 4.49173 5.02886 -1.83728 0 -0.000164368 0 0 0 0 0 0 0 0 0 0 0 0 0 0 0 0 0 9 0.002 
430 4 0.0102812 0.0720419 -0.0196952 0 0 0 -0.276674 -1.02588 0.650028 0 -0.000164368 0 0 0 0 0 0 0 0 0 0 0 0 0 0 0 0 0 38 0.002 
339 4 0.0113782 0.0611918 -0.0156659 0 0 0 -0.921743 -2.28192 0.6088 0 -0.000164368 0 0 0 0 0 0 0 0 0 0 0 0 0 0 0 0 0 30 0.002 
1211 4 0.015062 0.0696592 -0.00808293 0 0 0 0.863321 0.489639 5.59787 0 -0.000164368 0 0 0 0 0 0 0 0 0 0 0 0 0 0 0 0 0 0 0.002 
122 5 0.00852905 0.0594776 -0.00855674 0 0 0 -3.19224 -0.228245 -3.92933 0 -0.000164368 0 0 0 0 0 0 0 0 0 0 0 0 0 0 0 0 0 49 0.002 
661 2 0.0169967 0.0623258 -0.0118521 0 0 0 0.025151 3.04775 -7.89781 0 -0.000164368 0 0 0 0 0 0 0 0 0 0 0 0 0 0 0 0 0 13 0.002 
602 6 0.00370772 0.061388 -0.00850503 0 0 0 3.50629 0.0455198 -3.85741 0 -0.000164368 0 0 0 0 0 0 0 0 0 0 0 0 0 0 0 0 0 23 0.002 
538 1 0.0100428 0.0708028 -0.00775748 0 0 0 1.21883 1.64211 -2.13772 0 -0.000164368 0 0 0 0 0 0 0 0 0 0 0 0 0 0 0 0 0 27 0.002 
927 3 0.00347099 0.0749149 -0.00816805 0 0 0 0.0360157 0.591813 -3.21126 0 -0.000164368 0 0 0 0 0 0 0 0 0 0 0 0 0 0 0 0 0 13 0.002 
154 5 0.0161291 0.0688925 -0.00394605 0 0 0 0.676959 0.84623 0.981158 0 -0.000164368 0 0 0 0 0 0 0 0 0 0 0 0 0 0 0 0 0 10 0.002 
675 1 0.00426604 0.0379228 -0.00259951 0 0 0 0.759389 -1.41731 1.24903 0 -0.000164368 0 0 0 0 0 0 0 0 0 0 0 0 0 0 0 0 0 30 0.002 
1060 2 0.00284631 0.0660736 -0.000960822 0 0 0 -0.13559 1.45839 1.58335 0.969345 -0.048545 -0.177702 0 0 0 0 0 0 0 0 0 0 0 0 0 0 0 0 7 0.002 
14 5 0.00686735 0.0582331 0.00144036 0 0 0 4.68064 3.30952 -7.05411 0 -0.000164368 0 0 0 0 0 0 0 0 0 0 0 0 0 0 0 0 0 19 0.002 
1165 7 0.00319055 0.0554681 0.00147942 0 0 0 1.42247 -3.38907 -12.1739 0 -0.000164368 0 0 0 0 0 0 0 0 0 0 0 0 0 0 0 0 0 0 0.002 
451 1 0.0169698 0.0677869 0.00552687 0 0 0 -0.0590836 1.13657 -1.53074 0 -0.000164368 0 0 0 0 0 0 0 0 0 0 0 0 0 0 0 0 0 33 0.002 
214 8 0.0116514 0.0377411 0.0110857 0 0 0 0.0835709 -2.5124 1.64467 0 -0.000164368 0 0 0 0 0 0 0 0 0 0 0 0 0 0 0 0 0 7 0.002 
874 1 0.0175879 0.0727831 0.0330002 0 0 0 -0.268247 0.264783 0.00208631 0.0289709 -0.0455537 -0.00137478 2 0 0 0 0 0 0 0 0 0 0 0 0 0 0 0 25 0.002 
316 2 0.00977224 0.0620105 0.013168 0 0 0 -1.22475 0.523841 -2.43504 0 -0.000164368 0 0 0 0 0 0 0 0 0 0 0 0 0 0 0 0 0 26 0.002 
516 2 0.0127777 0.0694484 0.0140354 0 0 0 0.194217 0.239333 -0.52231 0 -0.000164368 0 0 0 0 0 0 0 0 0 0 0 0 0 0 0 0 0 34 0.002 
593 1 0.0106521 0.0730403 0.0128009 0 0 0 1.43467 2.07212 -1.15164 0 -0.000164368 0 0 0 0 0 0 0 0 0 0 0 0 0 0 0 0 0 34 0.002 
182 2 0.0155531 0.073091 0.0125676 0 0 0 -0.866957 0.296316 -0.768189 0 -0.000164368 0 0 0 0 0 0 0 0 0 0 0 0 0 0 0 0 0 36 0.002 
869 7 0.0178478 0.0495636 0.0137934 0 0 0 0.323878 -0.677594 -8.3749 0 -0.000164368 0 0 0 0 0 0 0 0 0 0 0 0 0 0 0 0 0 19 0.002 
296 2 0.0124795 0.055455 0.0174865 0 0 0 -1.5908 -1.25229 -0.755608 0 -0.000164368 0 0 0 0 0 0 0 0 0 0 0 0 0 0 0 0 0 20 0.002 
72 3 0.016717 0.0642862 0.0168251 0 0 0 0.297561 -0.351038 -0.118864 0 -0.000164368 0 0 0 0 0 0 0 0 0 0 0 0 0 0 0 0 0 44 0.002 
576 2 0.00777057 0.0721102 0.015654 0 0 0 0.541286 1.81583 -2.4672 0 -0.000164368 0 0 0 0 0 0 0 0 0 0 0 0 0 0 0 0 0 20 0.002 
56 7 0.0124277 0.0745945 0.0181197 0 0 0 0.270001 0.219398 -0.264964 -0.00392889 -0.0135471 0.0127239 0 0 0 0 0 0 1 0 0 0 0 0 0 0 0 0 38 0.002 
653 9 0.016406 0.0739839 0.0175868 0 0 0 0.419647 0.378418 -0.385182 0 -0.000164368 0 0 0 0 0 0 0 0 0 0 0 0 0 0 0 0 0 21 0.002 
261 1 0.00852935 0.0685161 0.0199028 0 0 0 -1.01034 0.600501 -0.836438 0 -0.000164368 0 0 0 0 0 0 0 0 0 0 0 0 0 0 0 0 0 34 0.002 
827 2 0.00325646 0.0723927 0.0191264 0 0 0 0.220918 0.427157 -1.12966 0.00125131 -0.00231045 -0.000616575 0 1 0 0 0 0 0 0 0 0 0 0 0 0 0 0 23 0.002 
102 1 0.0183822 0.0612364 0.0206893 0 0 0 2.05239 3.37915 -3.87224 0 -0.000164368 0 0 0 0 0 0 0 0 0 0 0 0 0 0 0 0 0 33 0.002 
1134 2 0.0125143 0.0664271 0.0226127 0 0 0 -2.18068 1.12993 -0.910192 0.000670853 0.00107312 0.00205168 0 1 0 0 0 0 0 0 0 0 0 0 0 0 0 0 1 0.002 
368 5 0.0174389 0.0703477 0.0216858 0 0 0 0.131429 -0.379522 -0.127031 0 -0.000164368 0 0 0 0 0 0 0 0 0 0 0 0 0 0 0 0 0 37 0.002 
703 3 0.01215 0.0732995 0.0233574 0 0 0 0.424472 0.887762 0.0743654 0.0294364 -0.0919418 -0.0308269 0 0 3 0 0 0 0 0 0 0 0 0 0 0 0 0 26 0.002 
862 3 0.0163086 0.0745205 0.0227727 0 0 0 0.157883 0.0201211 -0.0705517 0 -0.000164368 0 0 0 0 0 0 0 0 0 0 0 0 0 0 0 0 0 22 0.002 
976 5 0.0167268 0.0646847 0.0251979 0 0 0 0.547171 2.53069 0.00779819 -0.10566 -0.368196 -0.292954 0 0 0 0 1 0 0 0 0 0 0 0 0 0 0 0 9 0.002 
993 8 0.0131032 0.0697541 0.0247501 0 0 0 0.0922552 0.314774 -0.0906912 0.0314852 -0.0768881 0.0208495 0 1 1 0 0 0 0 0 0 0 0 0 0 0 0 0 26 0.002 
907 8 0.00327063 0.0727867 0.0251128 0 0 0 0.069311 0.092971 0.0451182 0 -0.000164368 0 0 0 0 0 0 0 0 0 0 0 0 0 0 0 0 0 21 0.002 
729 9 0.00711746 0.0740524 0.0254109 0 0 0 -0.0504289 -0.146032 -0.313573 0 -0.000164368 0 0 0 0 0 0 0 0 0 0 0 0 0 0 0 0 0 28 0.002 
961 1 0.00502952 0.0603825 0.0263247 0 0 0 0.352168 -0.243844 -0.382184 0 -0.000164368 0 0 0 0 0 0 0 0 0 0 0 0 0 0 0 0 0 10 0.002 
526 2 0.0101154 0.0625259 0.0259558 0 0 0 0.200877 -0.251199 -0.162418 0 -0.000164368 0 0 0 0 0 0 0 0 0 0 0 0 0 0 0 0 0 22 0.002 
199 4 0.00306194 0.0649639 0.026353 0 0 0 0.0228743 -0.0380055 -0.0199019 0 -0.000164368 0 0 0 0 0 0 0 0 0 0 0 0 0 0 0 0 0 44 0.002 
524 5 0.013899 0.0662356 0.0278203 0 0 0 -0.0218797 -0.342814 -0.0952669 0 -0.000164368 0 0 0 0 0 0 0 0 0 0 0 0 0 0 0 0 0 35 0.002 
854 2 0.0085263 0.0696522 0.025804 0 0 0 -0.0879204 -0.306701 -0.0327841 0 -0.000164368 0 0 0 0 0 0 0 0 0 0 0 0 0 0 0 0 0 25 0.002 
654 3 0.0168555 0.0706637 0.0258257 0 0 0 0.239071 -0.0986111 -0.0118271 -0.0285359 0.0516048 0.00905576 0 0 2 0 0 0 0 0 0 0 0 0 0 0 0 0 43 0.002 
26 9 0.0185845 0.0740485 0.0271031 0 0 0 0.0412353 -0.0487629 0.14636 0 -0.000164368 0 0 0 0 0 0 0 0 0 0 0 0 0 0 0 0 0 36 0.002 
377 4 0.0133092 0.0586487 0.0284342 0 0 0 -0.123114 -0.703582 -0.0787753 0 -0.000164368 0 0 0 0 0 0 0 0 0 0 0 0 0 0 0 0 0 46 0.002 
472 3 0.0164359 0.0608773 0.0299333 0 0 0 -0.441746 -0.128099 -0.372326 -0.00689592 -0.006648 -0.0134616 0 0 2 0 0 0 0 0 0 0 0 0 0 0 0 0 34 0.002 
471 5 0.00756098 0.0636108 0.0290908 0 0 0 0.146183 -0.198087 -0.0511794 0 -0.000164368 0 0 0 0 0 0 0 0 0 0 0 0 0 0 0 0 0 39 0.002 
348 6 0.0172417 0.0647318 0.0294397 0 0 0 -0.0640852 -0.263354 -0.269261 0.00108748 0.0327348 -0.0206107 0 0 1 0 0 0 0 0 0 0 0 0 0 0 0 0 42 0.002 
308 1 0.00701087 0.0677752 0.0290212 0 0 0 0.11262 -0.107002 0.0305272 0.00358778 -0.00184756 0.00325585 1 0 0 0 0 0 0 0 0 0 0 0 0 0 0 0 53 0.002 
399 3 0.0105871 0.066069 0.0300602 0 0 0 0.134868 -0.160239 -0.0652132 0 -0.000164368 0 0 0 0 0 0 0 0 0 0 0 0 0 0 0 0 0 35 0.002 
895 10 0.00384962 0.0700035 0.0280317 0 0 0 0.160111 -0.136714 -0.107047 -0.00358778 0.00151883 -0.00325585 1 0 0 0 0 0 0 0 0 0 0 0 0 0 0 0 40 0.002 
624 7 0.0122808 0.0696677 0.0294765 0 0 0 0.0835528 -0.258354 -0.00173475 0 -0.000164368 0 0 0 0 0 0 0 0 0 0 0 0 0 0 0 0 0 32 0.002 
58 1 0.00838645 0.0719765 0.0293131 0 0 0 0.0347521 0.125372 -0.152948 0 -0.000164368 0 0 0 0 0 0 0 0 0 0 0 0 0 0 0 0 0 39 0.002 
707 2 0.0183384 0.070782 0.0295301 0 0 0 0.137465 -0.187845 0.079494 -0.00297016 -0.000368114 0.000932562 0 1 1 0 0 0 0 0 0 0 0 0 0 0 0 0 50 0.002 
811 5 0.00338405 0.0740242 0.0289495 0 0 0 0.0922305 -0.119714 0.166724 0 -0.000164368 0 0 0 0 0 0 0 0 0 0 0 0 0 0 0 0 0 30 0.002 
288 1 0.0142664 0.0732429 0.0290325 0 0 0 -0.105668 -0.109327 -0.121084 0 -0.000164368 0 0 0 0 0 0 0 0 0 0 0 0 0 0 0 0 0 32 0.002 
1052 1 0.0156029 0.0544185 0.0313265 0 0 0 -1.27396 -0.396277 -0.470982 0 -0.000164368 0 0 0 0 0 0 0 0 0 0 0 0 0 0 0 0 0 12 0.002 
796 15 0.00504071 0.0576175 0.032107 0 0 0 -0.0214208 -0.2362 -0.0774078 0 -0.000164368 0 0 0 0 0 0 0 0 0 0 0 0 0 0 0 0 0 30 0.002 
297 3 0.00955732 0.0586759 0.0324192 0 0 0 -1.17327 0.204559 0.0564497 0 -0.000164368 0 0 0 0 0 0 0 0 0 0 0 0 0 0 0 0 0 42 0.002 
768 6 0.0136366 0.0582306 0.032413 0 0 0 -0.89447 0.845099 0.0536844 0 -0.000164368 0 0 0 0 0 0 0 0 0 0 0 0 0 0 0 0 0 18 0.002 
945 9 0.0111723 0.062713 0.0323993 0 0 0 -0.0624477 -0.29555 -0.0379917 0 -0.000164368 0 0 0 0 0 0 0 0 0 0 0 0 0 0 0 0 0 13 0.002 
1021 3 0.00300337 0.0710272 0.0321635 0 0 0 0.00209995 0.00236928 -0.120068 0 -0.000164368 0 0 0 0 0 0 0 0 0 0 0 0 0 0 0 0 0 14 0.002 
161 8 0.0176464 0.058699 0.0329965 0 0 0 -0.274494 0.393342 0.362777 0.00580844 -0.0265799 0.0340723 0 0 1 0 0 0 0 0 0 0 0 0 0 0 0 0 53 0.002 
438 2 0.00299982 0.0613634 0.0328205 0 0 0 0.0138648 -0.158866 0.054568 -0.000475224 7.3034e-05 -9.98537e-06 0 0 0 0 0 0 0 0 0 0 0 0 0 0 0 0 37 0.002 
662 1 0.00793841 0.065006 0.0329563 0 0 0 0.0536972 -0.108581 -0.0542901 0 -0.000164368 0 0 0 0 0 0 0 0 0 0 0 0 0 0 0 0 0 32 0.002 
821 3 0.0150209 0.0639645 0.0329837 0 0 0 0.0137972 -0.161412 -0.0376238 0 -0.000164368 0 0 0 0 0 0 0 0 0 0 0 0 0 0 0 0 0 17 0.002 
263 2 0.00344451 0.0658624 0.0329722 0 0 0 -0.0303082 -0.13612 -0.0240623 0 -0.000164368 0 0 0 0 0 0 0 0 0 0 0 0 0 0 0 0 0 31 0.002 
121 2 0.0129966 0.0674211 0.0329636 0 0 0 0.0762688 -0.0880441 0.00226178 0 -0.000164368 0 0 0 0 0 0 0 0 0 0 0 0 0 0 0 0 0 40 0.002 
463 9 0.0062228 0.0687455 0.0329716 0 0 0 -0.0142791 -0.092353 0.00950739 0 -0.000164368 0 0 0 0 0 0 0 0 0 0 0 0 0 0 0 0 0 38 0.002 
404 6 0.017207 0.0680865 0.0328903 0 0 0 -0.0129972 -0.172996 -0.0388679 0 -0.000164368 0 0 0 0 0 0 0 0 0 0 0 0 0 0 0 0 0 24 0.002 
882 3 0.00998915 0.0702522 0.03284 0 0 0 -0.043961 -0.171064 -0.0831913 0 -0.000164368 0 0 0 0 0 0 0 0 0 0 0 0 0 0 0 0 0 23 0.002 
165 4 0.0138458 0.0713359 0.0329438 0 0 0 -0.0549738 -0.093954 -0.000830203 0 -0.000164368 0 0 0 0 0 0 0 0 0 0 0 0 0 0 0 0 0 31 0.002 
625 3 0.00299815 0.0749582 0.0329102 0 0 0 0.0060396 -0.0490214 -0.0411512 0.0004376 -0.000628614 -3.2314e-05 0 0 1 0 0 0 0 0 0 0 0 0 0 0 0 0 20 0.002 
1046 3 0.00654894 0.0730145 0.0329218 0 0 0 -0.021037 -0.0774616 -0.0276894 0 -0.000164368 0 0 0 0 0 0 0 0 0 0 0 0 0 0 0 0 0 8 0.002 
577 2 0.0103772 0.0742325 0.0325704 0 0 0 0.0235707 -0.168041 -0.0214766 0 -0.000164368 0 0 0 0 0 0 0 0 0 0 0 0 0 0 0 0 0 24 0.002 
356 7 0.00663421 0.0774094 -0.0325515 0 0 0 -1.66535 -1.40888 0.0344627 0 -0.000164368 0 0 0 0 0 0 0 0 0 0 0 0 0 0 0 0 0 45 0.002 
77 12 0.00682726 0.0906945 -0.0325472 0 0 0 0.645102 -0.474669 -0.0195451 0 -0.000164368 0 0 0 0 0 0 0 0 0 0 0 0 0 0 0 0 0 37 0.002 
814 13 0.00712264 0.0977437 -0.0317244 0 0 0 0.126714 -0.505807 0.205003 0 -0.000164368 0 0 0 0 0 0 0 0 0 0 0 0 0 0 0 0 0 35 0.002 
678 9 0.00299142 0.0983704 -0.0323876 0 0 0 0.00659403 -0.380554 -0.0419938 0.0117615 0.000904729 -0.000883395 0 0 0 0 0 0 0 0 0 0 0 0 0 0 0 0 29 0.002 
836 4 0.00374387 0.103352 -0.0315304 0 0 0 -0.132165 -0.193016 0.0896296 0 -0.000164368 0 0 0 0 0 0 0 0 0 0 0 0 0 0 0 0 0 27 0.002 
1154 12 0.00839056 0.104146 -0.032387 0 0 0 -0.193027 -0.0677009 -0.121568 -0.0641224 0.0223738 -0.0594598 0 0 0 0 0 0 0 0 0 0 0 1 0 0 0 0 2 0.002 
598 1 0.00370313 0.107716 -0.0329069 0 0 0 -0.0673589 0.0855546 -0.129619 0.000819614 0.0143039 -0.0158456 1 0 0 0 0 0 0 0 0 0 0 0 0 0 0 0 31 0.002 
584 8 0.0134072 0.104244 -0.0307932 0 0 0 -0.795082 -0.344783 0.176743 0 -0.000164368 0 0 0 0 0 0 0 0 0 0 0 0 0 0 0 0 0 41 0.002 
638 6 0.00878931 0.107805 -0.0304261 0 0 0 -0.271636 -0.0212291 0.0877962 0 -0.000164368 0 0 0 0 0 0 0 0 0 0 0 0 0 0 0 0 0 23 0.002 
1043 8 0.0161222 0.0826859 -0.0288888 0 0 0 -0.597391 0.299112 0.630058 0 -0.000164368 0 0 0 0 0 0 0 0 0 0 0 0 0 0 0 0 0 12 0.002 
317 11 0.0100793 0.101878 -0.02959 0 0 0 -1.58662 0.271853 -0.723581 0.0641224 -0.0227025 0.0594598 0 0 0 0 0 0 0 0 0 0 0 1 0 0 0 0 30 0.002 
960 3 0.00325763 0.106618 -0.0290993 0 0 0 -0.393077 0.319071 -0.373847 -0.000819614 -0.0146327 0.0158456 1 0 0 0 0 0 0 0 0 0 0 0 0 0 0 0 12 0.002 
590 2 0.00760739 0.0801359 -0.0267335 0 0 0 0.748541 -1.53838 0.0101579 0 -0.000164368 0 0 0 0 0 0 0 0 0 0 0 0 0 0 0 0 0 35 0.002 
999 5 0.00754374 0.0987107 -0.0256909 0 0 0 0.119172 -0.294772 -0.206969 0 -0.000164368 0 0 0 0 0 0 0 0 0 0 0 0 0 0 0 0 0 8 0.002 
1091 5 0.013055 0.100063 -0.0264881 0 0 0 -1.09275 -0.0104328 -0.371184 0 -0.000164368 0 0 0 0 0 0 0 0 0 0 0 0 0 0 0 0 0 8 0.002 
891 2 0.00841521 0.103025 -0.0248034 0 0 0 -0.626231 0.264821 0.0411067 0 -0.000164368 0 0 0 0 0 0 0 0 0 0 0 0 0 0 0 0 0 11 0.002 
555 5 0.0173593 0.100341 -0.0252016 0 0 0 -0.0255765 -1.58637 0.784244 0 -0.000164368 0 0 0 0 0 0 0 0 0 0 0 0 0 0 0 0 0 33 0.002 
1086 9 0.00448289 0.10345 -0.0267918 0 0 0 -0.493743 -0.189095 -0.366673 0 -0.000164368 0 0 0 0 0 0 0 0 0 0 0 0 0 0 0 0 0 7 0.002 
938 2 0.0107171 0.107475 -0.0263635 0 0 0 -0.590205 -0.100467 0.37461 0 -0.000164368 0 0 0 0 0 0 0 0 0 0 0 0 0 0 0 0 0 8 0.002 
650 3 0.00429701 0.0792198 -0.0223919 0 0 0 0.414908 -0.784797 0.76003 0 -0.000164368 0 0 0 0 0 0 0 0 0 0 0 0 0 0 0 0 0 28 0.002 
512 7 0.00584331 0.0916363 -0.0229339 0 0 0 0.236621 -0.720896 0.121179 0 -0.000164368 0 0 0 0 0 0 0 0 0 0 0 0 0 0 0 0 0 30 0.002 
713 7 0.00299387 0.106997 -0.0236516 0 0 0 0.190075 0.0421114 0.162333 -0.00620796 0.00291449 -0.00268427 0 0 0 0 0 0 0 0 0 0 0 0 0 0 0 0 29 0.002 
570 1 0.0070077 0.107963 -0.0249402 0 0 0 0.273641 0.0161855 -0.658241 0 -0.000164368 0 0 0 0 0 0 0 0 0 0 0 0 0 0 0 0 0 33 0.002 
610 7 0.0057924 0.104845 -0.0218119 0 0 0 0.32277 -0.00356934 0.562482 -0.00334119 -0.00184778 0.00149784 0 0 0 0 0 0 0 0 0 0 0 0 0 0 0 0 29 0.002 
1201 4 0.00324518 0.107714 -0.0182564 0 0 0 -0.922353 -0.346463 0.537733 0 -0.000164368 0 0 0 0 0 0 0 0 0 0 0 0 0 0 0 0 0 0 0.002 
289 3 0.014584 0.098908 -0.0167911 0 0 0 -0.524059 -0.922631 -0.53378 0 -0.000164368 0 0 0 0 0 0 0 0 0 0 0 0 0 0 0 0 0 24 0.002 
167 2 0.00338752 0.103651 -0.0169071 0 0 0 0.183287 -0.121978 0.0251379 0 -0.000164368 0 0 0 0 0 0 0 0 0 0 0 0 0 0 0 0 0 27 0.002 
1121 3 0.00732114 0.107948 -0.0154751 0 0 0 0.114528 -0.0586714 0.0123827 0 -0.000164368 0 0 0 0 0 0 0 0 0 0 0 0 0 0 0 0 0 0 0.002 
582 7 0.017271 0.105621 -0.0132165 0 0 0 -0.519992 0.10648 0.68599 0 -0.000164368 0 0 0 0 0 0 0 0 0 0 0 0 0 0 0 0 0 24 0.002 
394 6 0.00649533 0.0830144 -0.0116435 0 0 0 1.24304 -1.54538 0.997129 0 -0.000164368 0 0 0 0 0 0 0 0 0 0 0 0 0 0 0 0 0 41 0.002 
709 1 0.003004 0.0903552 -0.0115962 0 0 0 0.0506401 -0.780145 0.61462 0 -0.000164368 0 0 0 0 0 0 0 0 0 0 0 0 0 0 0 0 0 28 0.002 
760 3 0.00396452 0.0981586 -0.0127915 0 0 0 0.366409 -0.469958 0.513951 0 -0.000164368 0 0 0 0 0 0 0 0 0 0 0 0 0 0 0 0 0 20 0.002 
1076 2 0.00835128 0.0983769 -0.0107316 0 0 0 -2.3065 0.914771 1.00413 0 -0.000164368 0 0 0 0 0 0 0 0 0 0 0 0 0 0 0 0 0 6 0.002 
419 10 0.00310296 0.104765 -0.0130483 0 0 0 -0.0193526 -0.0305689 0.0182239 0 -0.000164368 0 0 0 0 0 0 0 0 0 0 0 0 0 0 0 0 0 43 0.002 
1095 7 0.0153022 0.0839564 -0.00845324 0 0 0 -1.28081 -3.39075 2.0257 0 -0.000164368 0 0 0 0 0 0 0 0 0 0 0 0 0 0 0 0 0 4 0.002 
375 4 0.00628097 0.101547 -0.00924218 0 0 0 -0.762757 1.75919 -0.254977 0 -0.000164368 0 0 0 0 0 0 0 0 0 0 0 0 0 0 0 0 0 26 0.002 
114 6 0.018612 0.102568 -0.00942062 0 0 0 0.462694 -0.639214 0.395761 0 -0.000164368 0 0 0 0 0 0 0 0 0 0 0 0 0 0 0 0 0 21 0.002 
632 6 0.00361015 0.107215 -0.00981369 0 0 0 0.143551 0.028012 0.0769972 0 -0.000164368 0 0 0 0 0 0 0 0 0 0 0 0 0 0 0 0 0 30 0.002 
1129 5 0.00378571 0.0793772 -0.00699857 0 0 0 -1.50128 -0.802013 -0.0894722 0 -0.000164368 0 0 0 0 0 0 0 0 0 0 0 0 0 0 0 0 0 6 0.002 
274 4 0.00405045 0.0870159 -0.00853981 0 0 0 0.131563 0.275197 -0.536626 0 -0.000164368 0 0 0 0 0 0 0 0 0 0 0 0 0 0 0 0 0 33 0.002 
1017 2 0.00965595 0.0909346 -0.00803922 0 0 0 -0.995919 -0.454428 0.410293 0 -0.000164368 0 0 0 0 0 0 0 0 0 0 0 0 0 0 0 0 0 2 0.002 
446 9 0.0058046 0.0846197 -0.00546349 0 0 0 0.488119 1.13732 0.811809 0 -0.000164368 0 0 0 0 0 0 0 0 0 0 0 0 0 0 0 0 0 41 0.002 
930 3 0.00637333 0.0934705 -0.00424743 0 0 0 0.194214 -0.180539 1.75077 0.163784 0.0417844 -0.223362 0 0 1 0 0 0 0 0 0 0 0 0 0 0 0 0 33 0.002 
841 3 0.0123766 0.0946654 -0.00441351 0 0 0 -0.147379 -0.840502 0.0328712 0 -0.000164368 0 0 0 0 0 0 0 0 0 0 0 0 0 0 0 0 0 19 0.002 
1187 4 0.0102399 0.107301 -0.00401329 0 0 0 -0.00157537 0.123585 0.685243 0 -0.000164368 0 0 0 0 0 0 0 0 0 0 0 0 0 0 0 0 0 0 0.002 
1031 3 0.00638229 0.0805484 -0.00407296 0 0 0 0.385204 2.11816 -1.09548 -0.0603029 0.0016358 -0.0412977 0 0 1 0 0 0 0 0 0 0 0 0 0 0 0 0 12 0.002 
546 1 0.0174401 0.0820204 -0.00258836 0 0 0 1.11311 1.66852 -1.80036 0 -0.000164368 0 0 0 0 0 0 0 0 0 0 0 0 0 0 0 0 0 30 0.002 
797 6 0.00365786 0.0915434 -0.00223755 0 0 0 0.281083 -0.343684 0.57886 -0.176328 0.0048314 0.187133 0 0 1 0 0 1 0 0 0 0 0 0 0 0 0 0 29 0.002 
107 2 0.0133696 0.102746 -0.00333256 0 0 0 -1.30643 -0.471475 0.244686 0 -0.000164368 0 0 0 0 0 0 0 0 0 0 0 0 0 0 0 0 0 11 0.002 
306 3 0.00340158 0.106654 -0.00316267 0 0 0 0.136209 0.030802 -0.0809526 0 -0.000164368 0 0 0 0 0 0 0 0 0 0 0 0 0 0 0 0 0 40 0.002 
922 5 0.00961845 0.0804639 -0.00181753 0 0 0 0.0119712 1.76519 -0.633158 0.0603029 -0.00196453 0.0412977 0 0 1 0 0 0 0 0 0 0 0 0 0 0 0 0 9 0.002 
293 1 0.00675738 0.0887081 -0.00053592 0 0 0 -0.32435 0.280944 0.366166 0 -0.000164368 0 0 0 0 0 0 0 0 0 0 0 0 0 0 0 0 0 35 0.002 
322 2 0.00813775 0.0965162 -0.000996616 0 0 0 0.344754 -0.121818 0.413559 0 -0.000164368 0 0 0 0 0 0 0 0 0 0 0 0 0 0 0 0 0 40 0.002 
1040 3 0.00553035 0.107576 0.000280078 0 0 0 -0.153372 -0.160605 0.0267833 0 -0.000164368 0 0 0 0 0 0 0 0 0 0 0 0 0 0 0 0 0 13 0.002 
674 10 0.00563416 0.0813645 0.0010223 0 0 0 0.236856 0.2112 -1.07105 0 -0.000164368 0 0 0 0 0 0 0 0 0 0 0 0 0 0 0 0 0 26 0.002 
400 7 0.0044224 0.0858975 0.00278336 0 0 0 -0.553713 0.418897 0.0560838 0 -0.000164368 0 0 0 0 0 0 0 0 0 0 0 0 0 0 0 0 0 36 0.002 
719 3 0.00302258 0.0892263 0.000934888 0 0 0 -1.03426 0.782713 0.203249 0.0125441 -0.0471089 0.0362286 0 0 0 0 0 1 0 0 0 0 0 0 0 0 0 0 17 0.002 
863 1 0.0034647 0.0958998 0.00148221 0 0 0 -0.77925 1.08673 -0.685485 0 -0.000164368 0 0 0 0 0 0 0 0 0 0 0 0 0 0 0 0 0 11 0.002 
941 3 0.0101489 0.101563 0.00191441 0 0 0 -0.451464 3.78186 -1.06448 0 -0.000164368 0 0 0 0 0 0 0 0 0 0 0 0 0 0 0 0 0 20 0.002 
1183 1 0.0139068 0.102479 0.00297187 0 0 0 -0.0625639 -0.491472 0.414046 0 -0.000164368 0 0 0 0 0 0 0 0 0 0 0 0 0 0 0 0 0 0 0.002 
1142 2 0.00353352 0.103558 0.00251973 0 0 0 -0.199263 -0.335153 0.030106 0 -0.000164368 0 0 0 0 0 0 0 0 0 0 0 0 0 0 0 0 0 2 0.002 
9 6 0.00986603 0.0780218 0.00452891 0 0 0 -2.38732 0.825975 -1.21774 0.0219042 0.0588806 -0.0260551 0 0 0 0 0 1 0 0 0 0 0 0 0 0 0 0 50 0.002 
1191 3 0.00334689 0.0898112 0.00487876 0 0 0 0.206668 0.659058 0.34378 0 -0.000164368 0 0 0 0 0 0 0 0 0 0 0 0 0 0 0 0 0 1 0.002 
1206 3 0.0132178 0.0927698 0.00531469 0 0 0 -2.5366 2.89442 1.13452 0 -0.000164368 0 0 0 0 0 0 0 0 0 0 0 0 0 0 0 0 0 0 0.002 
718 11 0.00848553 0.0976579 0.00326423 0 0 0 -5.59826 2.55981 0.952405 0 -0.000164368 0 0 0 0 0 0 0 0 0 0 0 0 0 0 0 0 0 26 0.002 
480 3 0.0130031 0.106153 0.00445825 0 0 0 -0.205405 -0.123969 0.0107867 0 -0.000164368 0 0 0 0 0 0 0 0 0 0 0 0 0 0 0 0 0 31 0.002 
437 8 0.0148119 0.0785635 0.00697562 0 0 0 -0.679564 0.60856 -0.497752 0 -0.000164368 0 0 0 0 0 0 0 0 0 0 0 0 0 0 0 0 0 34 0.002 
704 9 0.0107367 0.0814118 0.00638825 0 0 0 -0.523197 0.855704 0.816593 -0.0219042 -0.0592093 0.0260551 0 0 0 0 0 1 0 0 0 0 0 0 0 0 0 0 24 0.002 
423 3 0.0138036 0.0845043 0.00530351 0 0 0 -3.28607 2.14819 -2.44029 0 -0.000164368 0 0 0 0 0 0 0 0 0 0 0 0 0 0 0 0 0 39 0.002 
1116 4 0.00336572 0.0847757 0.00651381 0 0 0 0.188778 0.503276 -0.432971 0.0176679 0.0508797 -0.118269 0 0 0 1 0 0 0 0 0 0 0 0 0 0 0 0 15 0.002 
706 9 0.00847933 0.0896644 0.00506948 0 0 0 -0.393184 0.535513 -0.710773 0 -0.000164368 0 0 0 0 0 0 0 0 0 0 0 0 0 0 0 0 0 44 0.002 
690 2 0.00301362 0.10582 0.00666505 0 0 0 0.0123769 -0.115625 0.148124 0 -0.000164368 0 0 0 0 0 0 0 0 0 0 0 0 0 0 0 0 0 15 0.002 
1193 8 0.0059525 0.0778682 0.00913113 0 0 0 0.18515 0.488992 -0.410318 0 -0.000164368 0 0 0 0 0 0 0 0 0 0 0 0 0 0 0 0 0 2 0.002 
926 2 0.00689663 0.0830771 0.00834092 0 0 0 -0.274432 0.1798 -0.400586 0 -0.000164368 0 0 0 0 0 0 0 0 0 0 0 0 0 0 0 0 0 15 0.002 
699 9 0.0104336 0.0855581 0.00783589 0 0 0 0.167717 0.104877 0.0221518 0 -0.000164368 0 0 0 0 0 0 0 0 0 0 0 0 0 0 0 0 0 18 0.002 
59 3 0.0145955 0.0873047 0.00941287 0 0 0 -1.37687 0.959862 0.781218 -0.0213418 -0.0489549 0.0077866 0 0 1 0 0 0 0 0 0 0 0 0 0 0 0 0 12 0.002 
12 9 0.0175693 0.0898361 0.00982143 0 0 0 0.692744 0.0525523 0.0528166 0.0213418 0.0486262 -0.0077866 0 0 1 0 0 0 0 0 0 0 0 0 0 0 0 0 31 0.002 
998 5 0.00962441 0.0946858 0.00824882 0 0 0 -0.0731261 0.767848 -0.326753 0 -0.000164368 0 0 0 0 0 0 0 0 0 0 0 0 0 0 0 0 0 7 0.002 
92 2 0.0181075 0.106988 0.00868903 0 0 0 -0.188644 -0.147081 0.829504 0 -0.000164368 0 0 0 0 0 0 0 0 0 0 0 0 0 0 0 0 0 39 0.002 
620 1 0.00507595 0.0756863 0.00360358 0 0 0 0.631755 2.01263 -1.45519 0 -0.000164368 0 0 0 0 0 0 0 0 0 0 0 0 0 0 0 0 0 20 0.002 
338 6 0.00565569 0.0865848 0.00993977 0 0 0 0.0769307 0.290896 -0.212937 -0.000271253 0.000110591 7.46992e-07 0 0 0 0 0 1 0 0 0 0 0 0 0 0 0 0 29 0.002 
665 2 0.00379406 0.0941135 0.00999179 0 0 0 -0.368385 0.814586 -0.285783 0 -0.000164368 0 0 0 0 0 0 0 0 0 0 0 0 0 0 0 0 0 18 0.002 
1160 2 0.017184 0.0767907 0.0110712 0 0 0 0.0274263 0.673428 -0.77246 0 -0.000164368 0 0 0 0 0 0 0 0 0 0 0 0 0 0 0 0 0 3 0.002 
350 8 0.014421 0.0810985 0.0112569 0 0 0 0.974221 0.223884 -0.589855 0 -0.000164368 0 0 0 0 0 0 0 0 0 0 0 0 0 0 0 0 0 34 0.002 
1065 3 0.00303131 0.0833083 0.0101309 0 0 0 0.668748 1.67732 0.111332 -0.0263481 -0.05106 0.108871 0 0 2 0 0 0 0 0 0 0 0 0 0 0 0 0 12 0.002 
519 1 0.00852179 0.10797 0.0102073 0 0 0 -0.258992 -0.143562 0.641021 0 -0.000164368 0 0 0 0 0 0 0 0 0 0 0 0 0 0 0 0 0 30 0.002 
873 6 0.0170228 0.0849634 0.0119718 0 0 0 -0.34536 0.460962 -0.296937 0 -0.000164368 0 0 0 0 0 0 0 0 0 0 0 0 0 0 0 0 0 14 0.002 
988 10 0.0097499 0.0884561 0.0109309 0 0 0 -0.097676 0.479035 -0.144719 0.0157051 -0.0106437 -0.00250599 0 0 0 0 0 0 0 0 0 1 0 0 0 0 0 0 12 0.002 
531 1 0.0030082 0.0894778 0.0107171 0 0 0 0.0241883 0.245556 -0.0589611 0.000271253 -0.000439328 -7.46992e-07 1 0 0 0 0 0 0 0 0 0 0 0 0 0 0 0 49 0.002 
1153 8 0.00666669 0.0908591 0.011673 0 0 0 -0.0690194 0.371143 0.126052 -0.0157051 0.010315 0.00250599 0 0 0 0 0 0 0 0 0 1 0 0 0 0 0 0 5 0.002 
314 6 0.0051868 0.101926 0.0330009 0 0 0 -0.102525 -0.0393628 -0.0033255 -0.000488393 0.000977844 0.00027043 0 0 0 0 0 3 0 0 0 0 0 0 0 0 0 0 22 0.002 
176 2 0.0111222 0.0927824 0.0115579 0 0 0 -0.0952007 0.995807 -0.0964901 0 -0.000164368 0 0 0 0 0 0 0 0 0 0 0 0 0 0 0 0 0 26 0.002 
835 12 0.0158721 0.102316 0.0328934 0 0 0 -0.165564 -0.30564 0.0263245 0 -0.000164368 0 0 0 0 0 0 0 0 0 0 0 0 0 0 0 0 0 22 0.002 
1051 10 0.0126829 0.101081 0.0118053 0 0 0 0.816513 -0.368188 0.681053 0 -0.000164368 0 0 0 0 0 0 0 0 0 0 0 0 0 0 0 0 0 8 0.002 
1103 1 0.00590742 0.081601 0.0123048 0 0 0 0.827316 1.01612 -0.833615 0.00868019 -0.00031284 0.00939791 0 0 1 0 0 0 0 0 0 0 0 0 0 0 0 0 11 0.002 
726 1 0.0101767 0.0824123 0.0121932 0 0 0 0.465372 1.53072 -0.646483 0 -0.000164368 0 0 0 0 0 0 0 0 0 0 0 0 0 0 0 0 0 22 0.002 
1066 1 0.00306464 0.084037 0.0142465 0 0 0 0.0666102 -0.00762442 0.34209 0 -0.000164368 0 0 0 0 0 0 0 0 0 0 0 0 0 0 0 0 0 22 0.002 
254 10 0.0139407 0.0839375 0.0144275 0 0 0 -0.140027 -0.154885 0.113251 0.00206881 0.00218367 -0.00172967 0 0 0 0 0 0 0 0 0 1 0 0 0 0 0 0 39 0.002 
503 7 0.00683901 0.0853526 0.0135649 0 0 0 -0.0361705 0.419552 -0.0592203 0 -0.000164368 0 0 0 0 0 0 0 0 0 0 0 0 0 0 0 0 0 24 0.002 
720 4 0.0184029 0.0883959 0.0140439 0 0 0 -0.208387 0.575291 -0.259851 0 -0.000164368 0 0 0 0 0 0 0 0 0 0 0 0 0 0 0 0 0 16 0.002 
892 5 0.00304342 0.0918823 0.0139985 0 0 0 -0.0118268 0.184024 -0.081647 -0.000192262 0.00121038 -0.000941679 0 0 0 0 1 0 0 0 0 0 0 0 0 0 0 0 13 0.002 
876 14 0.0146203 0.0922096 0.0138392 0 0 0 -0.297501 0.252156 0.42285 0 -0.000164368 0 0 0 0 0 0 0 0 0 0 0 0 0 0 0 0 0 12 0.002 
1074 10 0.0120745 0.103682 0.032888 0 0 0 -0.12753 -0.240753 -0.0279451 0 -0.000164368 0 0 0 0 0 0 0 0 0 0 0 0 0 0 0 0 0 5 0.002 
403 8 0.014348 0.077393 0.0160429 0 0 0 -0.144509 0.446141 -0.307562 0.00392889 0.0132183 -0.0127239 0 0 0 0 0 0 0 1 0 0 0 0 0 0 0 0 32 0.002 
1147 9 0.00323198 0.0797412 0.0165576 0 0 0 -0.0708741 0.0343409 -0.205339 0 -0.000164368 0 0 0 0 0 0 0 0 0 0 0 0 0 0 0 0 0 5 0.002 
321 7 0.00368217 0.0879828 0.0145269 0 0 0 -0.0211263 0.0379 0.0109642 0.000192262 -0.00153912 0.000941679 0 0 0 0 1 0 0 0 0 0 0 0 0 0 0 0 24 0.002 
128 4 0.00839242 0.0888749 0.0147039 0 0 0 0.114304 0.283161 0.100568 0 -0.000164368 0 0 0 0 0 0 0 0 0 0 0 0 0 0 0 0 0 32 0.002 
459 5 0.0151573 0.0873776 0.0161577 0 0 0 -0.0969951 0.155574 -0.285881 0 -0.000164368 0 0 0 0 0 0 0 0 0 0 0 0 0 0 0 0 0 23 0.002 
364 3 0.00735344 0.0929622 0.0150115 0 0 0 -0.0249169 0.392088 0.292777 0 -0.000164368 0 0 0 0 0 0 0 0 0 0 0 0 0 0 0 0 0 29 0.002 
591 9 0.011419 0.0951794 0.0149535 0 0 0 -0.167046 0.533316 0.224728 0 -0.000164368 0 0 0 0 0 0 0 0 0 0 0 0 0 0 0 0 0 15 0.002 
984 3 0.0141918 0.0980061 0.0161737 0 0 0 0.533481 0.245069 0.473697 0 -0.000164368 0 0 0 0 0 0 0 0 0 0 0 0 0 0 0 0 0 18 0.002 
552 8 0.00977975 0.100401 0.0145699 0 0 0 0.103359 0.102122 0.123732 0 -0.000164368 0 0 0 0 0 0 0 0 0 0 0 0 0 0 0 0 0 30 0.002 
1115 2 0.00299813 0.105714 0.0152419 0 0 0 0.0171025 -0.230515 0.25419 0.000119416 -0.00010474 3.08835e-06 0 0 0 0 0 0 0 0 0 0 0 0 0 0 0 0 0 0.002 
627 2 0.00657148 0.107615 0.0149565 0 0 0 0.055519 -0.220498 0.34854 0 -0.000164368 0 0 0 0 0 0 0 0 0 0 0 0 0 0 0 0 0 36 0.002 
278 11 0.00946188 0.0778723 0.0166643 0 0 0 -0.340247 0.295511 -0.459646 0 -0.000164368 0 0 0 0 0 0 0 0 0 0 0 0 0 0 0 0 0 38 0.002 
657 3 0.0117556 0.0809098 0.0181468 0 0 0 -0.00705765 0.133 -0.379602 0 -0.000164368 0 0 0 0 0 0 0 0 0 0 0 0 0 0 0 0 0 25 0.002 
742 3 0.0159818 0.0814305 0.0168414 0 0 0 -0.164177 0.105594 -0.107593 0 -0.000164368 0 0 0 0 0 0 0 0 0 0 0 0 0 0 0 0 0 21 0.002 
792 2 0.00300892 0.0830362 0.0188166 0 0 0 0.00947615 -0.0103705 -0.160218 0 -0.000164368 0 0 0 0 0 0 0 0 0 0 0 0 0 0 0 0 0 16 0.002 
954 5 0.0128417 0.0847768 0.0181808 0 0 0 0.0533772 0.110165 -0.0484985 -0.00327875 -0.00325693 -0.000418101 0 0 0 0 1 0 0 0 0 1 0 0 0 0 0 0 20 0.002 
865 7 0.017643 0.0848366 0.018415 0 0 0 -0.257114 0.188297 0.00948229 0 -0.000164368 0 0 0 0 0 0 0 0 0 0 0 0 0 0 0 0 0 9 0.002 
904 3 0.00301662 0.0874105 0.0189593 0 0 0 -0.0307501 -0.0870551 -0.0803447 0 -0.000164368 0 0 0 0 0 0 0 0 0 0 0 0 0 0 0 0 0 12 0.002 
425 1 0.00321024 0.0913001 0.0179807 0 0 0 -0.0694328 -0.0502059 -0.0397257 0 -0.000164368 0 0 0 0 0 0 0 0 0 0 0 0 0 0 0 0 0 37 0.002 
287 6 0.00735841 0.0904845 0.0182292 0 0 0 0.027734 0.283143 0.113173 0 -0.000164368 0 0 0 0 0 0 0 0 0 0 0 0 0 0 0 0 0 28 0.002 
1192 2 0.0113885 0.0895328 0.0189017 0 0 0 0.0862956 -0.301389 -0.0490994 0 -0.000164368 0 0 0 0 0 0 0 0 0 0 0 0 0 0 0 0 0 0 0.002 
1188 4 0.0155798 0.0908599 0.0180983 0 0 0 -0.0858051 0.108452 -0.169407 -0.00122098 0.0011991 0.000525549 0 0 0 1 0 0 0 0 0 0 0 0 0 0 0 0 4 0.002 
534 13 0.003035 0.095512 0.0178507 0 0 0 0.0462515 0.0182924 0.0228581 0 -0.000164368 0 0 0 0 0 0 0 0 0 0 0 0 0 0 0 0 0 33 0.002 
140 4 0.0169607 0.094604 0.0185401 0 0 0 -0.0901086 0.121486 -0.00815001 0 -0.000164368 0 0 0 0 0 0 0 0 0 0 0 0 0 0 0 0 0 30 0.002 
55 4 0.0102877 0.0978236 0.0180526 0 0 0 0.271103 -0.2703 -0.0173856 0 -0.000164368 0 0 0 0 0 0 0 0 0 0 0 0 0 0 0 0 0 22 0.002 
326 4 0.00356559 0.101135 0.0178024 0 0 0 0.136421 0.485938 0.64757 0 -0.000164368 0 0 0 0 0 0 0 0 0 0 0 0 0 0 0 0 0 32 0.002 
397 3 0.00961644 0.103802 0.0178439 0 0 0 -0.0917941 -0.281001 0.586742 0 -0.000164368 0 0 0 0 0 0 0 0 0 0 0 0 0 0 0 0 0 41 0.002 
1073 6 0.0108171 0.107826 0.0168624 0 0 0 -0.123873 -0.123803 -0.0136625 0 -0.000164368 0 0 0 0 0 0 0 0 0 0 0 0 0 0 0 0 0 11 0.002 
639 9 0.00302975 0.0763185 0.0198444 0 0 0 0.136598 0.201538 -0.200046 -0.00125131 0.00198171 0.000616575 0 0 0 0 0 0 0 0 1 0 0 0 0 0 0 0 41 0.002 