ITEM: TIMESTEP
10250000
ITEM: NUMBER OF ATOMS
1255
ITEM: BOX BOUNDS ff ff ff
-0.01 0.45
-0.15 0.15
-0.08 0.1
ITEM: ATOMS id type x y z ix iy iz vx vy vz fx fy fz c_cc_1 c_cc_2 c_cc_3 c_cc_4 c_cc_5 c_cc_6 c_cc_7 c_cc_8 c_cc_9 c_cc_10 c_cc_11 c_cc_12 c_cc_13 c_cc_14 c_cc_15 c_cc_16 f_fppacc radius 
164 4 0.00494628 -0.0415402 -0.038904 0 0 0 -1.40893 0.710697 -0.294779 0 -0.000164368 0 0 0 0 0 0 0 0 0 0 0 0 0 0 0 0 0 48 0.002 
987 4 0.0117349 -0.0437264 -0.0342076 0 0 0 1.14704 -2.06832 4.03221 0 -0.000164368 0 0 0 0 0 0 0 0 0 0 0 0 0 0 0 0 0 15 0.002 
1273 2 0.0167528 -0.0425397 -0.0313619 0 0 0 3.14389 -3.38556 7.29983 0 -0.000164368 0 0 0 0 0 0 0 0 0 0 0 0 0 0 0 0 0 0 0.002 
353 6 0.0185764 -0.0577049 0.00362798 0 0 0 -2.45778 2.47376 46.3761 0 -0.000164368 0 0 0 0 0 0 0 0 0 0 0 0 0 0 0 0 0 27 0.002 
707 2 0.0184996 -0.0470146 0.0337332 0 0 0 -14.7446 30.1674 43.0747 0 -0.000164368 0 0 0 0 0 0 0 0 0 0 0 0 0 0 0 0 0 51 0.002 
1114 1 0.0113261 0.0334827 -0.0436176 0 0 0 -0.994509 -3.89432 -2.52224 0 -0.000164368 0 0 0 0 0 0 0 0 0 0 0 0 0 0 0 0 0 11 0.002 
1281 2 0.00866735 0.0358264 -0.0260699 0 0 0 -2.4771 -7.64006 -1.11205 0 -0.000164368 0 0 0 0 0 0 0 0 0 0 0 0 0 0 0 0 0 0 0.002 
41 1 0.015124 0.0528572 -0.0355 0 0 0 0 3.24482e-19 -6.7269e-12 -0 0 0 0 0 0 0 0 0 0 0 0 0 0 0 0 0 0 0 2 0.002 
1280 1 0.010742 0.0389016 -0.0304976 0 0 0 2.39316 -8.31119 1.87897 0 -0.000164368 0 0 0 0 0 0 0 0 0 0 0 0 0 0 0 0 0 0 0.002 
1170 3 0.00329845 0.0684702 -0.00411108 0 0 0 -2.51881 2.69111 -33.6762 -2.2481 -1.39001 0.608229 0 0 0 0 0 0 0 0 0 0 0 0 0 0 0 0 8 0.002 
423 3 0.0101993 0.040019 -0.0233292 0 0 0 1.91785 -6.27613 6.38544 0 -0.000164368 0 0 0 0 0 0 0 0 0 0 0 0 0 0 0 0 0 40 0.002 
826 5 0.0131258 0.0566693 -0.0242747 0 0 0 -3.0136 -0.26065 1.89487 0 -0.000164368 0 0 0 0 0 0 0 0 0 0 0 0 0 0 0 0 0 33 0.002 
475 2 0.0108267 0.0679741 -0.0192495 0 0 0 1.79529 -3.15995 1.58131 0 -0.000164368 0 0 0 0 0 0 0 0 0 0 0 0 0 0 0 0 0 30 0.002 
1159 4 0.0167845 0.0546636 -0.021642 0 0 0 2.38512 -1.7757 -4.31327 0 -0.000164368 0 0 0 0 0 0 0 0 0 0 0 0 0 0 0 0 0 14 0.002 
624 7 0.00346441 0.0375031 -0.0137268 0 0 0 0.0696963 -0.428331 1.87482 0 -0.000164368 0 0 0 0 0 0 0 0 0 0 0 0 0 0 0 0 0 35 0.002 
996 2 0.00297126 0.0716363 -0.0104095 0 0 0 0.264576 -2.14023 2.2762 0.0411683 0.00920215 -0.0183296 0 0 0 0 0 0 0 0 0 0 0 0 0 0 0 0 26 0.002 
434 14 0.00358475 0.0629868 -0.00912422 0 0 0 0.0296127 -0.676142 -0.870577 0 -0.000164368 0 0 0 0 0 0 0 0 0 0 0 0 0 0 0 0 0 48 0.002 
1133 6 0.0117452 0.0731331 -0.0125653 0 0 0 -1.10807 -0.267362 -3.85327 0 -0.000164368 0 0 0 0 0 0 0 0 0 0 0 0 0 0 0 0 0 7 0.002 
420 3 0.0166637 0.0491267 -0.00479621 0 0 0 2.6822 -1.7789 4.5784 0 -0.000164368 0 0 0 0 0 0 0 0 0 0 0 0 0 0 0 0 0 47 0.002 
843 4 0.0110023 0.073758 -0.00846908 0 0 0 0.681513 -0.0545045 -2.66109 0 -0.000164368 0 0 0 0 0 0 0 0 0 0 0 0 0 0 0 0 0 11 0.002 
882 3 0.0045828 0.0713771 -0.00439549 0 0 0 2.47808 18.7996 -6.52219 2.2481 1.38969 -0.608229 0 0 0 0 0 0 0 0 0 0 0 0 0 0 0 0 23 0.002 
1036 6 0.00368985 0.0718009 0.000144729 0 0 0 0.110772 0.0586619 -0.867507 0 -0.000164368 0 0 0 0 0 0 0 0 0 0 0 0 0 0 0 0 0 32 0.002 
84 8 0.015748 0.0639142 0.0126901 0 0 0 -0.103951 -6.13916 1.69298 0 -0.000164368 0 0 0 0 0 0 0 0 0 0 0 0 0 0 0 0 0 47 0.002 
741 5 0.0142988 0.0734383 0.032894 0 0 0 0.104574 -0.225074 -0.0304241 0 -0.000164368 0 0 0 0 0 0 0 0 0 0 0 0 0 0 0 0 0 29 0.002 
926 2 0.0146922 0.0709258 0.0166031 0 0 0 -0.113679 -0.398199 0.685592 0 -0.000164368 0 0 0 0 0 0 0 0 0 0 0 0 0 0 0 0 0 23 0.002 
364 3 0.0105984 0.0738429 0.0159104 0 0 0 0.0433139 0.0454629 -0.202157 0 -0.000164368 0 0 0 0 0 0 0 0 0 0 0 0 0 0 0 0 0 36 0.002 
1080 4 0.00468455 0.0691079 0.0181143 0 0 0 0.0564129 -0.280395 -0.188193 0 -0.000164368 0 0 0 0 0 0 0 0 0 0 0 0 0 0 0 0 0 13 0.002 
104 1 0.0102873 0.0675255 0.0208212 0 0 0 0.105162 -0.417771 -0.00606857 0 -0.000164368 0 0 0 0 0 0 0 0 0 0 0 0 0 0 0 0 0 23 0.002 
591 9 0.0122698 0.0713345 0.0201031 0 0 0 -0.78853 -0.849664 1.07387 0 -0.000164368 0 0 0 0 0 0 0 0 0 0 0 0 0 0 0 0 0 26 0.002 
1222 3 0.01704 0.0717896 0.0203712 0 0 0 0.245286 -0.29967 0.0269217 0.000260167 0.00110272 -0.000506576 0 0 1 0 0 0 0 0 0 0 0 0 0 0 0 0 3 0.002 
680 6 0.00848329 0.0739791 0.0209939 0 0 0 -0.113689 0.00651142 -0.0453306 0 -0.000164368 0 0 0 0 0 0 0 0 0 0 0 0 0 0 0 0 0 52 0.002 
254 10 0.018353 0.0678203 0.022193 0 0 0 0.00309908 -0.315903 -0.0612419 0 -0.000164368 0 0 0 0 0 0 0 0 0 0 0 0 0 0 0 0 0 42 0.002 
669 1 0.00354936 0.0706943 0.0219772 0 0 0 0.140827 0.00413479 -0.14883 0 -0.000164368 0 0 0 0 0 0 0 0 0 0 0 0 0 0 0 0 0 53 0.002 
339 4 0.0146672 0.0705406 0.0233294 0 0 0 0.0208719 -0.264668 -0.0486208 -0.000260167 -0.00143146 0.000506576 0 0 1 0 0 0 0 0 0 0 0 0 0 0 0 0 38 0.002 
261 1 0.00316801 0.074713 0.0215885 0 0 0 0.0462723 -0.0207613 -0.142107 0 -0.000164368 0 0 0 0 0 0 0 0 0 0 0 0 0 0 0 0 0 38 0.002 
70 6 0.0130125 0.0747411 0.0222924 0 0 0 -0.0261082 -0.0280759 0.330487 0.000938842 0.00181773 0.0012065 0 0 0 0 0 2 0 0 0 0 0 0 0 0 0 0 40 0.002 
112 6 0.0184253 0.0567764 0.0256548 0 0 0 0.151123 -0.568447 -0.12945 0 -0.000164368 0 0 0 0 0 0 0 0 0 0 0 0 0 0 0 0 0 47 0.002 
989 4 0.0114292 0.0603942 0.0252349 0 0 0 0.23379 -0.106214 -0.356084 0 -0.000164368 0 0 0 0 0 0 0 0 0 0 0 0 0 0 0 0 0 12 0.002 
361 3 0.0092794 0.0640947 0.0243702 0 0 0 -0.0406497 -0.27738 -0.116726 0 -0.000164368 0 0 0 0 0 0 0 0 0 0 0 0 0 0 0 0 0 42 0.002 
176 2 0.0163607 0.0640681 0.023804 0 0 0 -0.657612 -0.306284 -0.112763 0 -0.000164368 0 0 0 0 0 0 0 0 0 0 0 0 0 0 0 0 0 39 0.002 
971 2 0.00336427 0.0672947 0.0247454 0 0 0 0.1981 -0.0411637 0.0190327 0 -0.000164368 0 0 0 0 0 0 0 0 0 0 0 0 0 0 0 0 0 22 0.002 
726 1 0.0110545 0.0718029 0.0252795 0 0 0 0.0234337 -0.113232 -0.203894 0 -0.000164368 0 0 0 0 0 0 0 0 0 0 0 0 0 0 0 0 0 37 0.002 
230 6 0.00602307 0.0748341 0.0249406 0 0 0 0.0872588 -0.0892841 -0.143603 0.00245233 -0.00264491 0.00236039 0 0 0 0 0 1 0 0 0 0 0 0 0 0 0 0 47 0.002 
125 10 0.0166516 0.0740995 0.0238146 0 0 0 0.12455 -0.364673 0.0641228 -0.00174381 -0.000647608 -0.000741531 0 0 0 0 0 1 0 0 0 0 0 0 0 0 0 0 43 0.002 
931 4 0.00915141 0.0579939 0.0276354 0 0 0 0.214306 -0.305495 -0.264717 0 -0.000164368 0 0 0 0 0 0 0 0 0 0 0 0 0 0 0 0 0 20 0.002 
455 1 0.00410448 0.0611444 0.0252326 0 0 0 0.25144 4.21258 -2.94204 0 -0.000164368 0 0 0 0 0 0 0 0 0 0 0 0 0 0 0 0 0 50 0.002 
626 1 0.0173886 0.0624272 0.0278727 0 0 0 -0.112449 -0.187351 0.11 -0.00415209 -0.00254247 0.00315901 1 0 0 0 0 0 0 0 0 0 0 0 0 0 0 0 34 0.002 
876 14 0.0121559 0.0665206 0.0259043 0 0 0 0.022388 -0.356626 0.065797 0 -0.000164368 0 0 0 0 0 0 0 0 0 0 0 0 0 0 0 0 0 20 0.002 
480 3 0.0170751 0.0695392 0.0263825 0 0 0 -0.0753815 -0.383192 -0.00147724 0 -0.000164368 0 0 0 0 0 0 0 0 0 0 0 0 0 0 0 0 0 41 0.002 
554 3 0.00632155 0.0709791 0.026118 0 0 0 -0.193324 0.0171761 -0.204679 0 -0.000164368 0 0 0 0 0 0 0 0 0 0 0 0 0 0 0 0 0 25 0.002 
1068 4 0.00463132 0.059968 0.0309675 0 0 0 -0.0312453 6.01317 1.9725 0 -0.000164368 0 0 0 0 0 0 0 0 0 0 0 0 0 0 0 0 0 14 0.002 
131 7 0.0144136 0.0598233 0.0285181 0 0 0 -0.0299817 -0.460861 -0.103387 0 -0.000164368 0 0 0 0 0 0 0 0 0 0 0 0 0 0 0 0 0 52 0.002 
972 3 0.00853104 0.0654548 0.0282752 0 0 0 -0.0305794 -0.21935 -0.104332 0 -0.000164368 0 0 0 0 0 0 0 0 0 0 0 0 0 0 0 0 0 26 0.002 
505 2 0.00361873 0.0672122 0.0290191 0 0 0 0.168642 -0.128215 -0.0905132 0 -0.000164368 0 0 0 0 0 0 0 0 0 0 0 0 0 0 0 0 0 50 0.002 
55 4 0.0150159 0.0674175 0.0292037 0 0 0 -0.0767475 -0.448256 -0.0191402 0 -0.000164368 0 0 0 0 0 0 0 0 0 0 0 0 0 0 0 0 0 32 0.002 
1123 3 0.0110663 0.0683451 0.0295276 0 0 0 -0.0578309 -0.261785 -0.0454579 0 -0.000164368 0 0 0 0 0 0 0 0 0 0 0 0 0 0 0 0 0 8 0.002 
417 1 0.00344572 0.0712894 0.0293714 0 0 0 -0.0264353 -0.0525149 0.0357764 -2.14507e-05 -4.2016e-05 -1.50696e-05 1 0 0 0 0 0 0 0 0 0 0 0 0 0 0 0 60 0.002 
984 3 0.0169005 0.0724257 0.0293411 0 0 0 0.128556 -0.35745 -0.0514607 0 -0.000164368 0 0 0 0 0 0 0 0 0 0 0 0 0 0 0 0 0 30 0.002 
252 6 0.00775222 0.0726538 0.0300821 0 0 0 -0.0781731 -0.275487 0.0456762 0.000872227 0.000984778 -0.000672999 0 0 0 0 0 1 0 0 0 0 0 0 0 0 0 0 27 0.002 
998 5 0.0129054 0.0729246 0.0290829 0 0 0 0.114921 -0.280258 -0.0554315 0 -0.000164368 0 0 0 0 0 0 0 0 0 0 0 0 0 0 0 0 0 16 0.002 
511 2 0.012109 0.0571292 0.0305266 0 0 0 -0.00264667 -0.424043 -0.0118882 0 -0.000164368 0 0 0 0 0 0 0 0 0 0 0 0 0 0 0 0 0 25 0.002 
1008 4 0.00664594 0.0650687 0.0318713 0 0 0 -0.186043 -0.070581 -0.0307261 -0.0027686 0.000775013 -0.00122212 0 0 0 1 0 0 0 0 0 0 0 0 0 0 0 0 13 0.002 
603 7 0.00743422 0.0692165 0.0323435 0 0 0 -0.0187011 -0.0671969 0.0970563 0 -0.000164368 0 0 0 0 0 0 0 0 0 0 0 0 0 0 0 0 0 37 0.002 
995 2 0.0162883 0.0558929 0.0327079 0 0 0 0.290642 -0.389602 -0.0578948 0 -0.000164368 0 0 0 0 0 0 0 0 0 0 0 0 0 0 0 0 0 21 0.002 
636 8 0.0166471 0.0604923 0.0328942 0 0 0 0.0204832 -0.420754 0.00854713 0 -0.000164368 0 0 0 0 0 0 0 0 0 0 0 0 0 0 0 0 0 18 0.002 
343 2 0.0102966 0.0615219 0.0329671 0 0 0 0.0578961 -0.270582 0.0141039 0 -0.000164368 0 0 0 0 0 0 0 0 0 0 0 0 0 0 0 0 0 43 0.002 
786 1 0.0143378 0.0643506 0.0327653 0 0 0 -0.166063 -0.4499 0.448573 0 -0.000164368 0 0 0 0 0 0 0 0 0 0 0 0 0 0 0 0 0 35 0.002 
883 2 0.010464 0.0656078 0.032879 0 0 0 -0.0663545 -0.132975 0.138321 0.0027686 -0.00110375 0.00122212 0 0 0 1 0 0 0 0 0 0 0 0 0 0 0 0 22 0.002 
499 2 0.00300958 0.0690354 0.0327124 0 0 0 0.0138593 -0.110262 0.10566 0 -0.000164368 0 0 0 0 0 0 0 0 0 0 0 0 0 0 0 0 0 41 0.002 
1074 10 0.0135749 0.0684383 0.0329744 0 0 0 -0.015189 -0.169028 0.0396063 0 -0.000164368 0 0 0 0 0 0 0 0 0 0 0 0 0 0 0 0 0 11 0.002 
300 1 0.0175774 0.0695247 0.0325331 0 0 0 -0.0304083 -0.29742 -0.00732672 0 -0.000164368 0 0 0 0 0 0 0 0 0 0 0 0 0 0 0 0 0 40 0.002 
369 6 0.0108431 0.0714056 0.0327336 0 0 0 0.0612685 -0.0223769 -0.0781206 0 -0.000164368 0 0 0 0 0 0 0 0 0 0 0 0 0 0 0 0 0 38 0.002 
493 5 0.00299932 0.0730967 0.0329298 0 0 0 -0.00501806 -0.135384 0.107749 -0.000822423 -0.00180648 0.000929387 0 0 0 0 1 0 0 0 0 0 0 0 0 0 0 0 51 0.002 
345 6 0.0100021 0.0376724 0.0438597 0 0 0 9.71821 32.3552 -27.2153 0 -0.000164368 0 0 0 0 0 0 0 0 0 0 0 0 0 0 0 0 0 38 0.002 
253 2 0.00749346 0.0947006 -0.0319888 0 0 0 -0.0334079 -0.334494 -0.635448 0 -0.000164368 0 0 0 0 0 0 0 0 0 0 0 0 0 0 0 0 0 38 0.002 
916 8 0.0100994 0.0976398 -0.0330209 0 0 0 -0.254934 -1.18222 -0.0981244 0.0134124 0.0262524 0.0592533 0 0 0 0 0 0 0 0 0 0 0 0 0 0 0 0 30 0.002 
140 4 0.00299078 0.0994624 -0.0321322 0 0 0 -0.049265 0.2594 -0.0564061 0.0186577 0.00871822 -0.0029129 0 0 0 1 0 0 0 0 0 0 0 0 0 0 0 0 37 0.002 
873 6 0.00684081 0.100087 -0.0330033 0 0 0 0.0717476 -0.0743749 0.0881548 0.0041866 0.000918181 -0.00382442 0 0 0 1 0 0 0 0 0 0 0 0 0 0 0 0 17 0.002 
947 4 0.0129978 0.100516 -0.0326903 0 0 0 -0.573377 -0.350206 0.992011 0 -0.000164368 0 0 0 0 0 0 0 0 0 0 0 0 0 0 0 0 0 21 0.002 
801 5 0.00304337 0.103636 -0.0326886 0 0 0 0.0293002 0.347911 -0.0223519 0.0018911 -0.0157878 -0.00196161 0 0 0 0 1 0 0 0 0 0 0 0 0 0 0 0 28 0.002 
293 1 0.00823356 0.104167 -0.0329188 0 0 0 -0.652584 0.949347 0.0738311 0 -0.000164368 0 0 0 0 0 0 0 0 0 0 0 0 0 0 0 0 0 39 0.002 
888 1 0.0125557 0.10451 -0.0327222 0 0 0 -0.867382 -0.294418 0.874375 -0.0126141 -0.0211997 0.000212474 1 0 0 0 0 0 0 0 0 0 0 0 0 0 0 0 28 0.002 
814 13 0.00299118 0.107623 -0.0326622 0 0 0 -0.0846886 0.163502 0.0469233 0.000773392 0.0128048 0.00490426 0 0 0 0 1 0 0 0 0 0 0 0 1 0 0 0 41 0.002 
1218 8 0.00679368 0.107891 -0.0315487 0 0 0 0.0122197 0.111607 0.194923 0.0171047 0.000216916 0.00713953 0 0 0 0 0 0 0 1 0 0 0 0 1 0 0 0 3 0.002 
430 4 0.0107289 0.10803 -0.0322143 0 0 0 0.0665359 -0.238433 0.208689 -0.00154151 -0.0277991 0.00767261 1 0 0 0 0 0 0 1 0 0 0 0 0 0 0 0 41 0.002 
1136 1 0.00804144 0.0861267 -0.0314586 0 0 0 -3.40741 -3.12444 -0.30683 0 -0.000164368 0 0 0 0 0 0 0 0 0 0 0 0 0 0 0 0 0 17 0.002 
319 4 0.0145293 0.0883372 -0.0287213 0 0 0 0.424436 -2.76113 2.82813 0 -0.000164368 0 0 0 0 0 0 0 0 0 0 0 0 0 0 0 0 0 8 0.002 
1146 2 0.00321325 0.0948712 -0.0310026 0 0 0 -0.442295 0.287654 0.306314 0 -0.000164368 0 0 0 0 0 0 0 0 0 0 0 0 0 0 0 0 0 23 0.002 
692 7 0.0185798 0.0907649 -0.0309257 0 0 0 5.88651 -11.6794 8.22246 0 -0.000164368 0 0 0 0 0 0 0 0 0 0 0 0 0 0 0 0 0 33 0.002 
577 2 0.0133231 0.102473 -0.0284605 0 0 0 -1.59792 4.51695 2.21889 0 -0.000164368 0 0 0 0 0 0 0 0 0 0 0 0 0 0 0 0 0 25 0.002 
1228 8 0.0169113 0.104332 -0.0297302 0 0 0 -0.309521 0.472759 -0.0820948 -0.0133762 0.0396341 -0.0135647 0 0 0 0 0 0 0 1 0 0 0 0 0 0 0 0 2 0.002 
1254 3 0.0147907 0.107583 -0.0305733 0 0 0 -0.340023 2.07075 0.270159 0.0133762 -0.0399629 0.0135647 0 0 0 0 0 0 0 1 0 0 0 0 0 0 0 0 1 0.002 
868 5 0.00623705 0.0942023 -0.027672 0 0 0 0.0869485 1.01266 0.222989 0.00337989 0.000307485 -0.000353128 0 0 0 0 1 0 0 0 0 0 0 0 0 0 0 0 24 0.002 
1250 6 0.00327282 0.0989323 -0.0280076 0 0 0 -0.169412 -0.178843 -0.0614108 0 -0.000164368 0 0 0 0 0 0 0 0 0 0 0 0 0 0 0 0 0 1 0.002 
710 2 0.00936619 0.103868 -0.0290338 0 0 0 -0.507655 2.72223 -1.55181 0.338485 -0.229029 -0.122042 0 1 0 0 0 0 0 0 0 0 0 0 0 0 0 0 30 0.002 
1140 12 0.00565821 0.104326 -0.0282369 0 0 0 -1.11787 -0.604214 -0.138954 -0.0542388 0.16915 0.0559035 0 1 0 0 0 0 0 0 0 0 0 1 0 0 0 0 12 0.002 
745 7 0.00290512 0.106885 -0.0273014 0 0 0 0.333001 0.685682 0.153282 -0.0389406 -0.0148918 -0.00289152 0 0 0 0 0 0 0 0 0 0 0 1 0 0 0 0 24 0.002 
517 2 0.0144378 0.106531 -0.0266531 0 0 0 -0.325639 0.71244 0.593614 0 -0.000164368 0 0 0 0 0 0 0 0 0 0 0 0 0 0 0 0 0 24 0.002 
380 3 0.00300476 0.0920225 -0.0267934 0 0 0 0.15937 0.858111 -0.146612 -0.00337989 -0.000636221 0.000353128 0 0 0 0 1 0 0 0 0 0 0 0 0 0 0 0 29 0.002 
8 5 0.0114034 0.0997311 -0.0254708 0 0 0 -0.775973 1.86134 0.0040085 0 -0.000164368 0 0 0 0 0 0 0 0 0 0 0 0 0 0 0 0 0 37 0.002 
1259 7 0.00648273 0.10799 -0.0263377 0 0 0 1.9649 -0.0323245 0.80426 0.151008 0.00178852 0.0461184 0 0 0 0 0 0 0 0 0 0 0 0 0 0 0 0 1 0.002 
229 6 0.00915973 0.0962426 -0.0236073 0 0 0 0.151266 0.0629385 0.402047 0 -0.000164368 0 0 0 0 0 0 0 0 0 0 0 0 0 0 0 0 0 46 0.002 
854 2 0.00618729 0.0988752 -0.0246164 0 0 0 0.298593 0.3551 -0.102045 0 -0.000164368 0 0 0 0 0 0 0 0 0 0 0 0 0 0 0 0 0 25 0.002 
975 4 0.0157417 0.102308 -0.0238303 0 0 0 -0.758408 4.83989 0.656813 0.0140405 0.0030046 -0.026389 0 0 0 1 0 0 0 0 0 0 0 0 0 0 0 0 10 0.002 
1096 8 0.00424484 0.105487 -0.0236789 0 0 0 -1.29205 0.430235 -0.323157 0 -0.000164368 0 0 0 0 0 0 0 0 0 0 0 0 0 0 0 0 0 14 0.002 
1207 4 0.00877752 0.104437 -0.023429 0 0 0 -0.0112624 2.03794 -0.116242 0 -0.000164368 0 0 0 0 0 0 0 0 0 0 0 0 0 0 0 0 0 1 0.002 
807 5 0.0114007 0.0845326 -0.0214241 0 0 0 -0.289515 0.386318 -0.382466 0 -0.000164368 0 0 0 0 0 0 0 0 0 0 0 0 0 0 0 0 0 46 0.002 
224 5 0.00544862 0.0928209 -0.0202377 0 0 0 -0.201366 0.834991 0.949876 0 -0.000164368 0 0 0 0 0 0 0 0 0 0 0 0 0 0 0 0 0 50 0.002 
639 9 0.00780578 0.0989563 -0.0208818 0 0 0 -0.321614 0.416776 -0.721088 0 -0.000164368 0 0 0 0 0 0 0 0 0 0 0 0 0 0 0 0 0 43 0.002 
179 1 0.00968335 0.0960912 -0.0183133 0 0 0 -1.04919 1.89191 2.58609 0 -0.000164368 0 0 0 0 0 0 0 0 0 0 0 0 0 0 0 0 0 36 0.002 
576 2 0.00713667 0.10369 -0.0188117 0 0 0 -0.059669 0.649841 -0.314044 0 -0.000164368 0 0 0 0 0 0 0 0 0 0 0 0 0 0 0 0 0 23 0.002 
525 1 0.0118054 0.105484 -0.0192849 0 0 0 -0.724267 0.781373 -0.235318 0 -0.000164368 0 0 0 0 0 0 0 0 0 0 0 0 0 0 0 0 0 33 0.002 
877 4 0.0162968 0.10499 -0.0204285 0 0 0 0.512579 2.41094 -1.34267 0 -0.000164368 0 0 0 0 0 0 0 0 0 0 0 0 0 0 0 0 0 23 0.002 
1006 1 0.00331879 0.105613 -0.0197739 0 0 0 -0.350585 0.0377978 0.201188 0.0174326 0.016908 -0.170187 1 0 0 0 0 0 0 0 0 0 0 0 0 0 0 0 16 0.002 
788 5 0.0170907 0.0786476 -0.0169788 0 0 0 0.126064 0.757738 -2.25371 0 -0.000164368 0 0 0 0 0 0 0 0 0 0 0 0 0 0 0 0 0 36 0.002 
1272 4 0.00860436 0.0844636 -0.0153563 0 0 0 -0.536368 -0.841907 1.33615 0 -0.000164368 0 0 0 0 0 0 0 0 0 0 0 0 0 0 0 0 0 0 0.002 
891 2 0.00298904 0.107794 -0.0164703 0 0 0 0.194789 -1.26625 -1.23744 -0.0197364 -0.0165721 0.171127 1 0 0 0 0 0 0 0 0 0 0 0 0 0 0 0 17 0.002 
658 8 0.00751535 0.107894 -0.0169796 0 0 0 -1.45367 -0.539708 -0.61102 0 -0.000164368 0 0 0 0 0 0 0 0 0 0 0 0 0 0 0 0 0 30 0.002 
902 3 0.0184167 0.0755774 -0.0146229 0 0 0 -0.119908 -0.109633 -2.32994 0 -0.000164368 0 0 0 0 0 0 0 0 0 0 0 0 0 0 0 0 0 18 0.002 
990 2 0.00740333 0.101753 -0.0150121 0 0 0 0.532273 0.665623 0.0605242 0 -0.000164368 0 0 0 0 0 0 0 0 0 0 0 0 0 0 0 0 0 19 0.002 
815 10 0.0136883 0.101996 -0.0139336 0 0 0 -1.00699 1.07019 0.918501 0 -0.000164368 0 0 0 0 0 0 0 0 0 0 0 0 0 0 0 0 0 35 0.002 
108 2 0.00318043 0.105493 -0.0128588 0 0 0 -0.348697 -0.224473 0.769619 -0.0864027 -0.208998 0.00503525 0 0 0 0 0 0 0 0 0 0 0 0 0 0 0 0 52 0.002 
797 6 0.0110272 0.107519 -0.0140887 0 0 0 -1.60661 1.95313 1.18099 0 -0.000164368 0 0 0 0 0 0 0 0 0 0 0 0 0 0 0 0 0 33 0.002 
963 3 0.015167 0.107626 -0.0131377 0 0 0 -1.52676 0.188086 1.70813 0 -0.000164368 0 0 0 0 0 0 0 0 0 0 0 0 0 0 0 0 0 20 0.002 
167 2 0.00604981 0.108104 -0.0130506 0 0 0 -0.283371 -0.0544753 0.408348 0.0299147 -0.304356 -0.0172871 0 0 0 0 0 0 0 0 0 0 0 0 0 0 0 0 30 0.002 
65 2 0.00432367 0.0775947 -0.0131667 0 0 0 -0.273334 0.560684 -2.9983 0 -0.000164368 0 0 0 0 0 0 0 0 0 0 0 0 0 0 0 0 0 31 0.002 
974 2 0.0176457 0.076045 -0.0100449 0 0 0 -1.04074 0.810786 -2.0286 0 -0.000164368 0 0 0 0 0 0 0 0 0 0 0 0 0 0 0 0 0 30 0.002 
384 6 0.0176852 0.0863633 -0.00965716 0 0 0 -1.07055 -1.95577 1.54894 0 -0.000164368 0 0 0 0 0 0 0 0 0 0 0 0 0 0 0 0 0 47 0.002 
96 2 0.0173718 0.0999293 -0.0114738 0 0 0 2.8264 2.20173 -1.20896 0 -0.000164368 0 0 0 0 0 0 0 0 0 0 0 0 0 0 0 0 0 48 0.002 
404 6 0.00487483 0.104703 -0.0088768 0 0 0 1.41925 1.7097 1.66422 -0.138348 -0.174418 -0.217535 0 0 0 0 0 1 0 0 0 0 0 0 0 0 0 0 27 0.002 
1202 4 0.0176516 0.103935 -0.0102481 0 0 0 1.07581 2.90777 0.342129 -0.164148 -0.263868 -0.106579 0 0 0 1 0 0 0 0 0 0 0 0 0 0 0 0 1 0.002 
1101 3 0.00301289 0.108094 -0.00977809 0 0 0 0.945885 0.148187 0.603469 -0.0488462 -0.421517 0.0247753 0 0 0 0 0 1 0 0 0 0 0 0 0 0 0 0 8 0.002 
1256 2 0.00933619 0.107947 -0.00901589 0 0 0 -0.22884 0.394656 0.376308 0 -0.000164368 0 0 0 0 0 0 0 0 0 0 0 0 0 0 0 0 0 1 0.002 
979 4 0.00527275 0.0779468 -0.00920376 0 0 0 -0.0716863 0.149218 -2.34359 0 -0.000164368 0 0 0 0 0 0 0 0 0 0 0 0 0 0 0 0 0 26 0.002 
1053 9 0.00847738 0.0869482 -0.00896677 0 0 0 -1.20395 3.53578 -2.92784 0 -0.000164368 0 0 0 0 0 0 0 0 0 0 0 0 0 0 0 0 0 15 0.002 
967 2 0.0126774 0.0856995 0.0099047 0 0 0 0.299703 0.70936 -0.799246 0 -0.000164368 0 0 0 0 0 0 0 0 0 0 0 0 0 0 0 0 0 16 0.002 
887 1 0.00316454 0.103108 -0.00531627 0 0 0 -0.346989 1.67715 1.80015 0 -0.000164368 0 0 0 0 0 0 0 0 0 0 0 0 0 0 0 0 0 19 0.002 
685 7 0.011002 0.105137 -0.00600285 0 0 0 0.609089 0.34289 0.425095 0 -0.000164368 0 0 0 0 0 0 0 0 0 0 0 0 0 0 0 0 0 32 0.002 
381 2 0.00736087 0.0759873 -0.0052181 0 0 0 0.577898 0.270031 -2.153 0 -0.000164368 0 0 0 0 0 0 0 0 0 0 0 0 0 0 0 0 0 51 0.002 
575 3 0.00601543 0.088281 -0.00241113 0 0 0 2.96783 -7.00399 2.06471 0 -0.000164368 0 0 0 0 0 0 0 0 0 0 0 0 0 0 0 0 0 43 0.002 
29 5 0.00763761 0.0982218 -0.00592831 0 0 0 0.16795 0.608162 0.170401 -0.0618364 -0.0443905 -0.0208045 0 0 0 0 1 0 0 0 0 0 0 0 0 0 0 0 56 0.002 
597 6 0.00958434 0.101323 -0.00441745 0 0 0 0.0746218 -0.0918532 0.402658 0.0618364 0.0440618 0.0208045 0 0 0 0 1 0 0 0 0 0 0 0 0 0 0 0 49 0.002 
139 6 0.00683563 0.104778 -0.00552152 0 0 0 0.652206 0.982819 1.13944 0.207432 0.120204 0.198967 0 0 0 0 0 0 0 0 0 0 0 0 0 0 0 0 47 0.002 
1002 1 0.00440044 0.107941 -0.0058977 0 0 0 -0.579195 0.428593 0.46274 0 -0.000164368 0 0 0 0 0 0 0 0 0 0 0 0 0 0 0 0 0 16 0.002 
1271 4 0.016555 0.0866504 -0.002542 0 0 0 0.37801 0.916753 -0.0975554 0 -0.000164368 0 0 0 0 0 0 0 0 0 0 0 0 0 0 0 0 0 0 0.002 
482 4 0.00910479 0.0937648 -0.000150848 0 0 0 3.11031 2.11566 4.44557 -0.155659 0.00197649 -0.779468 0 0 0 1 0 0 0 0 0 0 0 0 0 0 0 0 35 0.002 
860 11 0.0033055 0.0976913 -0.00286857 0 0 0 -0.86484 1.9982 1.05262 0 -0.000164368 0 0 0 0 0 0 0 0 0 0 0 0 0 0 0 0 0 29 0.002 
199 4 0.012161 0.0829865 -0.00106239 0 0 0 -0.847983 0.796671 -0.690403 0 -0.000164368 0 0 0 0 0 0 0 0 0 0 0 0 0 0 0 0 0 49 0.002 
787 3 0.00579641 0.0894825 0.00217587 0 0 0 0.29054 2.83195 4.94488 0.0846438 0.0994316 -0.0778563 0 0 1 0 0 0 0 0 0 0 0 0 0 0 0 0 28 0.002 
1268 9 0.0130787 0.0867859 0.00133199 0 0 0 1.97792 -1.80766 2.54306 0 -0.000164368 0 0 0 0 0 0 0 0 0 0 0 0 0 0 0 0 0 0 0.002 
937 4 0.0152364 0.0911544 -0.00109365 0 0 0 -1.88951 -0.905287 0.5515 0 -0.000164368 0 0 0 0 0 0 0 0 0 0 0 0 0 0 0 0 0 20 0.002 
188 6 0.00646616 0.103094 -0.00118547 0 0 0 0.489328 0.864909 -0.0341261 0 -0.000164368 0 0 0 0 0 0 0 0 0 0 0 0 0 0 0 0 0 49 0.002 
468 8 0.00509765 0.107928 -0.000628587 0 0 0 0.335176 0.252016 0.804159 0 -0.000164368 0 0 0 0 0 0 0 0 0 0 0 0 0 0 0 0 0 47 0.002 
195 7 0.0149051 0.1071 0.000955053 0 0 0 0.0653226 0.207846 0.96834 -0.019836 -0.00652948 -0.0086278 0 0 0 0 0 0 1 0 0 0 0 0 0 0 0 0 38 0.002 
141 5 0.0185119 0.0883853 0.00217307 0 0 0 0.505063 2.89682 1.07022 0 -0.000164368 0 0 0 0 0 0 0 0 0 0 0 0 0 0 0 0 0 63 0.002 
829 1 0.00419495 0.0960592 0.001325 0 0 0 1.05141 2.97065 0.0778673 0 -0.000164368 0 0 0 0 0 0 0 0 0 0 0 0 0 0 0 0 0 22 0.002 
301 5 0.0165616 0.104204 0.00316099 0 0 0 -0.578457 0.607897 0.3746 0.019836 0.00620074 0.0086278 0 0 0 0 0 0 1 0 0 0 0 0 0 0 0 0 49 0.002 
1111 4 0.00454664 0.0865676 0.00434406 0 0 0 -1.1017 -2.05762 1.7859 -0.0846438 -0.0997603 0.0778563 0 0 1 0 0 0 0 0 0 0 0 0 0 0 0 0 13 0.002 
59 3 0.00852234 0.0926092 0.00346604 0 0 0 -0.797806 2.54943 -0.510961 0.155659 -0.00230522 0.779468 0 0 0 1 0 0 0 0 0 0 0 0 0 0 0 0 17 0.002 
268 5 0.00422693 0.107954 0.00508818 0 0 0 0.651356 -0.200448 0.962151 0 -0.000164368 0 0 0 0 0 0 0 0 0 0 0 0 0 0 0 0 0 51 0.002 
762 6 0.0119685 0.0817466 0.00635064 0 0 0 0.837882 1.32669 -1.91297 0 -0.000164368 0 0 0 0 0 0 0 0 0 0 0 0 0 0 0 0 0 40 0.002 
308 1 0.00323054 0.0828082 0.00632086 0 0 0 0.0713595 -0.0181107 -0.573348 0 -0.000164368 0 0 0 0 0 0 0 0 0 0 0 0 0 0 0 0 0 55 0.002 
802 4 0.0154059 0.0901853 0.00540503 0 0 0 0.0187911 1.84506 -0.709018 0 -0.000164368 0 0 0 0 0 0 0 0 0 0 0 0 0 0 0 0 0 27 0.002 
1238 1 0.0138585 0.0939413 0.00614556 0 0 0 0.114965 2.05163 -0.537095 0 -0.000164368 0 0 0 0 0 0 0 0 0 0 0 0 0 0 0 0 0 4 0.002 
769 5 0.00718797 0.0960099 0.00530684 0 0 0 -0.262311 2.65621 -0.783497 0 -0.000164368 0 0 0 0 0 0 0 0 0 0 0 0 0 0 0 0 0 30 0.002 
904 3 0.0134992 0.106675 0.00669159 0 0 0 -0.313767 0.142056 1.52231 0 -0.000164368 0 0 0 0 0 0 0 0 0 0 0 0 0 0 0 0 0 14 0.002 
1230 3 0.0153292 0.0805157 0.00903873 0 0 0 0.439344 0.231432 -0.354211 0 -0.000164368 0 0 0 0 0 0 0 0 0 0 0 0 0 0 0 0 0 1 0.002 
834 3 0.0180661 0.0883329 0.00968169 0 0 0 -0.225733 0.911107 -0.0948196 0 -0.000164368 0 0 0 0 0 0 0 0 0 0 0 0 0 0 0 0 0 30 0.002 
262 3 0.00784114 0.0911931 0.00891039 0 0 0 -0.0388355 1.5908 -0.0240786 0 -0.000164368 0 0 0 0 0 0 0 0 0 0 0 0 0 0 0 0 0 33 0.002 
1215 2 0.00390012 0.0928268 0.0093199 0 0 0 0.328896 0.732759 -0.0319673 0 -0.000164368 0 0 0 0 0 0 0 0 0 0 0 0 0 0 0 0 0 0 0.002 
1156 1 0.00471417 0.0974907 0.0086233 0 0 0 -0.633383 1.50937 -0.300108 0.0733798 -0.0931315 -0.0592329 1 0 0 0 0 0 0 0 0 0 0 0 0 0 0 0 6 0.002 
919 2 0.012413 0.0992262 0.00876247 0 0 0 0.0793808 0.763742 -0.0678659 0 -0.000164368 0 0 0 0 0 0 0 0 0 0 0 0 0 0 0 0 0 23 0.002 
765 1 0.00815247 0.105474 0.0327995 0 0 0 0.033824 -0.115953 0.104891 0 -0.000164368 0 0 0 0 0 0 0 0 0 0 0 0 0 0 0 0 0 30 0.002 
481 2 0.00336875 0.0875333 0.0110692 0 0 0 0.339445 -0.0794533 0.106147 0 -0.000164368 0 0 0 0 0 0 0 0 0 0 0 0 0 0 0 0 0 23 0.002 
243 5 0.00932245 0.096658 0.0103037 0 0 0 -0.230278 0.853144 0.37496 0 -0.000164368 0 0 0 0 0 0 0 0 0 0 0 0 0 0 0 0 0 19 0.002 
934 1 0.0167141 0.0970088 0.0113572 0 0 0 0.288744 0.592423 0.187964 0 -0.000164368 0 0 0 0 0 0 0 0 0 0 0 0 0 0 0 0 0 31 0.002 
806 8 0.00326505 0.0993524 0.0117693 0 0 0 -0.247432 0.201248 0.280339 -0.0733798 0.0928028 0.0592329 0 0 0 0 0 0 0 1 0 0 0 0 0 0 0 0 28 0.002 
640 1 0.0173069 0.101398 0.012321 0 0 0 0.053033 0.148937 0.641828 0 -0.000164368 0 0 0 0 0 0 0 0 0 0 0 0 0 0 0 0 0 24 0.002 
323 7 0.0034839 0.106768 0.0123675 0 0 0 0.135771 0.0237538 0.553846 0 -0.000164368 0 0 0 0 0 0 0 0 0 0 0 0 0 0 0 0 0 45 0.002 
924 7 0.013756 0.0768501 0.0142689 0 0 0 -0.362334 0.192379 0.544097 -0.00138514 0.000488268 0.00297418 0 0 0 0 0 0 1 0 0 0 0 0 0 0 0 0 20 0.002 
492 4 0.0171491 0.0795379 0.0131355 0 0 0 -0.163407 0.468139 -0.53769 0 -0.000164368 0 0 0 0 0 0 0 0 0 0 0 0 0 0 0 0 0 28 0.002 
222 8 0.0079716 0.0801052 0.0139522 0 0 0 0.262358 0.241715 -0.104531 0 -0.000164368 0 0 0 0 0 0 0 0 0 0 0 0 0 0 0 0 0 30 0.002 
370 4 0.0063469 0.0840947 0.0121936 0 0 0 -0.162921 0.331916 -0.337788 0 -0.000164368 0 0 0 0 0 0 0 0 0 0 0 0 0 0 0 0 0 42 0.002 
1001 4 0.0104462 0.0830481 0.0123382 0 0 0 0.106575 0.560496 -0.506135 0 -0.000164368 0 0 0 0 0 0 0 0 0 0 0 0 0 0 0 0 0 26 0.002 
534 13 0.0141601 0.0825734 0.0139466 0 0 0 -0.019787 0.279027 0.0321221 0 -0.000164368 0 0 0 0 0 0 0 0 0 0 0 0 0 0 0 0 0 42 0.002 
698 6 0.010464 0.0868697 0.0137377 0 0 0 0.115138 0.670716 -0.475186 0 -0.000164368 0 0 0 0 0 0 0 0 0 0 0 0 0 0 0 0 0 35 0.002 
1147 9 0.016954 0.0853607 0.013232 0 0 0 0.100322 0.156312 -0.215395 0 -0.000164368 0 0 0 0 0 0 0 0 0 0 0 0 0 0 0 0 0 7 0.002 
674 10 0.00300251 0.089953 0.0142393 0 0 0 0.017925 0.0420865 -0.0422226 0 -0.000164368 0 0 0 0 0 0 0 0 0 0 0 0 0 0 0 0 0 31 0.002 
1060 2 0.0121691 0.0918925 0.012451 0 0 0 0.684483 1.35666 0.361577 0 -0.000164368 0 0 0 0 0 0 0 0 0 0 0 0 0 0 0 0 0 12 0.002 
1032 4 0.0166678 0.0933914 0.0139149 0 0 0 0.0567283 0.384479 0.147148 0 -0.000164368 0 0 0 0 0 0 0 0 0 0 0 0 0 0 0 0 0 16 0.002 
1214 5 0.00620734 0.0948557 0.013197 0 0 0 -0.110761 0.105385 -0.169242 0 -0.000164368 0 0 0 0 0 0 0 0 0 0 0 0 0 0 0 0 0 0 0.002 
53 3 0.0118424 0.100366 0.0134625 0 0 0 -0.0754159 0.029527 0.05191 0 -0.000164368 0 0 0 0 0 0 0 0 0 0 0 0 0 0 0 0 0 52 0.002 
668 7 0.0141026 0.103792 0.0145801 0 0 0 -0.227161 0.184873 0.534488 0 -0.000164368 0 0 0 0 0 0 0 0 0 0 0 0 0 0 0 0 0 24 0.002 
621 4 0.0172117 0.0755424 0.0164223 0 0 0 -0.128289 0.194183 0.245636 0 -0.000164368 0 0 0 0 0 0 0 0 0 0 0 0 0 0 0 0 0 38 0.002 
915 9 0.00303145 0.0794329 0.015492 0 0 0 0.0565089 -0.287186 0.106651 0 -0.000164368 0 0 0 0 0 0 0 0 0 0 0 0 0 0 0 0 0 32 0.002 
128 4 0.011967 0.0798959 0.0161227 0 0 0 -0.0484203 0.756708 0.349446 0.00138514 -0.000817004 -0.00297418 0 0 0 0 0 0 1 0 0 0 0 0 0 0 0 0 43 0.002 
451 1 0.0180941 0.0817985 0.0163418 0 0 0 -0.175212 -0.16946 -0.327887 0 -0.000164368 0 0 0 0 0 0 0 0 0 0 0 0 0 0 0 0 0 36 0.002 
827 2 0.00330259 0.0853634 0.014537 0 0 0 0.216232 0.0663985 0.0619599 0 -0.000164368 0 0 0 0 0 0 0 0 0 0 0 0 0 0 0 0 0 23 0.002 
245 1 0.00660345 0.0869598 0.0165752 0 0 0 -0.13201 0.0192741 0.144861 0 -0.000164368 0 0 0 0 0 0 0 0 0 0 0 0 0 0 0 0 0 29 0.002 
1225 1 0.0146409 0.0880862 0.0155689 0 0 0 0.0998967 0.182399 -0.0464114 0 -0.000164368 0 0 0 0 0 0 0 0 0 0 0 0 0 0 0 0 0 7 0.002 
406 5 0.0111166 0.089951 0.0162716 0 0 0 0.197133 0.316789 0.0800571 -0.0178987 -0.00084007 -0.0134854 0 0 0 0 1 0 0 0 0 0 0 0 0 0 0 0 48 0.002 
1077 1 0.00705266 0.0916056 0.0162548 0 0 0 0.133699 0.387869 0.387154 0 -0.000164368 0 0 0 0 0 0 0 0 0 0 0 0 0 0 0 0 0 9 0.002 
58 1 0.00309423 0.0938326 0.0154924 0 0 0 0.00720592 -0.0021217 0.036233 -0.000604918 -0.0011362 -0.00406422 1 0 0 0 0 0 0 0 0 0 0 0 0 0 0 0 46 0.002 
1188 4 0.00370256 0.0977671 0.0163356 0 0 0 0.0517003 0.0499357 0.0417433 0 -0.000164368 0 0 0 0 0 0 0 0 0 0 0 0 0 0 0 0 0 6 0.002 
1025 4 0.0097959 0.0983601 0.0163157 0 0 0 -0.0428606 -0.0431608 -0.0488445 0 -0.000164368 0 0 0 0 0 0 0 0 0 0 0 0 0 0 0 0 0 22 0.002 
598 1 0.00432353 0.10156 0.0151667 0 0 0 0.111424 0.0830051 0.0436768 0 -0.000164368 0 0 0 0 0 0 0 0 0 0 0 0 0 0 0 0 0 35 0.002 
1239 4 0.00861987 0.107815 0.0169425 0 0 0 -0.21399 -0.0504591 0.535445 0 -0.000164368 0 0 0 0 0 0 0 0 0 0 0 0 0 0 0 0 0 0 0.002 
606 4 0.00962203 0.0774839 0.0185387 0 0 0 -0.191574 0.0831538 0.0710365 0 -0.000164368 0 0 0 0 0 0 0 0 0 0 0 0 0 0 0 0 0 54 0.002 
572 3 0.0060772 0.0817488 0.0171282 0 0 0 -0.180462 0.49745 -0.359558 0 -0.000164368 0 0 0 0 0 0 0 0 0 0 0 0 0 0 0 0 0 35 0.002 
1212 1 0.010006 0.0819626 0.0189482 0 0 0 -0.124669 0.302885 0.599631 0 -0.000164368 0 0 0 0 0 0 0 0 0 0 0 0 0 0 0 0 0 9 0.002 
650 3 0.0138133 0.0841337 0.0187123 0 0 0 0.0105761 0.024123 0.0596676 -0.00262325 0.002765 -0.00101209 0 0 1 0 0 0 0 0 0 0 0 0 0 0 0 0 42 0.002 
297 3 0.00302034 0.0866538 0.0187377 0 0 0 0.0538941 0.121033 0.0252044 0 -0.000164368 0 0 0 0 0 0 0 0 0 0 0 0 0 0 0 0 0 43 0.002 
832 8 0.0171754 0.08655 0.018261 0 0 0 0.105836 0.0920094 -0.0656292 -0.000153863 -0.000242935 0.000499699 0 0 0 0 0 0 0 2 0 0 0 0 0 0 0 0 37 0.002 
1223 2 0.00299833 0.090776 0.0183993 0 0 0 0.00548401 0.152247 0.131082 0.000713371 -0.000291128 0.000333401 0 0 0 0 0 0 0 0 0 0 0 0 0 0 0 0 2 0.002 
753 6 0.0142796 0.0909094 0.0184931 0 0 0 0.112988 0.0883775 -0.0160453 0.0173232 -0.000105288 0.0111058 0 0 0 0 1 1 0 0 0 0 0 0 0 0 0 0 58 0.002 
927 3 0.0179767 0.0907654 0.0168467 0 0 0 0.030287 0.0251442 0.142513 -0.000737609 0.0010038 0.00119025 0 0 1 0 0 0 0 0 0 0 0 0 0 0 0 0 20 0.002 
584 8 0.00700577 0.0956066 0.0176686 0 0 0 0.0566774 -0.107904 0.0557632 0 -0.000164368 0 0 0 0 0 0 0 0 0 0 0 0 0 0 0 0 0 48 0.002 
1244 12 0.0140602 0.0949579 0.017918 0 0 0 -0.0881132 -0.297985 0.0736455 -0.00224891 0.00107253 -0.000322446 0 0 0 0 0 0 0 0 0 0 0 1 0 0 0 0 4 0.002 
362 1 0.0180376 0.0946701 0.0177222 0 0 0 -0.0241109 0.094259 0.160631 0.00341302 -0.0086581 -0.0123733 1 0 0 0 0 0 0 0 0 0 0 1 0 0 0 0 23 0.002 
952 3 0.00314625 0.102167 0.0189727 0 0 0 0.0357223 0.0198055 0.0731782 0 -0.000164368 0 0 0 0 0 0 0 0 0 0 0 0 0 0 0 0 0 12 0.002 
1174 9 0.00683182 0.103943 0.0174712 0 0 0 -0.0251938 -0.146585 0.590019 0 -0.000164368 0 0 0 0 0 0 0 0 0 0 0 0 0 0 0 0 0 1 0.002 