ITEM: TIMESTEP
10450000
ITEM: NUMBER OF ATOMS
1279
ITEM: BOX BOUNDS ff ff ff
-0.01 0.45
-0.15 0.15
-0.08 0.1
ITEM: ATOMS id type x y z ix iy iz vx vy vz fx fy fz c_cc_1 c_cc_2 c_cc_3 c_cc_4 c_cc_5 c_cc_6 c_cc_7 c_cc_8 c_cc_9 c_cc_10 c_cc_11 c_cc_12 c_cc_13 c_cc_14 c_cc_15 c_cc_16 f_fppacc radius 
1031 3 0.0155498 -0.0308703 -0.0481767 0 0 0 0.474242 -1.96869 1.22428 0 -0.000164368 0 0 0 0 0 0 0 0 0 0 0 0 0 0 0 0 0 26 0.002 
554 3 0.0151241 0.0102685 -0.056954 0 0 0 0.582211 -2.24655 0.27424 0 -0.000164368 0 0 0 0 0 0 0 0 0 0 0 0 0 0 0 0 0 27 0.002 
1162 3 0.00378904 0.019364 -0.0513421 0 0 0 0.405145 -1.07602 0.242792 0 -0.000164368 0 0 0 0 0 0 0 0 0 0 0 0 0 0 0 0 0 12 0.002 
942 2 0.0141759 0.0287156 -0.0437929 0 0 0 -1.89988 -1.0058 -19.2386 0 -0.000164368 0 0 0 0 0 0 0 0 0 0 0 0 0 0 0 0 0 17 0.002 
1061 5 0.00425921 0.0281684 -0.036979 0 0 0 -0.351706 -4.05698 -13.5499 0 -0.000164368 0 0 0 0 0 0 0 0 0 0 0 0 0 0 0 0 0 19 0.002 
425 1 0.00678204 0.0219484 -0.0279742 0 0 0 0.28424 -2.5989 0.381789 0 -0.000164368 0 0 0 0 0 0 0 0 0 0 0 0 0 0 0 0 0 47 0.002 
716 5 0.00510375 0.0342605 0.0229364 0 0 0 -0.435742 -1.62267 -1.34067 0 -0.000164368 0 0 0 0 0 0 0 0 0 0 0 0 0 0 0 0 0 28 0.002 
835 12 0.0142195 0.0302677 0.0274439 0 0 0 0.577405 -2.08529 0.314632 0 -0.000164368 0 0 0 0 0 0 0 0 0 0 0 0 0 0 0 0 0 33 0.002 
989 4 0.0100081 0.0156809 0.038041 0 0 0 -0.0873425 21.1887 -17.1021 0 -0.000164368 0 0 0 0 0 0 0 0 0 0 0 0 0 0 0 0 0 12 0.002 
69 6 0.0028449 0.0186627 0.0519171 0 0 0 2.48802 17.013 -4.6081 0.453924 -1.04021 0.276243 0 0 0 0 0 0 0 0 0 0 0 0 0 0 0 0 33 0.002 
41 1 0.015124 0.0528572 -0.0355 0 0 0 0 3.24482e-19 -6.7269e-12 -0 0 0 0 0 0 0 0 0 0 0 0 0 0 0 0 0 0 0 2 0.002 
1117 1 0.00714633 0.070596 -0.0205937 0 0 0 -1.34247 -1.79292 3.84612 0 -0.000164368 0 0 0 0 0 0 0 0 0 0 0 0 0 0 0 0 0 0 0.002 
61 8 0.00329289 0.0745966 -0.0233671 0 0 0 1.16787 0.475231 0.623216 0 -0.000164368 0 0 0 0 0 0 0 0 0 0 0 0 0 0 0 0 0 21 0.002 
515 5 0.0115757 0.0454707 -0.0194146 0 0 0 0.476512 -1.28207 0.751031 0 -0.000164368 0 0 0 0 0 0 0 0 0 0 0 0 0 0 0 0 0 46 0.002 
1307 1 0.00999684 0.0535485 -0.0172755 0 0 0 -6.49868 -3.9891 4.42899 0 -0.000164368 0 0 0 0 0 0 0 0 0 0 0 0 0 0 0 0 0 0 0.002 
1050 1 0.012156 0.0503969 -0.0121162 0 0 0 3.12861 5.72144 -0.0243742 0 -0.000164368 0 0 0 0 0 0 0 0 0 0 0 0 0 0 0 0 0 16 0.002 
1300 2 0.00393295 0.0656788 -0.0142522 0 0 0 -2.08123 10.8621 -8.14853 0 -0.000164368 0 0 0 0 0 0 0 0 0 0 0 0 0 0 0 0 0 0 0.002 
915 9 0.0127181 0.0675862 -0.0114357 0 0 0 3.57258 6.12528 -13.4168 0 -0.000164368 0 0 0 0 0 0 0 0 0 0 0 0 0 0 0 0 0 32 0.002 
1068 4 0.0153374 0.0708211 -0.0066669 0 0 0 -1.17629 -0.260376 -2.46779 0 -0.000164368 0 0 0 0 0 0 0 0 0 0 0 0 0 0 0 0 0 14 0.002 
984 3 0.0134648 0.0736973 0.00105605 0 0 0 -0.395748 0.038379 -1.38486 0 -0.000164368 0 0 0 0 0 0 0 0 0 0 0 0 0 0 0 0 0 30 0.002 
218 4 0.0127717 0.0393227 -0.0224598 0 0 0 0.336311 4.62067 2.53918 0 -0.000164368 0 0 0 0 0 0 0 0 0 0 0 0 0 0 0 0 0 18 0.002 
324 5 0.0133627 0.0737916 0.0330011 0 0 0 -0.0386179 -0.219779 -0.00335095 -0.000941866 -0.00183451 0.000596706 0 0 0 0 1 0 0 0 0 0 0 0 0 0 0 0 48 0.002 
572 3 0.0124964 0.0734292 0.0111636 0 0 0 -0.198276 -0.412219 -0.639297 0 -0.000164368 0 0 0 0 0 0 0 0 0 0 0 0 0 0 0 0 0 36 0.002 
951 10 0.0109176 0.0701705 0.013586 0 0 0 -0.166426 -0.48545 -0.38387 0 -0.000164368 0 0 0 0 0 0 0 0 0 0 0 0 0 0 0 0 0 22 0.002 
735 8 0.0165054 0.0741861 0.0129979 0 0 0 0.112984 -0.653675 -0.616241 0 -0.000164368 0 0 0 0 0 0 0 0 0 0 0 0 0 0 0 0 0 23 0.002 
871 2 0.0149467 0.0586345 0.0151085 0 0 0 -4.90902 5.95011 -2.90755 0 -0.000164368 0 0 0 0 0 0 0 0 0 0 0 0 0 0 0 0 0 16 0.002 
603 7 0.00781759 0.063508 0.0135802 0 0 0 1.82328 3.44446 -4.78365 0 -0.000164368 0 0 0 0 0 0 0 0 0 0 0 0 0 0 0 0 0 40 0.002 
1100 2 0.00375626 0.0726489 0.0144448 0 0 0 1.19309 4.48664 -1.45086 0 -0.000164368 0 0 0 0 0 0 0 0 0 0 0 0 0 0 0 0 0 13 0.002 
971 2 0.00344601 0.0688455 0.0167678 0 0 0 1.09399 2.05066 -1.69773 0 -0.000164368 0 0 0 0 0 0 0 0 0 0 0 0 0 0 0 0 0 24 0.002 
568 1 0.00910146 0.0672931 0.0184486 0 0 0 -0.732156 -0.766974 -0.201667 0 -0.000164368 0 0 0 0 0 0 0 0 0 0 0 0 0 0 0 0 0 16 0.002 
739 2 0.0132622 0.0672621 0.018376 0 0 0 -0.290678 -1.59679 0.482265 0 -0.000164368 0 0 0 0 0 0 0 0 0 0 0 0 0 0 0 0 0 48 0.002 
230 6 0.00386255 0.0731175 0.0184952 0 0 0 -0.252048 0.0115161 -0.281621 0 -0.000164368 0 0 0 0 0 0 0 0 0 0 0 0 0 0 0 0 0 51 0.002 
1244 12 0.0120466 0.0746872 0.0177708 0 0 0 -0.503067 -0.612829 -0.0771414 0 -0.000164368 0 0 0 0 0 0 0 0 0 0 0 0 0 0 0 0 0 7 0.002 
635 4 0.0171529 0.0724333 0.0327451 0 0 0 -0.0528316 -0.212036 -0.0511007 -0.00400977 -0.000241608 0.000649664 0 0 0 1 0 0 0 0 0 0 0 0 0 0 0 0 53 0.002 
976 5 0.00669927 0.0662104 0.0218882 0 0 0 -0.216792 -0.54012 -0.113916 0 -0.000164368 0 0 0 0 0 0 0 0 0 0 0 0 0 0 0 0 0 22 0.002 
527 8 0.0121595 0.0707776 0.0213476 0 0 0 -0.487529 -0.34478 -0.328775 0 -0.000164368 0 0 0 0 0 0 0 0 0 0 0 0 0 0 0 0 0 37 0.002 
193 8 0.00665905 0.0743259 0.0213885 0 0 0 -0.126023 -0.277768 -0.0990993 0.00291901 -0.0007635 0.000934169 0 0 0 0 0 0 0 1 0 0 0 0 0 0 0 0 54 0.002 
417 1 0.00322896 0.0629813 0.0252745 0 0 0 0.0794897 0.0881339 -0.763971 0 -0.000164368 0 0 0 0 0 0 0 0 0 0 0 0 0 0 0 0 0 60 0.002 
705 14 0.00957791 0.0609159 0.024765 0 0 0 -0.470083 -0.736246 -0.18805 0 -0.000164368 0 0 0 0 0 0 0 0 0 0 0 0 0 0 0 0 0 44 0.002 
983 5 0.00304101 0.0684425 0.0234947 0 0 0 0.00322725 -0.450643 -0.0114495 0 -0.000164368 0 0 0 0 0 0 0 0 0 0 0 0 0 0 0 0 0 20 0.002 
322 2 0.0102769 0.0684547 0.0246192 0 0 0 0.0379268 -0.286237 -0.251808 -6.07846e-05 -8.94953e-05 -0.000246364 0 1 0 0 0 0 0 0 0 0 0 0 0 0 0 0 53 0.002 
948 3 0.0172229 0.0686737 0.0238834 0 0 0 -0.121076 -1.18389 0.579659 0 -0.000164368 0 0 0 0 0 0 0 0 0 0 0 0 0 0 0 0 0 28 0.002 
18 3 0.00551687 0.0723148 0.024733 0 0 0 -0.119025 -0.0393433 -0.0952031 -0.000274849 0.00245926 -0.00150409 0 0 1 0 0 0 0 0 0 0 0 0 0 0 0 0 50 0.002 
9 6 0.00977965 0.0725372 0.0244076 0 0 0 -0.0823094 -0.222006 0.0381962 0 -0.000164368 0 0 0 0 0 0 0 0 0 0 0 0 0 0 0 0 0 60 0.002 
732 4 0.0176888 0.0746567 0.0255582 0 0 0 -0.062537 -0.22216 -0.0441715 0.000596014 0.00277354 -0.00568721 0 0 0 1 0 0 0 0 0 0 0 0 0 0 0 0 39 0.002 
182 2 0.0128474 0.0575841 0.0261593 0 0 0 -1.50323 -1.41801 -0.41141 0 -0.000164368 0 0 0 0 0 0 0 0 0 0 0 0 0 0 0 0 0 47 0.002 
1153 8 0.00631973 0.0663062 0.0263228 0 0 0 0.0236876 -0.0393996 -0.158158 -0.00167952 -0.00286504 -0.000249291 0 0 0 0 0 0 0 1 0 0 0 0 0 0 0 0 24 0.002 
665 2 0.00694113 0.0700141 0.0276674 0 0 0 0.0794637 -0.0411461 -0.14009 -0.00840314 -0.0109625 -0.00179659 0 0 1 0 0 0 0 1 0 0 0 0 0 0 0 0 34 0.002 
998 5 0.0106455 0.060043 0.0286138 0 0 0 -0.35746 -0.523024 -0.119831 0 -0.000164368 0 0 0 0 0 0 0 0 0 0 0 0 0 0 0 0 0 19 0.002 
995 2 0.0137402 0.0621213 0.0303423 0 0 0 -2.30284 -0.452187 0.836238 0 -0.000164368 0 0 0 0 0 0 0 0 0 0 0 0 0 0 0 0 0 21 0.002 
548 4 0.00330225 0.0648065 0.0296602 0 0 0 0.0787518 -0.296925 -0.18102 0 -0.000164368 0 0 0 0 0 0 0 0 0 0 0 0 0 0 0 0 0 45 0.002 
416 5 0.0143219 0.0667325 0.0288292 0 0 0 0.0156015 -0.178525 -0.157427 0 -0.000164368 0 0 0 0 0 0 0 0 0 0 0 0 0 0 0 0 0 50 0.002 
1186 8 0.00312193 0.0696099 0.0288438 0 0 0 0.0437964 -0.0218976 -0.0718363 -5.82786e-06 -0.000141528 -1.06537e-05 0 0 0 0 0 0 0 1 0 0 0 0 0 0 0 0 12 0.002 
553 7 0.0109999 0.0691438 0.02849 0 0 0 -0.0496808 -0.198243 -0.237261 6.07846e-05 -0.000239241 0.000246364 0 1 0 0 0 0 0 0 0 0 0 0 0 0 0 0 39 0.002 
763 3 0.013882 0.071765 0.0294335 0 0 0 -0.0254525 -0.273393 -0.0346838 0 -0.000164368 0 0 0 0 0 0 0 0 0 0 0 0 0 0 0 0 0 51 0.002 
1082 1 0.0180043 0.0722366 0.0287098 0 0 0 0.0413005 -0.260591 -0.00709689 -0.000596014 -0.00310228 0.00568721 0 0 0 1 0 0 0 0 0 0 0 0 0 0 0 0 27 0.002 
1115 2 0.00299563 0.0736071 0.0287967 0 0 0 -0.00240603 -0.0191624 -0.0536114 0.000120547 -0.00035304 -0.00068881 0 1 0 0 0 0 0 1 0 0 0 0 0 0 0 0 18 0.002 
378 2 0.00930184 0.0728 0.0292469 0 0 0 0.00278242 -0.0394474 0.079138 0.00331196 0.00353426 0.0020162 0 1 0 0 0 0 0 0 0 0 0 0 0 0 0 0 41 0.002 
610 7 0.0086558 0.0493329 0.0311759 0 0 0 1.32003 -1.3652 -0.590917 0 -0.000164368 0 0 0 0 0 0 0 0 0 0 0 0 0 0 0 0 0 36 0.002 
799 3 0.0144534 0.0550777 0.031032 0 0 0 -0.521914 -0.936832 -0.384243 0 -0.000164368 0 0 0 0 0 0 0 0 0 0 0 0 0 0 0 0 0 41 0.002 
883 2 0.00345591 0.0562263 0.0310298 0 0 0 0.383925 -0.917605 -0.528114 0 -0.000164368 0 0 0 0 0 0 0 0 0 0 0 0 0 0 0 0 0 24 0.002 
1074 10 0.0065992 0.0611491 0.0311379 0 0 0 -0.15533 -0.408986 -0.00101934 0 -0.000164368 0 0 0 0 0 0 0 0 0 0 0 0 0 0 0 0 0 14 0.002 
326 4 0.00828097 0.0667467 0.0301945 0 0 0 0.0716377 -0.249812 -0.122873 0 -0.000164368 0 0 0 0 0 0 0 0 0 0 0 0 0 0 0 0 0 57 0.002 
958 5 0.0180945 0.0685245 0.030314 0 0 0 -0.116281 -0.233841 -0.0748683 0 -0.000164368 0 0 0 0 0 0 0 0 0 0 0 0 0 0 0 0 0 23 0.002 
1191 3 0.00605765 0.0742699 0.0312688 0 0 0 0.000995294 -0.090542 -0.0419929 0.000444059 -0.00101342 -0.000897119 0 1 1 0 0 0 0 0 0 0 0 0 0 0 0 0 24 0.002 
369 6 0.0150533 0.0507506 0.0327327 0 0 0 -0.135888 -1.09027 0.210807 0 -0.000164368 0 0 0 0 0 0 0 0 0 0 0 0 0 0 0 0 0 40 0.002 
493 5 0.0030265 0.0615633 0.0330031 0 0 0 -0.221759 -0.121909 -0.0610638 -0.00143336 -0.000105768 0.00194924 0 0 0 0 0 0 0 0 0 0 0 0 0 0 0 0 52 0.002 
741 5 0.01052 0.0615641 0.0329518 0 0 0 -0.629765 -0.28748 -0.012283 0 -0.000164368 0 0 0 0 0 0 0 0 0 0 0 0 0 0 0 0 0 31 0.002 
314 6 0.00591294 0.0650822 0.0329643 0 0 0 0.0582596 -0.123209 -0.0266394 0 -0.000164368 0 0 0 0 0 0 0 0 0 0 0 0 0 0 0 0 0 31 0.002 
1104 4 0.00306184 0.0678868 0.032688 0 0 0 0.00150053 -0.170608 -0.102196 0.000891546 -0.00494778 -0.00220578 0 0 0 1 0 0 0 0 0 0 0 0 0 0 0 0 11 0.002 
240 1 0.0116365 0.0662114 0.0329031 0 0 0 -0.21389 -0.164072 0.0176528 0 -0.000164368 0 0 0 0 0 0 0 0 0 0 0 0 0 0 0 0 0 44 0.002 
103 5 0.015663 0.0659519 0.0329804 0 0 0 -0.176389 -0.293655 -0.0162173 0 -0.000164368 0 0 0 0 0 0 0 0 0 0 0 0 0 0 0 0 0 44 0.002 
928 2 0.00661844 0.0698361 0.0329782 0 0 0 -0.0106328 -0.138884 0.000810603 -0.000143134 -0.000144781 1.90353e-05 0 1 0 0 0 0 0 0 0 0 0 0 0 0 0 0 40 0.002 
490 2 0.0142222 0.0696857 0.0329212 0 0 0 -0.0221385 -0.218817 0.0406673 0 -0.000164368 0 0 0 0 0 0 0 0 0 0 0 0 0 0 0 0 0 70 0.002 
1071 3 0.00308816 0.0718763 0.0326898 0 0 0 0.0163303 -0.144221 -0.0996095 -0.000891546 0.00461905 0.00220578 0 0 0 1 0 0 0 0 0 0 0 0 0 0 0 0 15 0.002 
845 3 0.0104148 0.0710845 0.0328667 0 0 0 0.0137002 -0.168797 -0.0256637 0.000143134 -0.000183955 -1.90353e-05 0 1 0 0 0 0 0 0 0 0 0 0 0 0 0 0 31 0.002 
726 1 0.0152371 0.0959096 -0.0310827 0 0 0 2.38039 -0.31523 1.17236 0 -0.000164368 0 0 0 0 0 0 0 0 0 0 0 0 0 0 0 0 0 37 0.002 
937 4 0.0070191 0.104338 -0.031498 0 0 0 -0.79441 1.68326 0.728186 -0.0644722 -0.389231 0.188521 0 0 0 1 0 0 0 0 0 0 0 0 0 0 0 0 21 0.002 
794 6 0.00585331 0.107769 -0.0328039 0 0 0 -0.357455 0.495385 -0.198626 0.0644722 0.388902 -0.188521 0 0 0 1 0 0 0 0 0 0 0 0 0 0 0 0 20 0.002 
336 9 0.0033825 0.0915562 -0.031705 0 0 0 0.334549 1.21321 -3.16167 0 -0.000164368 0 0 0 0 0 0 0 0 0 0 0 0 0 0 0 0 0 45 0.002 
125 10 0.0119626 0.102918 -0.0283326 0 0 0 -1.33069 -3.31924 2.67312 0 -0.000164368 0 0 0 0 0 0 0 0 0 0 0 0 0 0 0 0 0 43 0.002 
300 1 0.00823887 0.107574 -0.0283654 0 0 0 2.50537 2.61853 2.31847 0 -0.000164368 0 0 0 0 0 0 0 0 0 0 0 0 0 0 0 0 0 41 0.002 
896 1 0.00302804 0.10368 -0.0284624 0 0 0 0.202081 -1.16643 0.721437 0 -0.000164368 0 0 0 0 0 0 0 0 0 0 0 0 0 0 0 0 0 38 0.002 
997 6 0.00313124 0.107857 -0.0283875 0 0 0 -0.970328 -0.416168 0.92626 0 -0.000164368 0 0 0 0 0 0 0 0 0 0 0 0 0 0 0 0 0 22 0.002 
1062 4 0.00582835 0.108059 -0.0241776 0 0 0 0.623832 0.022932 0.472012 -0.073291 -0.0216829 -0.101972 0 0 0 1 0 0 0 0 0 0 0 0 0 0 0 0 19 0.002 
607 5 0.00451446 0.0904026 -0.0245322 0 0 0 1.64675 0.500968 -0.451524 0 -0.000164368 0 0 0 0 0 0 0 0 0 0 0 0 0 0 0 0 0 32 0.002 
972 3 0.00816311 0.10112 -0.02088 0 0 0 -1.7952 12.5227 3.46696 0 -0.000164368 0 0 0 0 0 0 0 0 0 0 0 0 0 0 0 0 0 26 0.002 
1293 6 0.0175215 0.0958479 -0.0211598 0 0 0 -0.645793 1.3807 2.32833 0 -0.000164368 0 0 0 0 0 0 0 0 0 0 0 0 0 0 0 0 0 0 0.002 
706 9 0.00459863 0.104336 -0.0237612 0 0 0 0.697657 1.865 -1.32837 0.0105991 -0.208511 0.0888457 0 0 0 1 0 0 0 0 0 0 0 0 0 0 0 0 60 0.002 
1253 2 0.0110987 0.107052 -0.0232559 0 0 0 -0.0499369 1.17124 0.982433 0 -0.000164368 0 0 0 0 0 0 0 0 0 0 0 0 0 0 0 0 0 1 0.002 
783 3 0.00327519 0.097743 -0.0237578 0 0 0 -5.34993 6.24088 -4.49758 0 -0.000164368 0 0 0 0 0 0 0 0 0 0 0 0 0 0 0 0 0 34 0.002 
1008 4 0.0157721 0.107432 -0.0206812 0 0 0 0.910909 0.197441 1.06324 -0.109246 -0.0137573 -0.295448 0 0 0 0 0 0 0 0 0 0 0 0 0 0 0 0 13 0.002 
639 9 0.00951709 0.100857 -0.0160124 0 0 0 0.776602 0.546712 3.92461 0 -0.000164368 0 0 0 0 0 0 0 0 0 0 0 0 0 0 0 0 0 44 0.002 
1202 4 0.0176883 0.101586 -0.0182274 0 0 0 -0.164132 -0.425411 0.568726 -0.155023 -0.229467 0.160699 0 0 0 0 0 0 0 0 0 0 0 0 0 0 0 0 1 0.002 
1287 2 0.00839808 0.104595 -0.0177074 0 0 0 1.39793 -0.270534 1.24405 0 -0.000164368 0 0 0 0 0 0 0 0 0 0 0 0 0 0 0 0 0 1 0.002 
621 4 0.00579126 0.107822 -0.0189754 0 0 0 -0.390349 -0.521149 0.162258 0 -0.000164368 0 0 0 0 0 0 0 0 0 0 0 0 0 0 0 0 0 38 0.002 
1298 1 0.00775358 0.0810188 -0.0221701 0 0 0 2.23124 6.30957 -9.61474 0 -0.000164368 0 0 0 0 0 0 0 0 0 0 0 0 0 0 0 0 0 0 0.002 
261 1 0.00343137 0.100317 -0.0164213 0 0 0 0.571578 -0.797322 0.0138177 0 -0.000164368 0 0 0 0 0 0 0 0 0 0 0 0 0 0 0 0 0 38 0.002 
987 4 0.0171884 0.107399 -0.0171093 0 0 0 0.499961 -0.147518 1.64002 0.109246 0.0134285 0.295448 0 0 0 0 0 0 0 0 0 0 0 0 0 0 0 0 15 0.002 
1000 4 0.0123913 0.10241 -0.0130611 0 0 0 2.00609 2.10815 3.33508 0 -0.000164368 0 0 0 0 0 0 0 0 0 0 0 0 0 0 0 0 0 16 0.002 
1123 3 0.00572496 0.105121 -0.013833 0 0 0 0.846744 0.670197 1.34486 0 -0.000164368 0 0 0 0 0 0 0 0 0 0 0 0 0 0 0 0 0 8 0.002 
14 5 0.00956876 0.0864844 -0.0106869 0 0 0 0.238571 -0.120119 -0.150907 0 -0.000164368 0 0 0 0 0 0 0 0 0 0 0 0 0 0 0 0 0 26 0.002 
192 7 0.0119567 0.106914 -0.00974068 0 0 0 1.44558 -0.985883 0.895586 0 -0.000164368 0 0 0 0 0 0 0 0 0 0 0 0 0 0 0 0 0 49 0.002 
84 8 0.015639 0.0961539 -0.00737313 0 0 0 -1.63211 2.097 -0.084589 0 -0.000164368 0 0 0 0 0 0 0 0 0 0 0 0 0 0 0 0 0 47 0.002 
1026 6 0.0104456 0.105242 -0.0062206 0 0 0 0.313653 -0.279864 -0.122962 0 -0.000164368 0 0 0 0 0 0 0 0 0 0 0 0 0 0 0 0 0 29 0.002 
947 4 0.00560764 0.082594 -0.0050581 0 0 0 -0.528222 -0.832529 -1.12825 0 -0.000164368 0 0 0 0 0 0 0 0 0 0 0 0 0 0 0 0 0 22 0.002 
888 1 0.00490656 0.105786 -0.0026665 0 0 0 0.692205 2.29395 -1.08277 0 -0.000164368 0 0 0 0 0 0 0 0 0 0 0 0 0 0 0 0 0 29 0.002 
305 5 0.0109032 0.0885304 -0.000892811 0 0 0 0.98702 -0.0496736 -1.39811 0 -0.000164368 0 0 0 0 0 0 0 0 0 0 0 0 0 0 0 0 0 42 0.002 
1292 9 0.015649 0.0786957 0.00192199 0 0 0 -2.30538 0.789389 -1.90588 0 -0.000164368 0 0 0 0 0 0 0 0 0 0 0 0 0 0 0 0 0 1 0.002 
573 1 0.0169937 0.0830878 0.00198835 0 0 0 0.333081 2.87785 -1.18052 0 -0.000164368 0 0 0 0 0 0 0 0 0 0 0 0 0 0 0 0 0 46 0.002 
920 3 0.0150255 0.0922034 0.00289151 0 0 0 -0.676152 -1.72549 0.534274 0 -0.000164368 0 0 0 0 0 0 0 0 0 0 0 0 0 0 0 0 0 23 0.002 
107 2 0.0144663 0.102998 0.00314506 0 0 0 -0.30267 -0.894149 0.804668 0 -0.000164368 0 0 0 0 0 0 0 0 0 0 0 0 0 0 0 0 0 29 0.002 
574 5 0.00983435 0.107867 0.00113371 0 0 0 -0.572375 -0.119926 -0.241871 0 -0.000164368 0 0 0 0 0 0 0 0 0 0 0 0 0 0 0 0 0 26 0.002 
907 8 0.0040727 0.107752 0.00524262 0 0 0 -0.0539432 1.63111 2.87099 0 -0.000164368 0 0 0 0 0 0 0 0 0 0 0 0 0 0 0 0 0 29 0.002 
696 4 0.0106441 0.105604 0.00544627 0 0 0 0.473816 0.133999 0.330986 0 -0.000164368 0 0 0 0 0 0 0 0 0 0 0 0 0 0 0 0 0 44 0.002 
636 8 0.0139818 0.077012 0.0067286 0 0 0 0.532768 -0.0993408 -0.745756 0 -0.000164368 0 0 0 0 0 0 0 0 0 0 0 0 0 0 0 0 0 20 0.002 
118 2 0.0147542 0.0839891 0.0061632 0 0 0 -0.936209 -1.02372 -0.299333 0 -0.000164368 0 0 0 0 0 0 0 0 0 0 0 0 0 0 0 0 0 36 0.002 
1092 4 0.00930842 0.100166 0.00632218 0 0 0 1.00094 -0.841674 0.387831 0 -0.000164368 0 0 0 0 0 0 0 0 0 0 0 0 0 0 0 0 0 12 0.002 
395 6 0.00759745 0.0784656 0.00851242 0 0 0 1.55998 1.62841 -1.40812 0 -0.000164368 0 0 0 0 0 0 0 0 0 0 0 0 0 0 0 0 0 52 0.002 
151 8 0.00329275 0.101651 0.00830061 0 0 0 0.0725365 -1.13365 0.47779 0 -0.000164368 0 0 0 0 0 0 0 0 0 0 0 0 0 0 0 0 0 21 0.002 
1273 2 0.0105636 0.103359 0.00886827 0 0 0 0.318368 0.104449 0.286511 0 -0.000164368 0 0 0 0 0 0 0 0 0 0 0 0 0 0 0 0 0 0 0.002 
570 1 0.00470563 0.0875238 0.0113554 0 0 0 0.0711299 -0.0498861 -0.193962 0 -0.000164368 0 0 0 0 0 0 0 0 0 0 0 0 0 0 0 0 0 36 0.002 
926 2 0.0101289 0.0973361 0.0111294 0 0 0 -0.0269504 -0.302448 -0.843606 0 -0.000164368 0 0 0 0 0 0 0 0 0 0 0 0 0 0 0 0 0 23 0.002 
886 5 0.0140864 0.102025 0.0122616 0 0 0 0.258495 -0.000263632 0.102961 0 -0.000164368 0 0 0 0 0 0 0 0 0 0 0 0 0 0 0 0 0 26 0.002 
650 3 0.00416376 0.104275 0.0123138 0 0 0 -0.282432 0.0466141 0.425641 0.000947663 -0.00141573 -0.000405131 0 0 1 0 0 0 0 0 0 0 0 0 0 0 0 0 43 0.002 
406 5 0.0105367 0.0811028 0.0131481 0 0 0 -0.0121359 -0.0266179 -0.338438 0 -0.000164368 0 0 0 0 0 0 0 0 0 0 0 0 0 0 0 0 0 50 0.002 
606 4 0.00329087 0.090979 0.0132933 0 0 0 -0.151908 -0.0860379 0.0825629 0 -0.000164368 0 0 0 0 0 0 0 0 0 0 0 0 0 0 0 0 0 54 0.002 
467 1 0.00765115 0.0901505 0.0124762 0 0 0 0.00649752 0.0835582 -0.123257 0 -0.000164368 0 0 0 0 0 0 0 0 0 0 0 0 0 0 0 0 0 41 0.002 
560 4 0.00960084 0.093632 0.0134542 0 0 0 -0.060363 -0.326172 -0.0566107 0 -0.000164368 0 0 0 0 0 0 0 0 0 0 0 0 0 0 0 0 0 30 0.002 
1302 3 0.0113328 0.104765 0.0132223 0 0 0 -0.0345045 0.102949 -0.052135 0 -0.000164368 0 0 0 0 0 0 0 0 0 0 0 0 0 0 0 0 0 0 0.002 
707 2 0.00826565 0.107773 0.0126786 0 0 0 0.239161 -0.00400459 0.0736061 0 -0.000164368 0 0 0 0 0 0 0 0 0 0 0 0 0 0 0 0 0 51 0.002 
1051 10 0.00352386 0.108013 0.0135722 0 0 0 -0.137326 -0.0272458 0.701297 0.000719575 -0.0138052 0.00527343 0 0 1 0 0 0 0 0 0 1 0 0 0 0 0 0 17 0.002 
941 3 0.00802844 0.0759155 0.0155221 0 0 0 -0.339357 -0.075427 -0.429305 0 -0.000164368 0 0 0 0 0 0 0 0 0 0 0 0 0 0 0 0 0 30 0.002 
446 9 0.00638225 0.0833067 0.0146416 0 0 0 -0.00313995 -0.187039 -0.216635 0 -0.000164368 0 0 0 0 0 0 0 0 0 0 0 0 0 0 0 0 0 54 0.002 
297 3 0.0030571 0.0856994 0.0152787 0 0 0 -0.042657 -0.144821 -0.0544806 0 -0.000164368 0 0 0 0 0 0 0 0 0 0 0 0 0 0 0 0 0 43 0.002 
1185 6 0.0106193 0.084902 0.0156378 0 0 0 0.130458 -0.194124 -0.0881216 0 -0.000164368 0 0 0 0 0 0 0 0 0 0 0 0 0 0 0 0 0 8 0.002 
967 2 0.0132008 0.0880689 0.0156419 0 0 0 0.0359877 -0.124034 -0.181157 0 -0.000164368 0 0 0 0 0 0 0 0 0 0 0 0 0 0 0 0 0 17 0.002 
898 1 0.018009 0.0865409 0.0149968 0 0 0 0.220568 -0.49536 -0.0875409 0 -0.000164368 0 0 0 0 0 0 0 0 0 0 0 0 0 0 0 0 0 19 0.002 
1212 1 0.00614643 0.0912395 0.0163421 0 0 0 -0.0288374 -0.044813 -0.0125023 0 -0.000164368 0 0 0 0 0 0 0 0 0 0 0 0 0 0 0 0 0 10 0.002 
1133 6 0.00738383 0.0959822 0.0161774 0 0 0 -0.00887213 -0.000549692 -0.0386616 0 -0.000164368 0 0 0 0 0 0 0 0 0 0 0 0 0 0 0 0 0 7 0.002 
680 6 0.00389952 0.0997859 0.0150875 0 0 0 0.188301 -0.351927 0.288295 0 -0.000164368 0 0 0 0 0 0 0 0 0 0 0 0 0 0 0 0 0 53 0.002 
1099 2 0.0161851 0.102057 0.0161434 0 0 0 -1.20466 0.81277 0.771862 0 -0.000164368 0 0 0 0 0 0 0 0 0 0 0 0 0 0 0 0 0 14 0.002 
176 2 0.00300806 0.105103 0.0162665 0 0 0 -0.0120568 0.0301549 0.570561 -0.00400928 -0.00597907 -0.00164336 0 0 0 0 0 0 0 0 0 1 0 0 0 0 0 0 40 0.002 
1237 4 0.0074964 0.103104 0.0154951 0 0 0 0.292368 -0.122933 0.271452 0 -0.000164368 0 0 0 0 0 0 0 0 0 0 0 0 0 0 0 0 0 1 0.002 
1290 7 0.00750978 0.107994 0.0166076 0 0 0 0.150669 0.0385267 0.135136 0 -0.000164368 0 0 0 0 0 0 0 0 0 0 0 0 0 0 0 0 0 0 0.002 
1229 6 0.00318478 0.0811773 0.017018 0 0 0 0.0245628 -0.173497 -0.182863 0 -0.000164368 0 0 0 0 0 0 0 0 0 0 0 0 0 0 0 0 0 5 0.002 
626 1 0.0181553 0.079956 0.0187405 0 0 0 0.0153666 -0.406847 0.071201 0 -0.000164368 0 0 0 0 0 0 0 0 0 0 0 0 0 0 0 0 0 34 0.002 
126 2 0.00646746 0.0825503 0.018868 0 0 0 0.0199809 -0.184048 -0.159022 0 -0.000164368 0 0 0 0 0 0 0 0 0 0 0 0 0 0 0 0 0 32 0.002 
1009 1 0.0158662 0.0831017 0.0171884 0 0 0 0.356769 0.0255782 0.220435 0 -0.000164368 0 0 0 0 0 0 0 0 0 0 0 0 0 0 0 0 0 12 0.002 
827 2 0.00598396 0.0868803 0.0177377 0 0 0 -0.0152669 -0.158943 -0.0625804 -0.000870059 0.000203883 -0.000560237 0 1 0 0 0 0 0 0 0 0 0 0 0 0 0 0 25 0.002 
674 10 0.00301079 0.0894938 0.0183746 0 0 0 0.00689814 -0.120696 -0.00594984 0 -0.000164368 0 0 0 0 0 0 0 0 0 0 0 0 0 0 0 0 0 31 0.002 
179 1 0.00935991 0.0894822 0.017973 0 0 0 -0.0866651 -0.145516 -0.0328621 0 -0.000164368 0 0 0 0 0 0 0 0 0 0 0 0 0 0 0 0 0 37 0.002 
1136 1 0.0108721 0.0931708 0.0174775 0 0 0 0.0281582 -0.111056 -0.0900378 0 -0.000164368 0 0 0 0 0 0 0 0 0 0 0 0 0 0 0 0 0 18 0.002 
481 2 0.00300135 0.0945817 0.0173621 0 0 0 0.004229 -0.0916722 0.0095287 0 -0.000164368 0 0 0 0 0 0 0 0 0 0 0 0 0 0 0 0 0 23 0.002 
1250 6 0.0142607 0.0953238 0.0178535 0 0 0 0.122051 -0.327433 -0.354351 -0.00184655 0.00209771 -0.00172887 0 0 0 0 0 1 0 0 0 0 0 0 0 0 0 0 3 0.002 
1001 4 0.00499192 0.0982954 0.0186833 0 0 0 -0.000897095 -0.224178 0.213839 0 -0.000164368 0 0 0 0 0 0 0 0 0 0 0 0 0 0 0 0 0 28 0.002 
70 6 0.0179759 0.0970374 0.0182489 0 0 0 -0.0800392 -0.139498 -0.05314 0 -0.000164368 0 0 0 0 0 0 0 0 0 0 0 0 0 0 0 0 0 41 0.002 
721 5 0.0127664 0.0993852 0.018424 0 0 0 -0.199697 -0.287569 0.62943 -0.0131522 0.0343148 -0.0198145 0 0 0 0 1 0 0 0 0 0 0 0 0 0 0 0 37 0.002 
253 2 0.00300503 0.101769 0.0185175 0 0 0 -0.0197746 -0.295034 0.196811 0 -0.000164368 0 0 0 0 0 0 0 0 0 0 0 0 0 0 0 0 0 38 0.002 
321 7 0.00569773 0.0785703 0.0189196 0 0 0 0.014414 -0.152642 -0.210604 0.000959055 0.000871546 -0.00247066 0 0 0 0 0 0 1 0 0 0 0 0 0 0 0 0 37 0.002 
1196 5 0.00920671 0.0773409 0.0204712 0 0 0 -0.0811438 -0.319175 -0.109535 0 -0.000164368 0 0 0 0 0 0 0 0 0 0 0 0 0 0 0 0 0 9 0.002 
959 6 0.0111171 0.0807138 0.0193694 0 0 0 -0.064642 -0.276839 -0.02565 0 -0.000164368 0 0 0 0 0 0 0 0 0 0 0 0 0 0 0 0 0 36 0.002 
1223 2 0.00300103 0.0847029 0.0192702 0 0 0 -0.0088291 -0.188396 -0.0706129 -0.000105195 -0.000183195 7.99476e-05 0 0 0 0 0 0 0 0 0 0 0 0 0 0 0 0 4 0.002 
245 1 0.00894128 0.0855726 0.0200846 0 0 0 -0.00102351 -0.14263 -0.043089 -0.000355528 -0.000157861 -0.00141813 1 1 0 0 0 0 0 0 0 0 0 0 0 0 0 0 34 0.002 
319 4 0.0127391 0.0846311 0.0192586 0 0 0 -0.0188994 -0.202279 -0.0259381 0.000293783 -0.000350455 4.46272e-05 1 0 0 0 0 0 0 0 0 0 0 0 0 0 0 0 9 0.002 
902 3 0.0163013 0.0865187 0.0193476 0 0 0 0.00985725 -0.26931 -0.0752119 -1.73346e-05 -0.000122054 -0.000120338 0 0 0 0 0 0 0 0 0 0 0 0 0 0 0 0 22 0.002 
128 4 0.0126847 0.0899683 0.02026 0 0 0 0.1118 -0.13049 -0.145274 0 -0.000164368 0 0 0 0 0 0 0 0 0 0 0 0 0 0 0 0 0 46 0.002 
20 3 0.0166748 0.0927479 0.0197066 0 0 0 -0.0489462 -0.408945 -0.0230494 0.000947642 -0.000588225 -0.0053176 0 0 1 0 0 1 0 0 0 0 0 0 0 0 0 0 42 0.002 
1215 2 0.00634755 0.0939474 0.0194696 0 0 0 0.0548293 -0.0297318 -0.0300509 0 -0.000164368 0 0 0 0 0 0 0 0 0 0 0 0 0 0 0 0 0 1 0.002 
287 6 0.0121323 0.0941081 0.0212215 0 0 0 0.0741858 -0.200588 -0.0506315 0 -0.000164368 0 0 0 0 0 0 0 0 0 0 0 0 0 0 0 0 0 35 0.002 
224 5 0.00933739 0.0973691 0.0195333 0 0 0 0.197068 -0.184904 0.017558 0 -0.000164368 0 0 0 0 0 0 0 0 0 0 0 0 0 0 0 0 0 51 0.002 
1204 4 0.009048 0.103214 0.0192884 0 0 0 0.318454 -0.139823 0.103241 0.000283178 0.0012632 0.000663679 0 0 0 1 0 0 0 0 0 0 0 0 0 0 0 0 7 0.002 
373 7 0.0146894 0.105043 0.0195518 0 0 0 0.166878 -0.122902 0.0974704 0 -0.000164368 0 0 0 0 0 0 0 0 0 0 0 0 0 0 0 0 0 43 0.002 
308 1 0.00980844 0.107087 0.019915 0 0 0 0.167736 -0.0224014 0.0857235 -0.000283178 -0.00159193 -0.000663679 0 0 0 1 0 0 0 0 0 0 0 0 0 0 0 0 56 0.002 
1203 5 0.00592247 0.10782 0.0206592 0 0 0 0.152408 -0.0698944 0.244349 0 -0.000164368 0 0 0 0 0 0 0 0 0 0 0 0 0 0 0 0 0 7 0.002 
338 6 0.00329633 0.076484 0.0213319 0 0 0 0.011094 -0.143229 -0.159913 -0.00387807 -0.00060115 0.00153649 0 0 0 0 0 1 1 0 0 0 0 0 0 0 0 0 47 0.002 
703 3 0.0153405 0.0761246 0.0226303 0 0 0 -0.0810969 -0.233798 0.081864 8.79298e-06 -0.000947197 0.00146917 0 0 2 0 0 0 0 0 0 0 0 0 0 0 0 0 40 0.002 
1064 5 0.0119784 0.0781707 0.023324 0 0 0 -0.178049 -0.323008 0.0210678 -0.00025089 0.00014011 -5.87099e-05 0 0 1 0 0 0 0 0 0 0 0 0 0 0 0 0 23 0.002 
550 10 0.0183509 0.0788204 0.0231315 0 0 0 -0.0426447 -0.361598 0.0493393 0.00327027 -0.00407265 0.00431396 0 0 0 0 0 0 0 0 0 1 0 0 0 0 0 0 42 0.002 
278 11 0.00306169 0.0818017 0.0221262 0 0 0 0.00360987 -0.122552 -0.0502941 0 -0.000164368 0 0 0 0 0 0 0 0 0 0 0 0 0 0 0 0 0 49 0.002 
1193 8 0.00804324 0.0811411 0.0228527 0 0 0 -0.0484024 -0.258577 -0.0986198 0 -0.000164368 0 0 0 0 0 0 0 0 0 0 0 0 0 0 0 0 0 24 0.002 
753 6 0.015072 0.0805697 0.0216776 0 0 0 -0.0209239 -0.312649 0.116783 -0.00327027 0.00374391 -0.00431396 0 0 0 0 0 0 0 0 0 1 0 0 0 0 0 0 64 0.002 
601 8 0.0116691 0.082934 0.0227826 0 0 0 -0.0688724 -0.175712 -0.0708075 0 -0.000164368 0 0 0 0 0 0 0 0 0 0 0 0 0 0 0 0 0 35 0.002 
583 1 0.0185371 0.0827785 0.0220526 0 0 0 0.0147547 -0.288755 0.0802007 3.62869e-05 -1.32712e-05 -0.000673115 2 0 0 0 0 0 0 0 0 0 0 0 0 0 0 0 51 0.002 
661 2 0.00582316 0.0853954 0.0225926 0 0 0 -0.0464479 -0.221248 -0.0836023 -0.000136017 -0.000206966 -0.000150644 0 2 0 0 0 0 0 0 0 0 0 0 0 0 0 0 24 0.002 
262 3 0.0150111 0.0852498 0.0229128 0 0 0 -0.0540743 -0.202665 -0.0617975 -0.000127571 -0.000296629 0.000224485 0 0 1 0 0 0 0 0 0 0 0 0 0 0 0 0 40 0.002 
582 7 0.0030002 0.0881927 0.0221579 0 0 0 -0.02897 -0.180729 -0.047897 -2.24071e-06 6.49863e-05 -0.000217793 0 1 0 0 0 0 0 0 0 0 0 0 0 0 0 0 32 0.002 
1077 1 0.0113424 0.0869338 0.0229755 0 0 0 0.00878865 -0.137837 -0.0950502 0.000982477 -0.000443829 0.00190158 1 0 0 0 0 0 0 0 0 0 0 0 0 0 0 0 13 0.002 
934 1 0.0186226 0.0869231 0.0233314 0 0 0 -0.046806 -0.165214 -0.0857191 0 -0.000164368 0 0 0 0 0 0 0 0 0 0 0 0 0 0 0 0 0 32 0.002 
58 1 0.00749357 0.0892089 0.0217225 0 0 0 0.112939 -0.0797103 0.0129154 0.000592612 0.00355681 -0.00934733 1 0 0 0 0 0 0 0 0 0 0 0 0 0 0 0 48 0.002 
963 3 0.0180489 0.0908652 0.0229379 0 0 0 0.145548 -0.260387 0.0771029 0.000877351 -0.00394962 0.000934564 0 0 1 0 0 0 0 0 0 0 0 0 0 0 0 0 22 0.002 
1188 4 0.00308773 0.0921659 0.0216719 0 0 0 -0.00752373 -0.16543 0.0974241 0 -0.000164368 0 0 0 0 0 0 0 0 0 0 0 0 0 0 0 0 0 7 0.002 
296 2 0.00782397 0.0938146 0.0231951 0 0 0 0.0671287 -0.0546385 -0.0601426 -0.000335176 0.000153313 -0.00180702 0 1 0 0 0 0 0 0 0 0 0 0 0 0 0 0 27 0.002 
887 1 0.00315781 0.0961786 0.0216087 0 0 0 0.079813 -0.151666 0.140622 0 -0.000164368 0 0 0 0 0 0 0 0 0 0 0 0 0 0 0 0 0 24 0.002 
658 8 0.0139347 0.0979841 0.0219694 0 0 0 -0.194877 -0.602788 -0.129289 0.0131522 -0.0346435 0.0198145 0 0 0 0 1 0 0 0 0 0 0 0 0 0 0 0 32 0.002 
576 2 0.017377 0.0959454 0.0220721 0 0 0 -0.0872994 -0.337011 -0.0582602 -0.0093976 -0.00210939 0.0057778 0 1 0 0 0 0 0 0 0 0 0 0 0 0 0 0 25 0.002 
400 7 0.0178081 0.100102 0.0224594 0 0 0 -0.264166 -0.224264 0.408347 0 -0.000164368 0 0 0 0 0 0 0 0 0 0 0 0 0 0 0 0 0 51 0.002 
364 3 0.00598327 0.101595 0.0213932 0 0 0 -0.0288924 -0.061194 -0.12965 0 -0.000164368 0 0 0 0 0 0 0 0 0 0 0 0 0 0 0 0 0 37 0.002 
2 6 0.0105172 0.100961 0.0222544 0 0 0 -0.155544 -0.382657 0.249267 0 -0.000164368 0 0 0 0 0 0 0 0 0 0 0 0 0 0 0 0 0 41 0.002 
507 6 0.00310591 0.104477 0.0215158 0 0 0 -0.119966 -0.0571937 0.0779578 0 -0.000164368 0 0 0 0 0 0 0 0 0 0 0 0 0 0 0 0 0 41 0.002 
1232 7 0.0161115 0.106534 0.0230867 0 0 0 0.329603 0.431141 0.00103294 0 -0.000164368 0 0 0 0 0 0 0 0 0 0 0 0 0 0 0 0 0 5 0.002 
1101 3 0.00302479 0.107987 0.0234889 0 0 0 -0.00458921 -0.0245898 0.116221 0 -0.000164368 0 0 0 0 0 0 0 0 0 0 0 0 0 0 0 0 0 8 0.002 
1228 8 0.0123589 0.108003 0.0230051 0 0 0 0.130697 -0.0219758 0.111851 -0.000141904 -0.000654666 -0.000199903 0 0 0 0 0 0 0 0 0 0 0 0 0 0 0 0 3 0.002 
892 5 0.00300242 0.0756538 0.0253424 0 0 0 -0.0153923 -0.188933 -0.13014 -0.00331895 -0.00255332 0.00146412 0 0 0 0 1 0 0 0 0 0 0 0 0 0 0 0 27 0.002 
1078 1 0.0130043 0.0750233 0.0256794 0 0 0 -0.0913864 -0.25882 0.170949 0.000242097 0.000313983 -0.00141046 0 0 1 0 0 0 0 0 0 0 0 0 0 0 0 0 18 0.002 
503 7 0.00617028 0.0777224 0.0240684 0 0 0 -0.0300859 -0.190483 -0.129806 0.00331895 0.00222459 -0.00146412 0 0 0 0 1 0 0 0 0 0 0 0 0 0 0 0 43 0.002 
988 10 0.0030031 0.0796711 0.0255483 0 0 0 0.0140658 -0.146117 -0.0283263 0 -0.000164368 0 0 0 0 0 0 0 0 0 0 0 0 0 0 0 0 0 19 0.002 
719 3 0.00556015 0.082748 0.0255775 0 0 0 0.0333087 -0.175372 -0.037875 -0.00190053 -0.00175019 -0.000873422 0 1 1 0 0 0 0 0 0 0 0 0 0 0 0 0 29 0.002 
836 4 0.0162673 0.0819883 0.0252465 0 0 0 -0.0775392 -0.266174 0.0263641 -0.000268967 -0.000491559 0.000381765 1 0 0 1 0 0 0 0 0 0 0 0 0 0 0 0 39 0.002 
1116 4 0.00300131 0.0858291 0.0254011 0 0 0 0.00322298 -0.196746 -0.035547 0 -0.000164368 0 0 0 0 0 0 0 0 0 0 0 0 0 0 0 0 0 23 0.002 
930 3 0.00895779 0.0848474 0.0254611 0 0 0 0.00211064 -0.173781 -0.0610425 0.00247695 -0.000882929 0.00242548 0 0 2 0 0 0 0 0 0 0 0 0 0 0 0 0 53 0.002 
957 4 0.00677898 0.0881958 0.0255097 0 0 0 0.068443 -0.150289 -0.00683361 -0.00173695 -0.00198052 0.00817907 1 0 1 1 0 0 0 0 0 0 0 0 0 0 0 0 29 0.002 
584 8 0.010464 0.090876 0.0241986 0 0 0 0.0370456 -0.104205 -0.0714725 0 -0.000164368 0 0 0 0 0 0 0 0 0 0 0 0 0 0 0 0 0 53 0.002 
1025 4 0.0144425 0.0892834 0.0239039 0 0 0 0.0356371 -0.183286 -0.0635921 5.45218e-05 -5.47507e-05 -4.77809e-05 1 0 0 0 0 0 0 0 0 0 0 0 0 0 0 0 27 0.002 
1214 5 0.0148477 0.0932749 0.0240521 0 0 0 0.0404373 -0.226485 -0.012913 -0.00200002 -0.00511108 -0.000676712 0 0 0 0 0 0 0 0 0 0 0 0 0 0 0 0 3 0.002 
419 10 0.00299325 0.0938203 0.0254341 0 0 0 -0.0281686 -0.109123 -0.0402409 0.011551 0.00200445 0.00260745 0 0 0 0 0 0 0 0 0 1 0 0 0 0 0 0 59 0.002 
698 6 0.0184621 0.0941077 0.0255701 0 0 0 0.0450101 -0.156073 0.0276881 0 -0.000164368 0 0 0 0 0 0 0 0 0 0 0 0 0 0 0 0 0 37 0.002 
108 2 0.00639808 0.0979408 0.0237723 0 0 0 0.0881755 -0.301058 0.0301906 -0.00384216 -0.00111871 -0.00160746 0 0 0 0 0 0 0 0 0 0 0 0 0 0 0 0 53 0.002 