ITEM: TIMESTEP
9900000
ITEM: NUMBER OF ATOMS
1213
ITEM: BOX BOUNDS ff ff ff
-0.01 0.45
-0.15 0.15
-0.08 0.1
ITEM: ATOMS id type x y z ix iy iz vx vy vz fx fy fz c_cc_1 c_cc_2 c_cc_3 c_cc_4 c_cc_5 c_cc_6 c_cc_7 c_cc_8 c_cc_9 c_cc_10 c_cc_11 c_cc_12 c_cc_13 c_cc_14 c_cc_15 c_cc_16 f_fppacc radius 
1235 5 0.00629342 0.0134068 -0.0555276 0 0 0 1.47245 -2.88718 1.02464 0 -0.000164368 0 0 0 0 0 0 0 0 0 0 0 0 0 0 0 0 0 0 0.002 
245 1 0.00376961 0.0254871 -0.0373849 0 0 0 0.322098 -3.66368 -20.256 0 -0.000164368 0 0 0 0 0 0 0 0 0 0 0 0 0 0 0 0 0 28 0.002 
41 1 0.015124 0.0528566 -0.0355 0 0 0 1.37828e-307 -8.12383e-20 1.12852e-12 -1.48168e-307 -1.35525e-20 0 0 0 0 0 0 0 0 0 0 0 0 0 0 0 0 0 2 0.002 
698 6 0.0108166 0.0709718 -0.0294335 0 0 0 0.085202 -1.31367 0.578489 0 -0.000164368 0 0 0 0 0 0 0 0 0 0 0 0 0 0 0 0 0 30 0.002 
1230 3 0.0103576 0.0607271 -0.0262978 0 0 0 1.14069 -1.55621 1.08686 0 -0.000164368 0 0 0 0 0 0 0 0 0 0 0 0 0 0 0 0 0 0 0.002 
868 5 0.0107305 0.0625535 -0.0216314 0 0 0 1.50003 -0.622701 -1.67646 0 -0.000164368 0 0 0 0 0 0 0 0 0 0 0 0 0 0 0 0 0 23 0.002 
179 1 0.00658172 0.0397743 -0.0142984 0 0 0 0.347296 -1.14328 -0.187606 0 -0.000164368 0 0 0 0 0 0 0 0 0 0 0 0 0 0 0 0 0 35 0.002 
1067 10 0.0179067 0.0510414 -0.00852515 0 0 0 0.747242 -0.767992 -1.1723 0 -0.000164368 0 0 0 0 0 0 0 0 0 0 0 0 0 0 0 0 0 7 0.002 
927 3 0.0114777 0.0700104 -0.0230639 0 0 0 3.6984 12.2654 -32.9459 0 -0.000164368 0 0 0 0 0 0 0 0 0 0 0 0 0 0 0 0 0 13 0.002 
368 5 0.00504774 0.0551235 -0.00722573 0 0 0 2.53813 1.59662 -12.6293 0 -0.000164368 0 0 0 0 0 0 0 0 0 0 0 0 0 0 0 0 0 38 0.002 
755 2 0.0100568 0.0413367 0.00446989 0 0 0 0.772645 -6.2081 -1.07983 0 -0.000164368 0 0 0 0 0 0 0 0 0 0 0 0 0 0 0 0 0 11 0.002 
404 6 0.0101065 0.0744437 0.00227185 0 0 0 6.62865 19.8718 -15.0201 -0.0871908 -0.136143 -0.0279968 0 0 0 0 0 1 0 0 0 0 0 0 0 0 0 0 26 0.002 
186 11 0.00696187 0.0725588 0.00193944 0 0 0 -4.69392 20.7307 -37.8047 0.0871908 0.135815 0.0279968 0 0 0 0 0 1 0 0 0 0 0 0 0 0 0 0 40 0.002 
952 3 0.0106706 0.0568446 0.0217415 0 0 0 6.75298 25.5393 -31.2573 0 -0.000164368 0 0 0 0 0 0 0 0 0 0 0 0 0 0 0 0 0 8 0.002 
1113 4 0.0184708 0.073549 0.0158555 0 0 0 0.131264 -0.339107 -0.396785 0 -0.000164368 0 0 0 0 0 0 0 0 0 0 0 0 0 0 0 0 0 23 0.002 
165 4 0.0059947 0.0747169 0.0160816 0 0 0 -2.44226 7.81054 -1.80911 0 -0.000164368 0 0 0 0 0 0 0 0 0 0 0 0 0 0 0 0 0 32 0.002 
523 2 0.00962101 0.0646321 0.0118225 0 0 0 -22.9064 29.9737 -37.3021 0 -0.000164368 0 0 0 0 0 0 0 0 0 0 0 0 0 0 0 0 0 50 0.002 
471 5 0.0146703 0.0701403 0.0205367 0 0 0 0.306995 -0.114867 -0.313076 0 -0.000164368 0 0 0 0 0 0 0 0 0 0 0 0 0 0 0 0 0 41 0.002 
463 9 0.010483 0.0709931 0.0203001 0 0 0 0.262233 0.0750336 -0.380921 0 -0.000164368 0 0 0 0 0 0 0 0 0 0 0 0 0 0 0 0 0 38 0.002 
1098 3 0.00670841 0.0723588 0.0222058 0 0 0 -0.119402 -0.129797 -0.0890025 -0.000218047 -0.00029259 0.00023653 0 0 1 0 0 0 0 0 0 0 0 0 0 0 0 0 14 0.002 
624 7 0.0119123 0.0743825 0.0223876 0 0 0 -0.00976406 0.427485 -0.270458 0 -0.000164368 0 0 0 0 0 0 0 0 0 0 0 0 0 0 0 0 0 33 0.002 
773 5 0.00332898 0.0579881 0.0243705 0 0 0 0.0157318 -0.26379 -0.287479 0 -0.000164368 0 0 0 0 0 0 0 0 0 0 0 0 0 0 0 0 0 18 0.002 
895 10 0.0157556 0.0648775 0.0256832 0 0 0 3.90763 4.27104 -0.00932721 0 -0.000164368 0 0 0 0 0 0 0 0 0 0 0 0 0 0 0 0 0 40 0.002 
707 2 0.0179373 0.0681675 0.0245376 0 0 0 -0.0232771 1.91663 -0.0878509 0 -0.000164368 0 0 0 0 0 0 0 0 0 0 0 0 0 0 0 0 0 51 0.002 
830 7 0.00480248 0.0703804 0.025112 0 0 0 -0.0875476 -0.219825 -0.100474 0.000218047 -3.61459e-05 -0.00023653 0 0 1 0 0 0 0 0 0 0 0 0 0 0 0 0 37 0.002 
130 1 0.0152986 0.0715714 0.0247153 0 0 0 -0.580103 -0.0759859 -0.489056 0 -0.000164368 0 0 0 0 0 0 0 0 0 0 0 0 0 0 0 0 0 35 0.002 
206 6 0.00941629 0.0740884 0.0255742 0 0 0 -0.0654951 -0.368337 -0.255423 0 -0.000164368 0 0 0 0 0 0 0 0 0 0 0 0 0 0 0 0 0 45 0.002 
671 3 0.00324825 0.067888 0.0279014 0 0 0 -0.0469242 -0.290263 -0.105463 0 -0.000164368 0 0 0 0 0 0 0 0 0 0 0 0 0 0 0 0 0 47 0.002 
331 7 0.0106018 0.0702185 0.0265839 0 0 0 0.11266 -0.212651 -0.297193 0 -0.000164368 0 0 0 0 0 0 0 0 0 0 0 0 0 0 0 0 0 47 0.002 
183 9 0.0036119 0.0744276 0.0276225 0 0 0 -0.0560653 -0.264192 0.0570974 0 -0.000164368 0 0 0 0 0 0 0 0 0 0 0 0 0 0 0 0 0 37 0.002 
849 4 0.015964 0.0603687 0.0294199 0 0 0 -0.592063 1.00766 -0.578753 0 -0.000164368 0 0 0 0 0 0 0 0 0 0 0 0 0 0 0 0 0 23 0.002 
150 7 0.0164062 0.0676959 0.0285976 0 0 0 0.296454 -0.00235788 0.134473 0.00182492 -0.00159775 -0.00179863 0 0 0 0 0 0 1 0 0 0 0 0 0 0 0 0 32 0.002 
1036 6 0.00303896 0.0713625 0.0301395 0 0 0 0.0456317 -0.262426 0.0126122 0 -0.000164368 0 0 0 0 0 0 0 0 0 0 0 0 0 0 0 0 0 30 0.002 
909 2 0.00713142 0.0716021 0.0289613 0 0 0 -0.0338695 -0.454763 -0.0603481 0 -0.000164368 0 0 0 0 0 0 0 0 0 0 0 0 0 0 0 0 0 37 0.002 
501 2 0.0136544 0.0704641 0.0294249 0 0 0 -0.189649 -0.315478 -0.0994653 -0.00182492 0.00126902 0.00179863 0 0 0 0 0 0 1 0 0 0 0 0 0 0 0 0 28 0.002 
508 9 0.0109751 0.0746609 0.0295009 0 0 0 -0.480777 0.608424 0.037531 0 -0.000164368 0 0 0 0 0 0 0 0 0 0 0 0 0 0 0 0 0 39 0.002 
712 2 0.0157935 0.0739707 0.0291186 0 0 0 -0.3855 -0.174145 -0.113946 0 -0.000164368 0 0 0 0 0 0 0 0 0 0 0 0 0 0 0 0 0 34 0.002 
625 3 0.00345441 0.0580639 0.0323396 0 0 0 0.01786 -0.534458 -0.0260949 0 -0.000164368 0 0 0 0 0 0 0 0 0 0 0 0 0 0 0 0 0 21 0.002 
1046 3 0.0120234 0.0643795 0.030455 0 0 0 -0.420621 0.163576 -0.402129 0 -0.000164368 0 0 0 0 0 0 0 0 0 0 0 0 0 0 0 0 0 10 0.002 
268 5 0.0131837 0.0677869 0.0323812 0 0 0 0.292378 -0.109632 0.0734255 0 -0.000164368 0 0 0 0 0 0 0 0 0 0 0 0 0 0 0 0 0 51 0.002 
104 1 0.0181187 0.0666243 0.0323131 0 0 0 0.178891 -0.219825 0.333379 0 -0.000164368 0 0 0 0 0 0 0 0 0 0 0 0 0 0 0 0 0 23 0.002 
1021 3 0.00867381 0.0564132 0.0329396 0 0 0 0.0944542 -0.432328 -0.00811082 0 -0.000164368 0 0 0 0 0 0 0 0 0 0 0 0 0 0 0 0 0 14 0.002 
577 2 0.0138924 0.0616981 0.0329971 0 0 0 -1.0869 -0.0745828 -0.155526 0 -0.000164368 0 0 0 0 0 0 0 0 0 0 0 0 0 0 0 0 0 24 0.002 
903 8 0.00316072 0.0660519 0.0328008 0 0 0 0.000123623 -0.403472 -0.0273536 0 -0.000164368 0 0 0 0 0 0 0 0 0 0 0 0 0 0 0 0 0 47 0.002 
934 1 0.00816926 0.0664137 0.032766 0 0 0 0.0204301 -0.368072 -0.0258389 0 -0.000164368 0 0 0 0 0 0 0 0 0 0 0 0 0 0 0 0 0 31 0.002 
29 5 0.00596442 0.0709442 0.0328638 0 0 0 -0.0919935 -0.334372 -0.0251483 0 -0.000164368 0 0 0 0 0 0 0 0 0 0 0 0 0 0 0 0 0 53 0.002 
352 4 0.0121923 0.0719094 0.0329398 0 0 0 -0.218859 -0.0697193 -0.121217 0 -0.000164368 0 0 0 0 0 0 0 0 0 0 0 0 0 0 0 0 0 35 0.002 
359 3 0.0165923 0.0703599 0.0329298 0 0 0 0.052996 -0.106031 -0.0102543 0 -0.000164368 0 0 0 0 0 0 0 0 0 0 0 0 0 0 0 0 0 38 0.002 
953 3 0.0030491 0.0742548 0.032996 0 0 0 0.0182673 -0.220654 -0.0176752 0 -0.000164368 0 0 0 0 0 0 0 0 0 0 0 0 0 0 0 0 0 14 0.002 
775 2 0.0182473 0.0741807 0.0329268 0 0 0 -0.0603897 -0.124508 0.0584431 2.20038e-05 -2.63114e-05 -9.24522e-05 0 1 0 0 0 0 0 0 0 0 0 0 0 0 0 0 29 0.002 
1181 6 0.016775 0.0485409 0.0319478 0 0 0 10.5662 24.7786 -30.2437 0 -0.000164368 0 0 0 0 0 0 0 0 0 0 0 0 0 0 0 0 0 0 0.002 
797 6 0.00400396 0.0759175 -0.0322426 0 0 0 -0.84985 -2.7687 3.28337 0 -0.000164368 0 0 0 0 0 0 0 0 0 0 0 0 0 0 0 0 0 30 0.002 
756 2 0.00850571 0.0803097 -0.0330711 0 0 0 0.76268 -2.25599 0.695708 0.0318847 0.038245 0.181118 0 0 0 0 0 0 0 0 0 0 0 0 0 0 0 0 32 0.002 
745 7 0.0109394 0.0839461 -0.0317148 0 0 0 1.25043 -0.54696 -0.052059 0 -0.000164368 0 0 0 0 0 0 0 0 0 0 0 0 0 0 0 0 0 23 0.002 
562 3 0.00518013 0.0863744 -0.0313456 0 0 0 0.545796 1.40523 1.44517 0 -0.000164368 0 0 0 0 0 0 0 0 0 0 0 0 0 0 0 0 0 23 0.002 
619 6 0.00348817 0.0903393 -0.0318854 0 0 0 0.100534 -0.397289 0.182263 0 -0.000164368 0 0 0 0 0 0 0 0 0 0 0 0 0 0 0 0 0 27 0.002 
836 4 0.00296518 0.0943612 -0.032622 0 0 0 -0.167765 -0.505972 -0.492024 0.12474 0.0133333 -0.0182484 0 0 0 0 0 0 0 0 0 0 0 0 0 0 0 0 28 0.002 
1154 12 0.00663823 0.0984052 -0.0325459 0 0 0 2.84066 1.33839 1.08275 0.0262656 -0.0378866 -0.00198836 0 0 0 0 0 0 0 0 0 0 0 1 0 0 0 0 3 0.002 
584 8 0.00636533 0.102495 -0.0330535 0 0 0 -0.00512993 2.71156 0.23563 -0.034989 -0.00901172 0.0232496 0 0 0 0 0 0 0 4 0 0 0 0 0 0 0 0 46 0.002 
891 2 0.0029165 0.104105 -0.0323879 0 0 0 0.363072 1.98622 -0.934982 -0.0724912 -0.275571 0.000789611 0 3 0 0 0 0 0 1 0 0 0 0 0 0 0 0 16 0.002 
453 3 0.0125085 0.105893 -0.0325462 0 0 0 2.75418 2.20127 0.267587 -0.214237 -0.3139 -0.159454 0 0 2 0 0 0 0 0 0 0 0 0 0 0 0 0 23 0.002 
814 13 0.00892002 0.108011 -0.0328924 0 0 0 0.922048 1.85702 0.367339 -0.160459 -0.159054 0.108477 0 0 0 0 0 0 0 0 0 0 0 0 1 0 0 0 36 0.002 
645 2 0.0175201 0.105441 -0.0330063 0 0 0 0.861497 -0.139384 -0.0663864 -0.00460707 0.00491683 0.0137177 0 0 0 0 0 0 0 0 0 0 0 0 0 0 0 0 31 0.002 
598 1 0.00299531 0.107929 -0.0329556 0 0 0 -0.109775 0.729505 -0.457552 -0.000766207 0.332999 -0.113707 1 1 0 0 0 0 0 0 0 0 0 0 0 0 0 0 34 0.002 
377 4 0.00645006 0.0930674 -0.029666 0 0 0 0.364421 -0.490759 -0.039593 0 -0.000164368 0 0 0 0 0 0 0 0 0 0 0 0 0 0 0 0 0 47 0.002 
370 4 0.0033933 0.100394 -0.031511 0 0 0 1.70741 1.27641 -0.460844 -0.0908133 -0.210501 0.160501 0 1 0 0 0 0 0 1 0 0 0 1 0 0 0 0 41 0.002 
1237 4 0.00641622 0.0966674 -0.0267401 0 0 0 -0.86623 -1.74996 8.41325 0 -0.000164368 0 0 0 0 0 0 0 0 0 0 0 0 0 0 0 0 0 0 0.002 
507 6 0.0100711 0.102791 -0.0323325 0 0 0 -0.0641525 2.77858 3.47969 0.548477 -0.102364 -0.0978845 0 0 1 0 0 0 0 1 0 0 0 0 0 0 0 0 35 0.002 
1064 5 0.0177963 0.101811 -0.0305736 0 0 0 1.16039 2.36308 0.852537 -0.0909186 -0.448346 -0.156955 0 0 0 0 1 0 0 0 0 0 0 0 0 0 0 0 18 0.002 
293 1 0.00625346 0.105806 -0.0310123 0 0 0 0.488008 2.20704 1.1045 -0.100888 -0.00689925 -0.0306209 1 1 0 0 0 0 0 1 0 0 0 0 1 0 0 0 39 0.002 
121 2 0.0152673 0.107824 -0.0306268 0 0 0 1.45107 0.689544 0.457406 0.174067 0.275049 0.155582 0 0 1 0 0 0 0 0 0 0 0 0 0 0 0 0 44 0.002 
658 8 0.00951647 0.0771702 -0.0305061 0 0 0 4.92768 1.71752 -4.77352 0 -0.000164368 0 0 0 0 0 0 0 0 0 0 0 0 0 0 0 0 0 30 0.002 
1062 4 0.00307124 0.102973 -0.0285308 0 0 0 1.16874 2.48942 0.0962237 0.00539705 -0.0245277 -0.0104317 0 0 0 0 0 0 0 0 0 0 0 0 0 0 0 0 14 0.002 
472 3 0.0066424 0.102065 -0.0254911 0 0 0 1.71458 0.585111 3.58036 0.405269 -0.579611 -0.157935 0 0 1 0 0 0 0 0 0 0 0 0 0 0 0 0 35 0.002 
1147 9 0.0181332 0.105246 -0.0289697 0 0 0 1.70008 2.62226 0.181968 0.0909186 0.448018 0.156955 0 0 0 0 1 0 0 0 0 0 0 0 0 0 0 0 6 0.002 
960 3 0.0032951 0.107534 -0.0290523 0 0 0 -0.720701 -0.505279 -0.799852 -0.0364479 0.131679 0.151194 2 0 1 0 0 0 0 0 0 0 0 0 0 0 0 0 15 0.002 
1229 6 0.00521958 0.0839709 -0.0250463 0 0 0 0.175842 -0.615428 0.15823 0 -0.000164368 0 0 0 0 0 0 0 0 0 0 0 0 0 0 0 0 0 0 0.002 
430 4 0.0173414 0.0954702 -0.0257157 0 0 0 0.167526 -0.770635 0.384036 0 -0.000164368 0 0 0 0 0 0 0 0 0 0 0 0 0 0 0 0 0 39 0.002 
961 1 0.00722899 0.107692 -0.0251294 0 0 0 -0.184591 1.8374 -0.119988 0 -0.000164368 0 0 0 0 0 0 0 0 0 0 0 0 0 0 0 0 0 13 0.002 
661 2 0.0158122 0.107712 -0.0267034 0 0 0 0.825514 0.29119 0.800654 0.0241179 0.0102261 0.0213987 0 0 0 0 0 0 0 0 0 0 0 0 0 0 0 0 14 0.002 
317 11 0.00302082 0.10808 -0.0251686 0 0 0 -0.0898562 0.0131623 -0.552884 -0.17871 0.0947618 0.218826 0 0 1 0 0 0 0 0 0 0 1 0 0 0 0 0 34 0.002 
551 10 0.0156972 0.0982238 -0.0227861 0 0 0 0.32779 -0.281648 -0.175235 0 -0.000164368 0 0 0 0 0 0 0 0 0 0 0 0 0 0 0 0 0 19 0.002 
589 5 0.00291454 0.101 -0.0242355 0 0 0 -1.33539 0.745835 0.151347 0.622094 0.194822 -0.173261 0 0 0 0 0 0 0 0 0 0 0 0 0 0 0 0 32 0.002 
602 6 0.00467325 0.104862 -0.0238886 0 0 0 -0.52555 0.32368 -1.79811 -0.199773 0.145281 0.11542 0 0 1 0 0 0 0 0 0 0 1 0 0 0 0 0 27 0.002 
329 7 0.0123752 0.105185 -0.0245531 0 0 0 0.203785 -0.407649 -0.78775 0 -0.000164368 0 0 0 0 0 0 0 0 0 0 0 0 0 0 0 0 0 33 0.002 
348 6 0.0159965 0.107029 -0.0226428 0 0 0 -0.158326 0.142986 -0.566965 0 -0.000164368 0 0 0 0 0 0 0 0 0 0 0 0 0 0 0 0 0 42 0.002 
1091 5 0.0030724 0.107817 -0.0210935 0 0 0 -0.169625 0.817014 -0.498056 0 -0.000164368 0 0 0 0 0 0 0 0 0 0 0 0 0 0 0 0 0 8 0.002 
149 7 0.00752634 0.106858 -0.0211194 0 0 0 -0.0991854 0.164627 0.320597 0.00794491 0.00107659 0.0061315 0 0 0 0 0 0 1 0 0 0 0 0 0 0 0 0 52 0.002 
638 6 0.0109053 0.0828412 -0.0207069 0 0 0 1.19316 0.844413 -3.56448 0 -0.000164368 0 0 0 0 0 0 0 0 0 0 0 0 0 0 0 0 0 24 0.002 
1236 1 0.00541968 0.094348 -0.020873 0 0 0 0.075484 6.6716 -4.55644 0 -0.000164368 0 0 0 0 0 0 0 0 0 0 0 0 0 0 0 0 0 0 0.002 
1215 2 0.00314241 0.103887 -0.0202872 0 0 0 -1.43871 -0.170894 -1.31756 0 -0.000164368 0 0 0 0 0 0 0 0 0 0 0 0 0 0 0 0 0 0 0.002 
1201 4 0.0111203 0.107635 -0.0195527 0 0 0 0.504503 0.184487 -0.217483 -0.00794491 -0.00140532 -0.0061315 0 0 0 0 0 0 1 0 0 0 0 0 0 0 0 0 2 0.002 
957 4 0.00472405 0.103181 -0.0162137 0 0 0 1.92306 7.00962 2.39523 0 -0.000164368 0 0 0 0 0 0 0 0 0 0 0 0 0 0 0 0 0 13 0.002 
1121 3 0.0147378 0.106317 -0.0172741 0 0 0 -0.0349657 -0.225809 -0.224621 0 -0.000164368 0 0 0 0 0 0 0 0 0 0 0 0 0 0 0 0 0 0 0.002 
1086 9 0.00442799 0.107776 -0.0172711 0 0 0 0.212926 -0.219481 -0.0338684 0 -0.000164368 0 0 0 0 0 0 0 0 0 0 0 0 0 0 0 0 0 10 0.002 
787 3 0.0139299 0.100852 -0.0152802 0 0 0 0.0578237 1.01989 -0.0176434 0 -0.000164368 0 0 0 0 0 0 0 0 0 0 0 0 0 0 0 0 0 25 0.002 
214 8 0.00776902 0.106677 -0.0148928 0 0 0 -0.0260666 -0.286178 -0.442808 0 -0.000164368 0 0 0 0 0 0 0 0 0 0 0 0 0 0 0 0 0 7 0.002 
512 7 0.0169428 0.0903501 -0.0119814 0 0 0 -0.205058 0.854123 -0.922419 0 -0.000164368 0 0 0 0 0 0 0 0 0 0 0 0 0 0 0 0 0 30 0.002 
296 2 0.00640978 0.0894747 -0.0106285 0 0 0 -0.412617 0.291713 -1.07472 0 -0.000164368 0 0 0 0 0 0 0 0 0 0 0 0 0 0 0 0 0 20 0.002 
1189 5 0.0122507 0.0919687 -0.00916133 0 0 0 -0.830491 1.76669 -0.759585 0 -0.000164368 0 0 0 0 0 0 0 0 0 0 0 0 0 0 0 0 0 1 0.002 
767 5 0.00307563 0.102272 -0.0100908 0 0 0 0.0512558 -0.233387 -0.0625091 0 -0.000164368 0 0 0 0 0 0 0 0 0 0 0 0 0 0 0 0 0 27 0.002 
675 1 0.0105181 0.102141 -0.0087883 0 0 0 -0.0100822 -0.790513 0.122242 0 -0.000164368 0 0 0 0 0 0 0 0 0 0 0 0 0 0 0 0 0 30 0.002 
1212 1 0.00617785 0.104879 -0.00928379 0 0 0 -0.120635 -0.100045 0.109793 0 -0.000164368 0 0 0 0 0 0 0 0 0 0 0 0 0 0 0 0 0 3 0.002 
693 8 0.00324253 0.0782414 -0.00480139 0 0 0 0.216951 -0.336798 -0.626455 0 -0.000164368 0 0 0 0 0 0 0 0 0 0 0 0 0 0 0 0 0 33 0.002 
555 5 0.0157887 0.101755 -0.00570183 0 0 0 0.832035 -0.270506 -0.0166063 0 -0.000164368 0 0 0 0 0 0 0 0 0 0 0 0 0 0 0 0 0 33 0.002 
713 7 0.00306804 0.105339 -0.00365999 0 0 0 -0.00113444 -0.275138 0.458781 0 -0.000164368 0 0 0 0 0 0 0 0 0 0 0 0 0 0 0 0 0 32 0.002 
1103 1 0.0159304 0.106489 -0.0046488 0 0 0 0.435871 -0.21712 -0.138401 0 -0.000164368 0 0 0 0 0 0 0 0 0 0 0 0 0 0 0 0 0 12 0.002 
1063 3 0.00464406 0.0882032 -0.0025531 0 0 0 0.220245 -0.060375 -0.327184 0 -0.000164368 0 0 0 0 0 0 0 0 0 0 0 0 0 0 0 0 0 10 0.002 
303 3 0.0036272 0.0925592 -0.00166561 0 0 0 -0.231737 -0.0386413 -0.119569 0 -0.000164368 0 0 0 0 0 0 0 0 0 0 0 0 0 0 0 0 0 29 0.002 
516 2 0.0179776 0.102688 -0.0015105 0 0 0 0.516831 0.00111425 0.517803 0 -0.000164368 0 0 0 0 0 0 0 0 0 0 0 0 0 0 0 0 0 35 0.002 
457 6 0.00710862 0.105197 -0.00260015 0 0 0 0.105433 -0.520048 0.32553 0 -0.000164368 0 0 0 0 0 0 0 0 0 0 0 0 0 0 0 0 0 27 0.002 
709 1 0.0147499 0.0995944 0.000455859 0 0 0 0.93682 -0.739769 0.690509 0 -0.000164368 0 0 0 0 0 0 0 0 0 0 0 0 0 0 0 0 0 28 0.002 
1196 5 0.0127195 0.107352 -0.00109884 0 0 0 -0.0993649 0.102579 -0.256205 0 -0.000164368 0 0 0 0 0 0 0 0 0 0 0 0 0 0 0 0 0 1 0.002 
297 3 0.00362625 0.0993394 0.00290252 0 0 0 0.0693116 0.0779818 0.215423 0 -0.000164368 0 0 0 0 0 0 0 0 0 0 0 0 0 0 0 0 0 42 0.002 
451 1 0.00955393 0.104521 0.000928066 0 0 0 0.302301 0.0492428 0.128137 0 -0.000164368 0 0 0 0 0 0 0 0 0 0 0 0 0 0 0 0 0 33 0.002 
1095 7 0.0146471 0.10477 0.00199817 0 0 0 -0.422063 -0.285999 0.628593 0 -0.000164368 0 0 0 0 0 0 0 0 0 0 0 0 0 0 0 0 0 4 0.002 
999 5 0.00789661 0.107905 0.00273102 0 0 0 0.158723 0.0495012 0.259068 0 -0.000164368 0 0 0 0 0 0 0 0 0 0 0 0 0 0 0 0 0 12 0.002 
133 1 0.0176115 0.107874 0.00163279 0 0 0 0.243028 -0.216444 0.275739 0 -0.000164368 0 0 0 0 0 0 0 0 0 0 0 0 0 0 0 0 0 36 0.002 
126 2 0.0154701 0.0884378 0.00445415 0 0 0 0.0403065 -0.949505 -0.324939 0 -0.000164368 0 0 0 0 0 0 0 0 0 0 0 0 0 0 0 0 0 24 0.002 
309 1 0.012916 0.0915125 0.0048827 0 0 0 1.8989 1.68899 -0.277408 0 -0.000164368 0 0 0 0 0 0 0 0 0 0 0 0 0 0 0 0 0 48 0.002 
61 8 0.00823778 0.0939445 0.00372534 0 0 0 0.468925 5.00715 -3.23352 0 -0.000164368 0 0 0 0 0 0 0 0 0 0 0 0 0 0 0 0 0 20 0.002 
959 6 0.00790094 0.0990177 0.00414575 0 0 0 -0.263085 -0.0796276 -0.0410415 -0.00908697 -0.00136892 -0.00147036 0 0 0 0 0 1 0 0 0 0 0 0 0 0 0 0 24 0.002 
574 5 0.0118744 0.098789 0.00427121 0 0 0 -0.20658 -0.345048 0.503818 0.00908697 0.00104018 0.00147036 0 0 0 0 0 1 0 0 0 0 0 0 0 0 0 0 26 0.002 
582 7 0.00361162 0.103881 0.0040648 0 0 0 0.18673 -0.10549 0.0172596 0 -0.000164368 0 0 0 0 0 0 0 0 0 0 0 0 0 0 0 0 0 24 0.002 
510 9 0.007998 0.103304 0.00495184 0 0 0 0.295491 0.0103676 0.30401 0 -0.000164368 0 0 0 0 0 0 0 0 0 0 0 0 0 0 0 0 0 63 0.002 
1199 14 0.0118537 0.106863 0.00399142 0 0 0 0.117449 -0.12581 0.0162608 0 -0.000164368 0 0 0 0 0 0 0 0 0 0 0 0 0 0 0 0 0 1 0.002 
760 3 0.00428735 0.107819 0.00502714 0 0 0 0.113742 -0.0741521 0.12329 0 -0.000164368 0 0 0 0 0 0 0 0 0 0 0 0 0 0 0 0 0 22 0.002 
1043 8 0.0150742 0.10074 0.00677909 0 0 0 0.157079 -0.16845 0.321198 0 -0.000164368 0 0 0 0 0 0 0 0 0 0 0 0 0 0 0 0 0 12 0.002 
1016 8 0.00862665 0.106999 0.00656417 0 0 0 0.336865 0.0707622 0.244745 0 -0.000164368 0 0 0 0 0 0 0 0 0 0 0 0 0 0 0 0 0 5 0.002 
403 8 0.0153669 0.10788 0.005911 0 0 0 0.0664251 -0.037543 0.0987011 0 -0.000164368 0 0 0 0 0 0 0 0 0 0 0 0 0 0 0 0 0 33 0.002 
1223 2 0.0101056 0.0950694 0.00846015 0 0 0 -0.186804 2.03997 -1.32658 -0.0187078 -0.12219 -0.113186 0 1 0 0 0 0 0 0 0 0 0 0 0 0 0 0 1 0.002 
1060 2 0.00627345 0.0958434 0.00912579 0 0 0 -0.27029 0.557249 0.142993 0.0123038 0.0042488 0.00436625 0 1 0 0 0 0 0 0 0 0 0 0 0 0 0 0 8 0.002 
1193 8 0.00313064 0.0982541 0.00887349 0 0 0 -0.494675 -0.0847916 0.29626 -0.0406821 0.0179095 0.00228324 0 1 0 0 0 0 0 0 0 0 0 0 0 0 0 0 5 0.002 
1032 4 0.0137561 0.096858 0.00965033 0 0 0 1.97506 1.61198 1.47403 0 -0.000164368 0 0 0 0 0 0 0 0 0 0 0 0 0 0 0 0 0 13 0.002 
674 10 0.00299792 0.102372 0.00785893 0 0 0 -0.0115633 -0.0563271 0.11327 0.00226701 0.000660892 -0.00077703 0 0 0 0 0 0 0 0 0 0 0 0 0 0 0 0 27 0.002 
419 10 0.00300334 0.10649 0.00857587 0 0 0 0.0195194 0.0234105 0.138496 0 -0.000164368 0 0 0 0 0 0 0 0 0 0 0 0 0 0 0 0 0 47 0.002 
765 1 0.0133592 0.106405 0.00909065 0 0 0 0.154418 -0.0798884 0.116642 5.33804e-05 -0.000163128 4.01136e-07 1 0 0 0 0 0 0 0 0 0 0 0 0 0 0 0 24 0.002 
526 2 0.0173099 0.106029 0.00968802 0 0 0 0.158587 -0.14658 0.0769346 0 -0.000164368 0 0 0 0 0 0 0 0 0 0 0 0 0 0 0 0 0 25 0.002 
70 6 0.0186387 0.102889 0.0029202 0 0 0 -0.816743 0.73335 0.141452 -7.61772e-05 0.00023176 0.000737069 0 0 0 0 0 1 0 0 0 0 0 0 0 0 0 0 31 0.002 
811 5 0.0153188 0.0831071 0.011965 0 0 0 -0.221351 0.0196912 -0.489313 0 -0.000164368 0 0 0 0 0 0 0 0 0 0 0 0 0 0 0 0 0 30 0.002 
262 3 0.0173236 0.0898143 0.0107475 0 0 0 0.106483 -0.218429 -0.0049272 -0.00213545 0.0152921 -0.00602066 0 0 1 0 0 0 0 0 0 0 0 0 0 0 0 0 31 0.002 
1222 3 0.00392282 0.091357 0.0103714 0 0 0 0.190787 -0.345463 0.132141 0 -0.000164368 0 0 0 0 0 0 0 0 0 0 0 0 0 0 0 0 0 0 0.002 
800 1 0.013622 0.0923413 0.0109415 0 0 0 -0.287785 -0.313016 0.478295 0 -0.000164368 0 0 0 0 0 0 0 0 0 0 0 0 0 0 0 0 0 19 0.002 
193 8 0.0100178 0.0985252 0.0103189 0 0 0 0.210595 0.613533 0.671087 0.0470861 0.0993743 0.106536 0 0 0 0 0 0 0 1 0 0 0 0 0 0 0 0 43 0.002 
1116 4 0.00301733 0.100894 0.0119444 0 0 0 0.0461851 0.0849249 0.0278993 0 -0.000164368 0 0 0 0 0 0 0 0 0 0 0 0 0 0 0 0 0 15 0.002 
446 9 0.00654588 0.102914 0.0110242 0 0 0 0.0477843 -0.0684183 0.0614853 0 -0.000164368 0 0 0 0 0 0 0 0 0 0 0 0 0 0 0 0 0 45 0.002 
930 3 0.0104812 0.102639 0.0119425 0 0 0 0.0906122 -0.202578 0.0292209 0 -0.000164368 0 0 0 0 0 0 0 0 0 0 0 0 0 0 0 0 0 36 0.002 
1167 8 0.0149772 0.101241 0.0108898 0 0 0 -0.0829605 -0.185231 0.108592 -2.33697e-05 -0.000184427 -2.18428e-05 0 0 0 0 0 0 0 1 0 0 0 0 0 0 0 0 3 0.002 
125 10 0.0185694 0.102649 0.0119329 0 0 0 -0.138773 -0.0898411 0.281363 0.00130199 -0.0014097 -0.000784204 0 0 0 0 0 0 0 1 0 2 0 0 0 0 0 0 38 0.002 
1127 2 0.00974528 0.107535 0.0103774 0 0 0 0.221289 -0.082861 0.320723 -5.33804e-05 -0.000165608 -4.01136e-07 0 1 0 0 0 0 0 0 0 0 0 0 0 0 0 0 6 0.002 
769 5 0.0112499 0.0853839 0.0134174 0 0 0 1.23201 -0.210446 -0.20649 0 -0.000164368 0 0 0 0 0 0 0 0 0 0 0 0 0 0 0 0 0 28 0.002 
945 9 0.0119726 0.0901796 0.0142194 0 0 0 0.458906 -0.271957 0.034984 0 -0.000164368 0 0 0 0 0 0 0 0 0 0 0 0 0 0 0 0 0 13 0.002 
321 7 0.00349048 0.0965933 0.0127406 0 0 0 0.0765878 0.00581982 0.371084 0 -0.000164368 0 0 0 0 0 0 0 0 0 0 0 0 0 0 0 0 0 27 0.002 
503 7 0.00658303 0.098915 0.0140704 0 0 0 -0.00752678 -0.154416 0.0609027 -1.55303e-05 -0.000180023 -5.19965e-05 0 0 0 0 0 0 1 0 0 0 0 0 0 0 0 0 25 0.002 
706 9 0.0129543 0.100132 0.0141592 0 0 0 -0.0644296 -0.287265 0.115064 0 -0.000164368 0 0 0 0 0 0 0 0 0 0 0 0 0 0 0 0 0 48 0.002 
306 3 0.00416755 0.106859 0.012402 0 0 0 0.0100152 -0.0664635 0.157739 2.83363e-05 -0.000149098 -7.73426e-05 0 0 0 0 0 0 0 0 0 0 0 0 0 0 0 0 40 0.002 
375 4 0.0115753 0.107078 0.0144763 0 0 0 -0.0321468 -0.04475 0.100727 -0.000682899 -0.000423093 -0.000283642 0 0 0 1 0 0 0 0 0 0 0 0 0 0 0 0 29 0.002 
632 6 0.00774006 0.107998 0.0138214 0 0 0 -0.0771465 -0.00243347 0.182109 0.000682899 9.4357e-05 0.000283642 0 0 0 1 0 0 0 0 0 0 0 0 0 0 0 0 35 0.002 
601 8 0.0156263 0.0861181 0.0156617 0 0 0 -0.0860165 -0.439897 0.0688401 0 -0.000164368 0 0 0 0 0 0 0 0 0 0 0 0 0 0 0 0 0 32 0.002 
1204 4 0.00307204 0.0910467 0.0149244 0 0 0 0.0434079 -0.172917 0.183322 0 -0.000164368 0 0 0 0 0 0 0 0 0 0 0 0 0 0 0 0 0 0 0.002 
339 4 0.00817325 0.0943025 0.0164425 0 0 0 -0.157368 -0.228682 0.10445 0 -0.000164368 0 0 0 0 0 0 0 0 0 0 0 0 0 0 0 0 0 30 0.002 
199 4 0.0159012 0.0958281 0.0144777 0 0 0 0.10378 -0.136723 -0.119234 0 -0.000164368 0 0 0 0 0 0 0 0 0 0 0 0 0 0 0 0 0 44 0.002 
278 11 0.00323416 0.10013 0.0159149 0 0 0 0.0167844 -0.0755946 0.0676114 0 -0.000164368 0 0 0 0 0 0 0 0 0 0 0 0 0 0 0 0 0 39 0.002 
809 1 0.0168401 0.0999254 0.0155843 0 0 0 0.00580903 -0.0917175 0.133036 0 -0.000164368 0 0 0 0 0 0 0 0 0 0 0 0 0 0 0 0 0 22 0.002 
400 7 0.00956489 0.101357 0.0160459 0 0 0 -0.0408452 -0.093664 0.0565427 0 -0.000164368 0 0 0 0 0 0 0 0 0 0 0 0 0 0 0 0 0 38 0.002 
719 3 0.00659622 0.103957 0.0150431 0 0 0 0.0916951 -0.113604 0.0754754 0 -0.000164368 0 0 0 0 0 0 0 0 0 0 0 0 0 0 0 0 0 20 0.002 
695 2 0.0127851 0.103723 0.0163461 0 0 0 -0.0439564 -0.0931351 0.0395568 -0.00691599 -0.000849678 0.00282218 0 1 0 0 0 0 0 0 0 0 0 0 0 0 0 0 21 0.002 
9 6 0.0165323 0.104124 0.0150387 0 0 0 0.0166027 -0.00919282 0.308419 0.00517504 0.00185584 -0.0018241 0 1 0 0 0 0 0 0 0 1 0 0 0 0 0 0 52 0.002 
1040 3 0.00321715 0.107923 0.0161386 0 0 0 -0.0382895 -0.00848827 0.127606 -2.83363e-05 -0.000179639 7.73426e-05 0 0 0 0 0 0 0 0 0 0 0 0 0 0 0 0 14 0.002 
263 2 0.00978047 0.0766519 0.0171618 0 0 0 0.373603 0.346174 -0.145573 0 -0.000164368 0 0 0 0 0 0 0 0 0 0 0 0 0 0 0 0 0 31 0.002 
823 9 0.0142075 0.0811916 0.0183383 0 0 0 0.102504 0.223427 -0.657351 0 -0.000164368 0 0 0 0 0 0 0 0 0 0 0 0 0 0 0 0 0 10 0.002 
299 1 0.00975932 0.0822239 0.0187312 0 0 0 0.203979 -0.244377 -0.186301 0 -0.000164368 0 0 0 0 0 0 0 0 0 0 0 0 0 0 0 0 0 33 0.002 
954 5 0.0184622 0.0821957 0.0171587 0 0 0 0.0343106 -0.0363022 -0.340956 0 -0.000164368 0 0 0 0 0 0 0 0 0 0 0 0 0 0 0 0 0 20 0.002 
69 6 0.0116138 0.0861415 0.0175036 0 0 0 0.272564 -0.645376 0.0508359 0 -0.000164368 0 0 0 0 0 0 0 0 0 0 0 0 0 0 0 0 0 33 0.002 
399 3 0.00413212 0.0865804 0.0166643 0 0 0 0.163841 -0.351709 -0.24522 0 -0.000164368 0 0 0 0 0 0 0 0 0 0 0 0 0 0 0 0 0 36 0.002 
1066 1 0.00673612 0.0906373 0.0177641 0 0 0 -0.0369849 -0.214732 0.0439712 0 -0.000164368 0 0 0 0 0 0 0 0 0 0 0 0 0 0 0 0 0 22 0.002 
425 1 0.00303109 0.0934021 0.0183007 0 0 0 0.0162642 -0.00585498 0.112393 -0.000228585 -0.000746767 -0.000369301 1 0 0 0 0 0 0 0 0 0 0 0 0 0 0 0 39 0.002 
873 6 0.0118531 0.0936993 0.0184626 0 0 0 -0.0482237 -0.0132006 0.161649 0 -0.000164368 0 0 0 0 0 0 0 0 0 0 0 0 0 0 0 0 0 14 0.002 
967 2 0.0162208 0.0919933 0.0178284 0 0 0 0.0904556 -0.160952 -0.0697767 0 -0.000164368 0 0 0 0 0 0 0 0 0 0 0 0 0 0 0 0 0 13 0.002 
976 5 0.007016 0.0983295 0.0180025 0 0 0 0.0621917 -0.0421559 0.0760737 9.22331e-05 -0.000129267 0.00010018 0 0 0 0 1 0 1 0 0 0 0 0 0 0 0 0 11 0.002 
395 6 0.0115261 0.0977121 0.017151 0 0 0 0.00312423 -0.185723 0.172734 0 -0.000164368 0 0 0 0 0 0 0 0 0 0 0 0 0 0 0 0 0 45 0.002 
480 3 0.0144223 0.100865 0.0188297 0 0 0 0.0796167 -0.0632857 0.0210292 0 -0.000164368 0 0 0 0 0 0 0 0 0 0 0 0 0 0 0 0 0 35 0.002 
985 4 0.0183498 0.102023 0.0187107 0 0 0 -0.0442877 -0.0896627 0.0788209 0.000486017 -0.000299 -0.000177934 0 0 0 1 0 0 0 0 0 0 0 0 0 0 0 0 14 0.002 
1065 3 0.00300315 0.104155 0.0174676 0 0 0 -0.0180554 -0.0562527 -0.0149433 0 -0.000164368 0 0 0 0 0 0 0 0 0 0 0 0 0 0 0 0 0 13 0.002 
1017 2 0.0153011 0.10753 0.0168036 0 0 0 -0.0342662 0.105168 0.0788336 0 -0.000164368 0 0 0 0 0 0 0 0 0 0 0 0 0 0 0 0 0 2 0.002 
1187 4 0.00904451 0.107944 0.0176207 0 0 0 0.0385974 0.00334519 0.212908 0 -0.000164368 0 0 0 0 0 0 0 0 0 0 0 0 0 0 0 0 0 1 0.002 
993 8 0.00333608 0.0772813 0.0200214 0 0 0 0.0106799 -0.314558 0.0243741 0 -0.000164368 0 0 0 0 0 0 0 0 0 0 0 0 0 0 0 0 0 26 0.002 
1011 6 0.0181177 0.0787847 0.0199315 0 0 0 -0.0524245 -0.0660776 -0.151088 0 -0.000164368 0 0 0 0 0 0 0 0 0 0 0 0 0 0 0 0 0 16 0.002 
904 3 0.00319402 0.0822469 0.0205139 0 0 0 -0.0126557 -0.226502 -0.0137899 0 -0.000164368 0 0 0 0 0 0 0 0 0 0 0 0 0 0 0 0 0 12 0.002 
189 5 0.00621969 0.0849029 0.0200816 0 0 0 0.0971694 -0.263859 0.00977055 0 -0.000164368 0 0 0 0 0 0 0 0 0 0 0 0 0 0 0 0 0 27 0.002 
860 11 0.0187346 0.0856372 0.0194096 0 0 0 0.166952 -0.179666 0.101668 0 -0.000164368 0 0 0 0 0 0 0 0 0 0 0 0 0 0 0 0 0 28 0.002 
926 2 0.00867039 0.0925634 0.0207347 0 0 0 -0.0389162 -0.143241 -0.00401681 0.000634914 -0.000379079 -0.00128261 0 1 0 0 0 0 0 0 0 0 0 0 0 0 0 0 16 0.002 
128 4 0.00569802 0.0954371 0.020473 0 0 0 0.0840216 -0.0476303 0.094818 0.000228585 0.000418031 0.000369301 1 0 0 0 0 0 0 0 0 0 0 0 0 0 0 0 35 0.002 
59 3 0.0177474 0.0945922 0.02115 0 0 0 0.0396581 -0.119553 0.0129191 -3.76082e-05 -0.000348498 0.000555918 0 0 1 0 0 0 0 0 0 0 0 0 0 0 0 0 13 0.002 
863 1 0.0150839 0.0968023 0.0191456 0 0 0 0.109905 -0.0632412 0.0144875 3.76082e-05 1.97615e-05 -0.000555918 0 0 1 0 0 0 0 0 0 0 0 0 0 0 0 0 15 0.002 
892 5 0.00312023 0.0991215 0.0197969 0 0 0 -0.0123432 -0.104797 0.0919421 0 -0.000164368 0 0 0 0 0 0 0 0 0 0 0 0 0 0 0 0 0 15 0.002 
338 6 0.00990532 0.10026 0.0199814 0 0 0 0.0649707 -0.0216212 0.0736003 -7.67028e-05 -0.000183814 -4.81839e-05 0 0 0 0 1 0 0 0 0 0 0 0 0 0 0 0 33 0.002 
988 10 0.00644262 0.102129 0.0191384 0 0 0 0.065301 -0.0404943 0.0508074 0 -0.000164368 0 0 0 0 0 0 0 0 0 0 0 0 0 0 0 0 0 13 0.002 
941 3 0.0103177 0.104624 0.0194532 0 0 0 -0.0121559 -0.096092 0.075741 -0.000287248 -6.21921e-05 -9.82921e-05 0 0 1 0 0 0 0 0 0 0 0 0 0 0 0 0 23 0.002 
107 2 0.0155032 0.104651 0.0196894 0 0 0 -0.0195427 -0.0226666 0.0708742 0.00120686 -2.80859e-05 -0.000837107 0 0 0 1 0 0 0 0 0 0 0 0 0 0 0 0 15 0.002 
1191 3 0.00655209 0.106124 0.0201695 0 0 0 -0.0394631 -0.0047883 0.131014 -0.00130964 0.00284623 -0.00385843 0 0 1 0 0 0 0 0 0 0 0 0 0 0 0 0 2 0.002 
1142 2 0.00300351 0.107974 0.020146 0 0 0 0.00291693 -0.0227589 0.065206 0 -0.000164368 0 0 0 0 0 0 0 0 0 0 0 0 0 0 0 0 0 4 0.002 
1023 1 0.0130148 0.107999 0.0200699 0 0 0 -0.104726 -0.0198354 0.0956724 0 -0.000164368 0 0 0 0 0 0 0 0 0 0 0 0 0 0 0 0 0 15 0.002 
114 6 0.0181501 0.107818 0.0197396 0 0 0 -0.000197057 -0.00905822 0.0636212 0 -0.000164368 0 0 0 0 0 0 0 0 0 0 0 0 0 0 0 0 0 21 0.002 
1228 8 0.0103639 0.0794658 0.0216077 0 0 0 -0.106592 -0.313634 -0.0564539 0 -0.000164368 0 0 0 0 0 0 0 0 0 0 0 0 0 0 0 0 0 0 0.002 
768 6 0.0142366 0.0778163 0.0215335 0 0 0 0.0419973 -0.0947118 -0.360099 0 -0.000164368 0 0 0 0 0 0 0 0 0 0 0 0 0 0 0 0 0 19 0.002 
979 4 0.00712963 0.081525 0.0227643 0 0 0 0.084375 -0.219534 -0.00135719 -0.000489283 0.000296629 0.000309822 0 0 0 1 0 0 0 0 0 0 0 0 0 0 0 0 25 0.002 
1155 5 0.0187287 0.0824423 0.0222853 0 0 0 0.0838478 -0.00909741 -0.201201 -0.00287645 -0.00192239 -0.00260048 0 0 0 0 1 0 0 0 0 0 0 0 0 0 0 0 9 0.002 
287 6 0.00843662 0.0862009 0.0231866 0 0 0 -0.0166393 -0.190648 -0.0473501 0 -0.000164368 0 0 0 0 0 0 0 0 0 0 0 0 0 0 0 0 0 29 0.002 
1192 2 0.0117872 0.0844972 0.0214953 0 0 0 -0.115704 -0.101055 0.0392332 0 -0.000164368 0 0 0 0 0 0 0 0 0 0 0 0 0 0 0 0 0 2 0.002 
1188 4 0.0156496 0.0850992 0.0223467 0 0 0 -0.0195682 -0.10159 -0.109399 0 -0.000164368 0 0 0 0 0 0 0 0 0 0 0 0 0 0 0 0 0 4 0.002 
1077 1 0.00299717 0.086904 0.0227413 0 0 0 -0.0126296 -0.1717 -0.042056 0.00327668 0.00144683 0.000296966 0 0 0 0 0 0 0 0 0 0 0 0 0 0 0 0 9 0.002 
261 1 0.00619767 0.0891485 0.0215796 0 0 0 -0.0821903 -0.11472 0.0300605 0 -0.000164368 0 0 0 0 0 0 0 0 0 0 0 0 0 0 0 0 0 35 0.002 
140 4 0.0166454 0.0900305 0.0234139 0 0 0 -0.0375426 -0.121619 -0.0448842 0 -0.000164368 0 0 0 0 0 0 0 0 0 0 0 0 0 0 0 0 0 34 0.002 
534 13 0.0030129 0.0915015 0.0222969 0 0 0 0.0225115 -0.170978 0.0131254 0 -0.000164368 0 0 0 0 0 0 0 0 0 0 0 0 0 0 0 0 0 35 0.002 
459 5 0.0133241 0.091393 0.0215775 0 0 0 -0.130831 -0.0824387 0.00969573 0 -0.000164368 0 0 0 0 0 0 0 0 0 0 0 0 0 0 0 0 0 26 0.002 
726 1 0.00975319 0.0959417 0.022847 0 0 0 0.0302642 -0.11951 0.0295455 0 -0.000164368 0 0 0 0 0 0 0 0 0 0 0 0 0 0 0 0 0 25 0.002 
364 3 0.00326105 0.0970587 0.023229 0 0 0 0.0387831 -0.0847731 0.0700758 0.000945787 -0.00487247 -0.00439419 0 0 1 0 0 0 0 0 0 0 0 0 0 0 0 0 34 0.002 
1153 8 0.00649998 0.0990601 0.0219702 0 0 0 -0.00311368 -0.0444136 0.0951192 0 -0.000164368 0 0 0 0 0 0 0 0 0 0 0 0 0 0 0 0 0 11 0.002 