ITEM: TIMESTEP
9650000
ITEM: NUMBER OF ATOMS
1183
ITEM: BOX BOUNDS ff ff ff
-0.01 0.45
-0.15 0.15
-0.08 0.1
ITEM: ATOMS id type x y z ix iy iz vx vy vz fx fy fz c_cc_1 c_cc_2 c_cc_3 c_cc_4 c_cc_5 c_cc_6 c_cc_7 c_cc_8 c_cc_9 c_cc_10 c_cc_11 c_cc_12 c_cc_13 c_cc_14 c_cc_15 c_cc_16 f_fppacc radius 
705 14 0.0101527 -0.0549263 -0.0179917 0 0 0 -22.1927 -12.9228 39.5018 0 -0.000164368 0 0 0 0 0 0 0 0 0 0 0 0 0 0 0 0 0 27 0.002 
949 3 0.0122795 -0.0405774 0.0409198 0 0 0 0.762131 7.24915 7.15444 0 -0.000164368 0 0 0 0 0 0 0 0 0 0 0 0 0 0 0 0 0 10 0.002 
235 3 0.0107276 -0.0563035 0.0124764 0 0 0 -13.2188 8.17733 33.0904 0 -0.000164368 0 0 0 0 0 0 0 0 0 0 0 0 0 0 0 0 0 44 0.002 
1193 8 0.00338979 -0.0282583 -0.0502645 0 0 0 -0.890866 -17.7314 10.0603 0 -0.000164368 0 0 0 0 0 0 0 0 0 0 0 0 0 0 0 0 0 2 0.002 
1199 14 0.0147047 0.0251717 -0.027567 0 0 0 0.473171 -1.17639 -2.44581 0 -0.000164368 0 0 0 0 0 0 0 0 0 0 0 0 0 0 0 0 0 0 0.002 
156 4 0.0166896 0.0342339 -0.0144261 0 0 0 1.09596 1.2128 -11.2266 0 -0.000164368 0 0 0 0 0 0 0 0 0 0 0 0 0 0 0 0 0 31 0.002 
547 4 0.0138166 0.014211 0.0395209 0 0 0 0.544414 2.45413 -3.18025 0 -0.000164368 0 0 0 0 0 0 0 0 0 0 0 0 0 0 0 0 0 46 0.002 
122 5 0.0105608 0.00370686 0.0577094 0 0 0 0.763146 10.2957 -1.36704 0.000790372 -0.0162292 -0.169949 0 0 0 0 0 0 0 0 0 0 0 0 0 0 0 0 49 0.002 
41 1 0.0151244 0.0528567 -0.0355 0 0 0 -2.22652e-308 -2.01615e-20 1.11885e-12 -1.24137e-306 0 0 0 0 0 0 0 0 0 0 0 0 0 0 0 0 0 0 2 0.002 
303 3 0.00581547 0.0555163 -0.0322425 0 0 0 -0.28295 0.00542351 1.31555 0 -0.000164368 0 0 0 0 0 0 0 0 0 0 0 0 0 0 0 0 0 29 0.002 
842 11 0.00574438 0.063312 -0.0325914 0 0 0 -0.597033 -9.28188 2.17696 0 -0.000164368 0 0 0 0 0 0 0 0 0 0 0 0 0 0 0 0 0 28 0.002 
283 10 0.00816975 0.0395195 -0.0217366 0 0 0 -3.63274 -4.10168 -0.541018 0 -0.000164368 0 0 0 0 0 0 0 0 0 0 0 0 0 0 0 0 0 21 0.002 
988 10 0.0127372 0.0624793 -0.0187791 0 0 0 0.0871446 3.17604 6.66663 0 -0.000164368 0 0 0 0 0 0 0 0 0 0 0 0 0 0 0 0 0 11 0.002 
49 3 0.00367279 0.069836 0.0084684 0 0 0 -1.74587 0.242276 -0.786384 0 -0.000164368 0 0 0 0 0 0 0 0 0 0 0 0 0 0 0 0 0 14 0.002 
114 6 0.00359447 0.0504927 -0.0175304 0 0 0 0.245825 11.761 -10.9288 0 -0.000164368 0 0 0 0 0 0 0 0 0 0 0 0 0 0 0 0 0 21 0.002 
1124 4 0.00504606 0.0647439 -0.0132831 0 0 0 0.943121 -0.819977 -2.0579 0 -0.000164368 0 0 0 0 0 0 0 0 0 0 0 0 0 0 0 0 0 3 0.002 
782 1 0.00741606 0.055308 -0.00816259 0 0 0 2.19309 -1.72778 2.22768 0 -0.000164368 0 0 0 0 0 0 0 0 0 0 0 0 0 0 0 0 0 6 0.002 
1060 2 0.0063117 0.0612185 0.00215853 0 0 0 -1.50112 -0.0401225 -1.52699 0 -0.000164368 0 0 0 0 0 0 0 0 0 0 0 0 0 0 0 0 0 7 0.002 
1127 2 0.00675385 0.0401546 0.00587702 0 0 0 -0.293062 -2.01236 3.29231 0 -0.000164368 0 0 0 0 0 0 0 0 0 0 0 0 0 0 0 0 0 3 0.002 
72 3 0.00501904 0.0611756 0.0177316 0 0 0 0.688571 -0.369089 -1.01112 0 -0.000164368 0 0 0 0 0 0 0 0 0 0 0 0 0 0 0 0 0 44 0.002 
674 10 0.00343896 0.0674326 0.0178544 0 0 0 0.162449 0.371617 -0.74224 0 -0.000164368 0 0 0 0 0 0 0 0 0 0 0 0 0 0 0 0 0 26 0.002 
516 2 0.00796609 0.0662205 0.0179756 0 0 0 0.434061 0.303329 -0.954778 0 -0.000164368 0 0 0 0 0 0 0 0 0 0 0 0 0 0 0 0 0 34 0.002 
437 8 0.0142515 0.0743525 0.0185386 0 0 0 -0.00698095 -0.288066 -0.191682 0 -0.000164368 0 0 0 0 0 0 0 0 0 0 0 0 0 0 0 0 0 34 0.002 
930 3 0.0149837 0.0642007 0.0181923 0 0 0 -2.60699 1.20171 -2.51911 0 -0.000164368 0 0 0 0 0 0 0 0 0 0 0 0 0 0 0 0 0 32 0.002 
726 1 0.00313689 0.0704584 0.0211522 0 0 0 -0.0930336 -0.0730669 -0.158201 0 -0.000164368 0 0 0 0 0 0 0 0 0 0 0 0 0 0 0 0 0 22 0.002 
9 6 0.0172536 0.0716089 0.0209852 0 0 0 -0.356511 -0.196802 -0.406275 0.00177393 -0.0199629 -0.00621244 0 0 0 0 0 2 0 0 0 0 0 0 0 0 0 0 49 0.002 
1065 3 0.00869983 0.0733454 0.0208919 0 0 0 -0.0250387 0.360896 -0.192587 0 -0.000164368 0 0 0 0 0 0 0 0 0 0 0 0 0 0 0 0 0 10 0.002 
797 6 0.00838309 0.0629043 0.0221369 0 0 0 -0.0324513 -0.0894604 -0.418957 -0.000196721 -0.000903653 4.24976e-05 0 0 0 0 0 1 0 0 0 0 0 0 0 0 0 0 27 0.002 
1129 5 0.0172692 0.0676207 0.021036 0 0 0 -1.15228 0.0126402 -1.1339 0.00576519 -0.0167948 -0.00580591 0 0 0 0 0 1 0 0 0 0 0 0 0 0 0 0 6 0.002 
926 2 0.00840942 0.0693576 0.0212984 0 0 0 -0.149345 0.256444 -0.220659 0 -0.000164368 0 0 0 0 0 0 0 0 0 0 0 0 0 0 0 0 0 15 0.002 
639 9 0.00302593 0.0745195 0.0217535 0 0 0 0.00564369 -0.197089 -0.00278126 -0.00115342 -0.000797048 -0.00116653 0 0 0 0 0 0 0 0 1 0 0 0 0 0 0 0 40 0.002 
278 11 0.0126794 0.0728572 0.0219689 0 0 0 -0.58679 1.07879 -0.269619 -0.01358 0.107832 -0.0634176 0 0 0 0 0 0 0 0 0 0 2 0 0 0 0 0 38 0.002 
123 8 0.00318031 0.0643611 0.023889 0 0 0 0.0608629 -0.00308597 -0.358989 -0.010906 -0.0244526 -0.00333413 0 0 0 0 0 0 0 1 0 0 0 0 0 0 0 0 42 0.002 
261 1 0.0146328 0.0657207 0.0238866 0 0 0 -0.323193 0.0355317 -0.0905043 0.007727 -0.035658 0.0119872 1 0 0 0 0 0 0 0 0 0 0 0 0 0 0 0 34 0.002 
350 8 0.0104255 0.0661316 0.0233092 0 0 0 -0.0292983 -0.0236698 -0.490076 0.000196721 0.000574917 -4.24976e-05 0 0 0 0 0 1 0 0 0 0 0 0 0 0 0 0 34 0.002 
827 2 0.00477614 0.0679748 0.0243154 0 0 0 -0.0611169 -0.0374294 -0.0505193 0.010906 0.0241238 0.00333413 0 0 0 0 0 0 0 1 0 0 0 0 0 0 0 0 22 0.002 
653 9 0.0130818 0.0693357 0.0236097 0 0 0 -0.0500912 0.750486 -0.569721 -0.0104972 -0.0919685 0.0588506 1 0 0 0 0 0 0 0 0 0 1 0 0 0 0 0 21 0.002 
907 8 0.00300019 0.07137 0.0255245 0 0 0 -0.00238434 -0.135336 -0.0288517 -5.81007e-05 -0.000143868 -0.000138441 0 0 0 0 0 0 0 1 0 0 0 0 0 0 0 0 21 0.002 
993 8 0.0101619 0.0719218 0.0251911 0 0 0 -0.109662 -0.169072 0.050427 0.00106959 0.00257019 -0.00299507 0 0 0 0 0 0 0 1 0 0 0 0 0 0 0 0 24 0.002 
56 7 0.00614873 0.0733542 0.0240153 0 0 0 -0.00523451 -0.197565 -0.0963048 0 -0.000164368 0 0 0 0 0 0 0 0 0 0 0 0 0 0 0 0 0 37 0.002 
126 2 0.0119467 0.0540404 0.0268456 0 0 0 -0.115278 -1.05747 -1.68974 0 -0.000164368 0 0 0 0 0 0 0 0 0 0 0 0 0 0 0 0 0 24 0.002 
961 1 0.00324331 0.0567306 0.0257487 0 0 0 -0.18864 0.0853826 -0.287394 0 -0.000164368 0 0 0 0 0 0 0 0 0 0 0 0 0 0 0 0 0 10 0.002 
1012 7 0.00470632 0.0614377 0.0262335 0 0 0 -0.0956889 0.229759 -0.133598 0 -0.000164368 0 0 0 0 0 0 0 0 0 0 0 0 0 0 0 0 0 24 0.002 
922 5 0.013833 0.0618618 0.0257288 0 0 0 -0.561152 0.000530633 -0.664919 0.014331 -0.0154247 -0.00964367 0 0 0 0 1 0 0 0 0 0 0 0 0 0 0 0 8 0.002 
593 1 0.00611655 0.0651808 0.0269088 0 0 0 0.0274953 -0.269544 0.000808196 -0.00465666 0.000588822 -0.00548085 2 0 0 0 0 0 0 0 0 0 0 0 0 0 0 0 34 0.002 
1058 2 0.0113674 0.0646266 0.0271564 0 0 0 -0.676507 0.0375672 -0.647695 0.00735385 0.00176967 -0.00439523 0 0 0 0 1 0 0 0 0 0 0 0 0 0 0 0 17 0.002 
854 2 0.00797222 0.068933 0.0266835 0 0 0 -0.35994 0.00281645 -0.0729697 8.23823e-05 0.0109754 -0.00949409 0 0 0 0 0 0 0 1 0 0 0 0 0 0 0 0 25 0.002 
976 5 0.0158197 0.0690355 0.0266297 0 0 0 -0.637214 0.237038 0.172561 -0.0357201 0.00552601 -0.0024803 0 0 0 0 1 0 0 0 0 0 0 0 0 0 0 0 8 0.002 
237 10 0.0181089 0.0725264 0.0263576 0 0 0 -0.00638025 0.389676 -0.0309845 0.0357259 -0.020525 -0.0209061 0 0 0 0 0 0 0 0 0 3 0 0 0 0 0 0 42 0.002 
654 3 0.0143088 0.0735758 0.0258501 0 0 0 -0.420647 -0.0892695 0.116505 0.0367554 -0.0174791 0.00352513 0 0 1 0 0 0 0 0 0 1 0 0 0 0 0 0 41 0.002 
576 2 0.00597703 0.0544436 0.0286619 0 0 0 -0.239045 -0.481014 -0.0945282 0 -0.000164368 0 0 0 0 0 0 0 0 0 0 0 0 0 0 0 0 0 20 0.002 
471 5 0.00751134 0.0595728 0.0297388 0 0 0 -0.48902 -0.0937681 -0.182448 0 -0.000164368 0 0 0 0 0 0 0 0 0 0 0 0 0 0 0 0 0 39 0.002 
316 2 0.0183718 0.0617645 0.0296254 0 0 0 0.0103753 -0.117757 0.11857 0 -0.000164368 0 0 0 0 0 0 0 0 0 0 0 0 0 0 0 0 0 26 0.002 
199 4 0.00297906 0.0672736 0.0282055 0 0 0 -0.0183062 -0.138749 0.0136801 -0.00285769 0.00848706 0.000373507 1 0 0 1 0 0 0 0 0 0 0 0 0 0 0 0 44 0.002 
526 2 0.00880099 0.0663733 0.029617 0 0 0 -0.374515 0.128972 -0.0324112 0.0190141 0.00127482 -0.0419099 1 3 0 0 0 0 0 0 0 0 0 0 0 0 0 0 22 0.002 
1103 1 0.0158218 0.0656708 0.0288395 0 0 0 -0.214952 -0.311737 -0.210985 0 -0.000164368 0 0 0 0 0 0 0 0 0 0 0 0 0 0 0 0 0 10 0.002 
308 1 0.00586456 0.0689371 0.0303559 0 0 0 -0.625194 0.209827 0.25138 0.0753809 -0.046862 -0.0396211 2 1 0 1 0 0 0 0 0 0 0 0 0 0 0 0 52 0.002 
377 4 0.0126455 0.0681042 0.0291878 0 0 0 -0.187519 -0.132849 0.0580817 0 -0.000164368 0 0 0 0 0 0 0 0 0 0 0 0 0 0 0 0 0 46 0.002 
895 10 0.00299687 0.0717832 0.0295025 0 0 0 0.0149397 -0.129594 -0.0313805 0.000325525 -0.000173411 0.000262377 0 0 0 0 0 0 0 1 0 1 0 0 0 0 0 0 39 0.002 
399 3 0.00978832 0.0707781 0.0301531 0 0 0 -0.0561729 -0.257154 0.0329586 0 -0.000164368 0 0 0 0 0 0 0 0 0 0 0 0 0 0 0 0 0 35 0.002 
524 5 0.0142799 0.0723247 0.0296386 0 0 0 -0.100339 -0.225519 0.0126727 -0.00377562 0.000471903 0.00693534 0 0 1 0 1 0 0 0 0 0 0 0 0 0 0 0 35 0.002 
58 1 0.00666852 0.073348 0.0293404 0 0 0 0.0614095 -0.174736 -0.0427955 0.000501001 0.0016078 -0.00172437 2 0 0 0 0 0 0 0 0 1 0 0 0 0 0 0 39 0.002 
624 7 0.0105212 0.0745484 0.0289959 0 0 0 -0.0425008 -0.250987 -0.0501507 -0.00149148 -0.000555294 0.000204816 0 0 0 0 0 0 1 0 0 0 0 0 0 0 0 0 32 0.002 
14 5 0.0182599 0.0558749 0.0318393 0 0 0 -0.0768149 -0.508572 -0.0403706 0 -0.000164368 0 0 0 0 0 0 0 0 0 0 0 0 0 0 0 0 0 19 0.002 
768 6 0.0137451 0.0649157 0.0324957 0 0 0 -0.123765 -0.409112 0.115443 0 -0.000164368 0 0 0 0 0 0 0 0 0 0 0 0 0 0 0 0 0 18 0.002 
796 15 0.00339129 0.0534697 0.0329057 0 0 0 0.0126274 -0.484106 -0.00376408 0 -0.000164368 0 0 0 0 0 0 0 0 0 0 0 0 0 0 0 0 0 30 0.002 
297 3 0.00798914 0.0621094 0.0328881 0 0 0 -0.181711 -0.271564 -0.0325994 0 -0.000164368 0 0 0 0 0 0 0 0 0 0 0 0 0 0 0 0 0 42 0.002 
1052 1 0.0135916 0.0608396 0.0328233 0 0 0 -0.0730735 -0.329482 -0.0155494 0 -0.000164368 0 0 0 0 0 0 0 0 0 0 0 0 0 0 0 0 0 12 0.002 
438 2 0.00300494 0.0651248 0.0327525 0 0 0 -0.0408684 -0.214007 0.0131667 -0.0103349 -0.0015925 0.00418522 0 1 0 0 0 0 0 0 0 0 0 0 0 0 0 0 37 0.002 
161 8 0.0179549 0.0641509 0.0328857 0 0 0 0.07744 -0.133856 0.285885 0 -0.000164368 0 0 0 0 0 0 0 0 0 0 0 0 0 0 0 0 0 52 0.002 
662 1 0.00686958 0.0660659 0.0330369 0 0 0 -0.110671 -0.191795 0.110325 0.0126252 -0.0258498 -0.049918 0 2 0 0 0 0 0 0 0 0 0 0 0 0 0 0 32 0.002 
945 9 0.0106375 0.0674349 0.0330051 0 0 0 -0.0346861 -0.178756 0.0287377 -0.00198255 0.00296887 -0.00995748 0 1 0 0 0 0 0 0 1 0 0 0 0 0 0 0 13 0.002 
263 2 0.00299441 0.0697852 0.0330016 0 0 0 0.00256272 -0.0735358 9.47427e-05 -0.0224913 0.0282367 0.00518268 1 1 0 0 0 0 0 0 0 0 0 0 0 0 0 0 31 0.002 
821 3 0.0168594 0.0680402 0.0330304 0 0 0 -0.226485 -0.0914291 -0.205605 -0.0103276 -0.00482349 -0.0250387 0 0 1 0 0 0 0 0 0 0 0 0 0 0 0 0 17 0.002 
463 9 0.00644095 0.0718022 0.0330192 0 0 0 -0.243261 0.285826 0.0826742 0.00754953 -0.014807 -0.0143352 2 1 0 0 0 0 0 0 2 0 0 0 0 0 0 0 38 0.002 
121 2 0.012651 0.0708867 0.0329924 0 0 0 -0.0553101 -0.158649 0.0550977 0.000969618 -0.000375484 0.000985506 0 0 0 0 1 0 0 0 1 0 0 0 0 0 0 0 40 0.002 
404 6 0.016602 0.0720077 0.0329897 0 0 0 -0.0232675 -0.0688966 0.0172714 0.000110497 0.00311627 -0.00854608 0 0 1 0 0 2 0 0 0 0 0 0 0 0 0 0 24 0.002 
1021 3 0.00311604 0.0739774 0.032912 0 0 0 -0.0345687 -0.0141765 0.0302018 -0.0252704 0.0360385 0.0108291 0 0 0 0 0 0 0 0 1 0 0 0 0 0 0 0 14 0.002 
882 3 0.00988458 0.0738175 0.0329029 0 0 0 0.0149953 -0.155757 -0.00359815 0.00161549 -0.000418064 -0.00119247 0 0 1 0 0 0 0 0 1 0 0 0 0 0 0 0 23 0.002 
165 4 0.0137572 0.0747925 0.0329503 0 0 0 -0.0268155 -0.0810122 -0.00659167 -0.00443925 0.0121668 0.000196968 0 0 1 0 0 1 0 0 0 0 0 0 0 0 0 0 31 0.002 
678 9 0.00306477 0.101922 -0.0326764 0 0 0 0.032381 -0.159193 0.154526 0 -0.000164368 0 0 0 0 0 0 0 0 0 0 0 0 0 0 0 0 0 29 0.002 
1091 5 0.00631582 0.0969971 -0.0311038 0 0 0 0.406239 -1.99574 -0.504733 0 -0.000164368 0 0 0 0 0 0 0 0 0 0 0 0 0 0 0 0 0 8 0.002 
598 1 0.00314856 0.107688 -0.0307569 0 0 0 0.228603 -0.247168 0.305593 0 -0.000164368 0 0 0 0 0 0 0 0 0 0 0 0 0 0 0 0 0 30 0.002 
167 2 0.0102018 0.107547 -0.0306058 0 0 0 -0.48884 -0.42093 0.893602 0 -0.000164368 0 0 0 0 0 0 0 0 0 0 0 0 0 0 0 0 0 27 0.002 
1063 3 0.0143449 0.0971876 -0.0284751 0 0 0 0.229626 -0.771396 0.144314 0 -0.000164368 0 0 0 0 0 0 0 0 0 0 0 0 0 0 0 0 0 10 0.002 
430 4 0.0175271 0.0927606 -0.0254729 0 0 0 0.0922183 -0.485065 -0.609673 -0.175786 0.148114 -0.365037 0 0 0 1 0 0 0 0 0 0 0 0 0 0 0 0 38 0.002 
999 5 0.0127864 0.103909 -0.0232853 0 0 0 0.0733487 -0.370764 0.769012 0 -0.000164368 0 0 0 0 0 0 0 0 0 0 0 0 0 0 0 0 0 8 0.002 
1076 2 0.0178199 0.107639 -0.0223652 0 0 0 -0.700596 0.0356159 0.365064 0 -0.000164368 0 0 0 0 0 0 0 0 0 0 0 0 0 0 0 0 0 6 0.002 
339 4 0.0114837 0.0930048 -0.0215381 0 0 0 -0.128885 -1.42828 0.582155 0 -0.000164368 0 0 0 0 0 0 0 0 0 0 0 0 0 0 0 0 0 30 0.002 
960 3 0.00575513 0.107916 -0.0233262 0 0 0 -1.11819 -0.13029 -3.14951 0 -0.000164368 0 0 0 0 0 0 0 0 0 0 0 0 0 0 0 0 0 11 0.002 
538 1 0.0140066 0.0763055 -0.0200821 0 0 0 4.00262 -3.81074 -3.60568 0 -0.000164368 0 0 0 0 0 0 0 0 0 0 0 0 0 0 0 0 0 27 0.002 
1196 5 0.0132295 0.0879359 -0.0187432 0 0 0 -0.521934 -1.46933 -0.688601 0 -0.000164368 0 0 0 0 0 0 0 0 0 0 0 0 0 0 0 0 0 0 0.002 
713 7 0.00354748 0.107812 -0.0176869 0 0 0 0.262689 0.837822 0.31532 0 -0.000164368 0 0 0 0 0 0 0 0 0 0 0 0 0 0 0 0 0 29 0.002 
897 3 0.0175695 0.0903732 -0.0174368 0 0 0 0.320713 1.42081 -0.506515 0 -0.000164368 0 0 0 0 0 0 0 0 0 0 0 0 0 0 0 0 0 20 0.002 
836 4 0.00669045 0.0918249 -0.0172311 0 0 0 1.45927 0.743472 -1.64335 0 -0.000164368 0 0 0 0 0 0 0 0 0 0 0 0 0 0 0 0 0 27 0.002 
1086 9 0.0110141 0.107227 -0.0170931 0 0 0 1.10079 -1.00216 -0.447995 0 -0.000164368 0 0 0 0 0 0 0 0 0 0 0 0 0 0 0 0 0 7 0.002 
1190 6 0.00852384 0.078788 -0.0189879 0 0 0 -5.09128 -0.0198399 -8.01882 0 -0.000164368 0 0 0 0 0 0 0 0 0 0 0 0 0 0 0 0 0 1 0.002 
540 4 0.0142236 0.0843963 -0.0148854 0 0 0 3.85213 5.13748 0.377207 0 -0.000164368 0 0 0 0 0 0 0 0 0 0 0 0 0 0 0 0 0 31 0.002 
286 14 0.0157693 0.103745 -0.0139134 0 0 0 1.47336 -0.524604 0.323362 0 -0.000164368 0 0 0 0 0 0 0 0 0 0 0 0 0 0 0 0 0 40 0.002 
632 6 0.00307721 0.106454 -0.0132048 0 0 0 0.104497 0.00731675 0.26769 0 -0.000164368 0 0 0 0 0 0 0 0 0 0 0 0 0 0 0 0 0 30 0.002 
709 1 0.0120858 0.0878078 -0.0125896 0 0 0 0.406232 5.85408 0.771547 0 -0.000164368 0 0 0 0 0 0 0 0 0 0 0 0 0 0 0 0 0 28 0.002 
760 3 0.0179114 0.0903849 -0.0130384 0 0 0 0.00155841 2.74069 -0.0516336 0 -0.000164368 0 0 0 0 0 0 0 0 0 0 0 0 0 0 0 0 0 20 0.002 
1187 4 0.00440233 0.0912981 -0.0116995 0 0 0 0.81903 0.800228 -0.215607 0 -0.000164368 0 0 0 0 0 0 0 0 0 0 0 0 0 0 0 0 0 0 0.002 
1148 4 0.014227 0.0975384 -0.0107268 0 0 0 -0.731046 -1.08972 0.467675 0 -0.000164368 0 0 0 0 0 0 0 0 0 0 0 0 0 0 0 0 0 0 0.002 
1121 3 0.0068799 0.105266 -0.012 0 0 0 0.0236414 0.935942 -1.27829 -0.0435561 0.166175 -0.157266 0 0 0 0 0 0 0 0 0 0 0 0 0 0 0 0 0 0.002 
590 2 0.0107157 0.100593 -0.0114934 0 0 0 2.89842 5.78183 -2.64269 0 -0.000164368 0 0 0 0 0 0 0 0 0 0 0 0 0 0 0 0 0 35 0.002 
480 3 0.00748794 0.102302 -0.00957217 0 0 0 2.97804 2.37687 -0.21899 0.0435561 -0.166503 0.157266 0 0 0 0 0 0 0 0 0 0 0 0 0 0 0 0 31 0.002 
92 2 0.0124832 0.104794 -0.0104854 0 0 0 1.28594 -2.79648 -0.128808 0 -0.000164368 0 0 0 0 0 0 0 0 0 0 0 0 0 0 0 0 0 39 0.002 
272 2 0.0139878 0.0891707 -0.00384903 0 0 0 -1.86687 -2.32617 -1.36182 0 -0.000164368 0 0 0 0 0 0 0 0 0 0 0 0 0 0 0 0 0 42 0.002 
419 10 0.00813139 0.0967789 -0.000369453 0 0 0 0.00290779 0.547222 -0.786857 0 -0.000164368 0 0 0 0 0 0 0 0 0 0 0 0 0 0 0 0 0 43 0.002 
18 3 0.012538 0.0978272 0.000156223 0 0 0 0.123639 0.62544 0.843106 0 -0.000164368 0 0 0 0 0 0 0 0 0 0 0 0 0 0 0 0 0 33 0.002 
941 3 0.00378643 0.101943 0.000295266 0 0 0 -0.97617 2.01444 -0.815889 0 -0.000164368 0 0 0 0 0 0 0 0 0 0 0 0 0 0 0 0 0 20 0.002 
1183 1 0.00891713 0.10107 0.000387099 0 0 0 0.90697 -0.904216 0.0542991 0 -0.000164368 0 0 0 0 0 0 0 0 0 0 0 0 0 0 0 0 0 0 0.002 
306 3 0.00308639 0.106583 0.000171867 0 0 0 -0.0191628 0.402224 0.186537 0 -0.000164368 0 0 0 0 0 0 0 0 0 0 0 0 0 0 0 0 0 40 0.002 
1051 10 0.0151872 0.0910832 0.00110965 0 0 0 -1.3184 0.694048 -0.612403 0 -0.000164368 0 0 0 0 0 0 0 0 0 0 0 0 0 0 0 0 0 8 0.002 
519 1 0.00525079 0.0948604 0.00201122 0 0 0 0.173636 0.96417 1.17287 0 -0.000164368 0 0 0 0 0 0 0 0 0 0 0 0 0 0 0 0 0 30 0.002 
1040 3 0.00770131 0.107987 0.00188224 0 0 0 0.2775 0.00370178 -0.0538769 0 -0.000164368 0 0 0 0 0 0 0 0 0 0 0 0 0 0 0 0 0 13 0.002 
998 5 0.016074 0.0897325 0.00524215 0 0 0 -0.518795 1.17622 0.370451 0 -0.000164368 0 0 0 0 0 0 0 0 0 0 0 0 0 0 0 0 0 7 0.002 
552 8 0.0137421 0.093107 0.00433953 0 0 0 -1.09602 -0.02409 -0.246955 0 -0.000164368 0 0 0 0 0 0 0 0 0 0 0 0 0 0 0 0 0 30 0.002 
522 2 0.00470434 0.100256 0.00558821 0 0 0 1.26445 1.16711 0.496504 0 -0.000164368 0 0 0 0 0 0 0 0 0 0 0 0 0 0 0 0 0 43 0.002 
1082 1 0.0103067 0.10046 0.00421117 0 0 0 0.655259 0.479737 0.10085 0 -0.000164368 0 0 0 0 0 0 0 0 0 0 0 0 0 0 0 0 0 13 0.002 
1142 2 0.007114 0.104498 0.0054102 0 0 0 -0.211509 -0.271773 0.118519 0 -0.000164368 0 0 0 0 0 0 0 0 0 0 0 0 0 0 0 0 0 2 0.002 
601 8 0.00345587 0.0766761 0.00487901 0 0 0 -2.50258 0.44174 -1.16488 0 -0.000164368 0 0 0 0 0 0 0 0 0 0 0 0 0 0 0 0 0 32 0.002 
1115 2 0.00464527 0.0933194 0.00583715 0 0 0 0.0344302 3.12719 0.426207 0 -0.000164368 0 0 0 0 0 0 0 0 0 0 0 0 0 0 0 0 0 0 0.002 
326 4 0.0169305 0.101017 0.00730835 0 0 0 -0.754337 -0.371739 0.296379 0 -0.000164368 0 0 0 0 0 0 0 0 0 0 0 0 0 0 0 0 0 32 0.002 
627 2 0.00336693 0.103644 0.00758086 0 0 0 -0.641264 1.76237 1.00463 0 -0.000164368 0 0 0 0 0 0 0 0 0 0 0 0 0 0 0 0 0 36 0.002 
690 2 0.00383793 0.107436 0.00628645 0 0 0 0.146037 -0.116988 0.261138 0 -0.000164368 0 0 0 0 0 0 0 0 0 0 0 0 0 0 0 0 0 15 0.002 
789 5 0.0178374 0.0976365 0.00973225 0 0 0 -0.316844 -0.572857 0.848521 0 -0.000164368 0 0 0 0 0 0 0 0 0 0 0 0 0 0 0 0 0 25 0.002 
490 2 0.00905732 0.102347 0.00854678 0 0 0 -0.112116 2.14522 -0.132869 0 -0.000164368 0 0 0 0 0 0 0 0 0 0 0 0 0 0 0 0 0 54 0.002 
44 5 0.016409 0.0857792 -0.0211149 0 0 0 -6.17985 2.57444 -6.20858 0 -0.000164368 0 0 0 0 0 0 0 0 0 0 0 0 0 0 0 0 0 27 0.002 
650 3 0.0181736 0.0917111 -0.0218054 0 0 0 -1.29755 0.306134 -2.1069 0.175786 -0.148443 0.365037 0 0 0 1 0 0 0 0 0 0 0 0 0 0 0 0 28 0.002 
727 2 0.010562 0.0758439 -0.0240499 0 0 0 2.266 2.75318 -7.68258 0 -0.000164368 0 0 0 0 0 0 0 0 0 0 0 0 0 0 0 0 0 25 0.002 
1031 3 0.00422449 0.0785512 0.0107313 0 0 0 0.0315083 0.0507475 -0.32744 0 -0.000164368 0 0 0 0 0 0 0 0 0 0 0 0 0 0 0 0 0 11 0.002 
400 7 0.00931879 0.0827033 0.0115579 0 0 0 0.0397602 -0.130407 -0.391181 0.00714729 -0.0318859 0.00930563 0 0 0 0 0 0 1 0 0 0 0 0 0 0 0 0 36 0.002 
274 4 0.0157275 0.0841668 0.0104128 0 0 0 -0.360751 0.0444416 -0.806652 0 -0.000164368 0 0 0 0 0 0 0 0 0 0 0 0 0 0 0 0 0 33 0.002 
984 3 0.0159602 0.0931655 0.0107945 0 0 0 0.0116276 1.15613 0.939889 0 -0.000164368 0 0 0 0 0 0 0 0 0 0 0 0 0 0 0 0 0 18 0.002 
665 2 0.00318057 0.0942864 0.0103193 0 0 0 0.0159933 -0.185707 -0.0653809 0 -0.000164368 0 0 0 0 0 0 0 0 0 0 0 0 0 0 0 0 0 18 0.002 
103 5 0.0134754 0.103908 0.0101093 0 0 0 0.702758 1.04989 -0.348757 0 -0.000164368 0 0 0 0 0 0 0 0 0 0 0 0 0 0 0 0 0 36 0.002 
397 3 0.00708623 0.106924 0.0121584 0 0 0 -0.0132029 -0.125715 0.245499 0 -0.000164368 0 0 0 0 0 0 0 0 0 0 0 0 0 0 0 0 0 41 0.002 
863 1 0.0145613 0.0793655 0.0128859 0 0 0 -1.47273 0.992429 -0.580076 0 -0.000164368 0 0 0 0 0 0 0 0 0 0 0 0 0 0 0 0 0 11 0.002 
719 3 0.00368921 0.0885071 0.012476 0 0 0 -0.13445 0.0385421 -0.334451 0 -0.000164368 0 0 0 0 0 0 0 0 0 0 0 0 0 0 0 0 0 16 0.002 
1191 3 0.00859811 0.0865372 0.0122821 0 0 0 -0.118754 -0.177843 -0.0957031 -0.00714729 0.0315571 -0.00930563 0 0 0 0 0 0 1 0 0 0 0 0 0 0 0 0 1 0.002 
876 14 0.0179913 0.0899398 0.0136518 0 0 0 0.213048 0.442683 -0.0983238 0 -0.000164368 0 0 0 0 0 0 0 0 0 0 0 0 0 0 0 0 0 12 0.002 
892 5 0.00443288 0.0950002 0.0142211 0 0 0 -0.161441 -0.200763 -0.00209131 0 -0.000164368 0 0 0 0 0 0 0 0 0 0 0 0 0 0 0 0 0 12 0.002 
364 3 0.01041 0.0938714 0.014358 0 0 0 0.0936067 -0.173156 -0.0932405 0 -0.000164368 0 0 0 0 0 0 0 0 0 0 0 0 0 0 0 0 0 29 0.002 
300 1 0.0133721 0.10153 0.0145077 0 0 0 1.2615 2.27401 2.69096 0 -0.000164368 0 0 0 0 0 0 0 0 0 0 0 0 0 0 0 0 0 33 0.002 
553 7 0.0112579 0.106788 0.0124969 0 0 0 -0.0987269 0.878515 0.460293 0 -0.000164368 0 0 0 0 0 0 0 0 0 0 0 0 0 0 0 0 0 21 0.002 
699 9 0.00733348 0.0753857 0.014818 0 0 0 -0.425853 -0.430741 -0.257487 0 -0.000164368 0 0 0 0 0 0 0 0 0 0 0 0 0 0 0 0 0 18 0.002 
1116 4 0.00781513 0.080408 0.0165496 0 0 0 -0.0116281 -0.0405206 -0.387964 0 -0.000164368 0 0 0 0 0 0 0 0 0 0 0 0 0 0 0 0 0 14 0.002 
531 1 0.00407659 0.0843615 0.0150251 0 0 0 0.111977 0.888988 -0.34425 0 -0.000164368 0 0 0 0 0 0 0 0 0 0 0 0 0 0 0 0 0 48 0.002 
1153 8 0.0096866 0.0889286 0.0154024 0 0 0 -0.113511 -0.251737 -0.0820825 0.00199989 -7.86528e-05 -0.00107009 0 0 0 0 0 0 0 1 0 0 0 0 0 0 0 0 4 0.002 
176 2 0.0137348 0.0889365 0.0162107 0 0 0 -0.130762 -0.151391 -0.0700267 0 -0.000164368 0 0 0 0 0 0 0 0 0 0 0 0 0 0 0 0 0 26 0.002 
591 9 0.0151179 0.0934881 0.0161769 0 0 0 0.080038 -0.046956 -0.071743 0 -0.000164368 0 0 0 0 0 0 0 0 0 0 0 0 0 0 0 0 0 15 0.002 
1186 8 0.00303801 0.101733 0.0149789 0 0 0 -0.205646 -0.110985 0.0581847 0 -0.000164368 0 0 0 0 0 0 0 0 0 0 0 0 0 0 0 0 0 0 0.002 
881 1 0.00351232 0.107432 0.0158358 0 0 0 0.064449 -0.173595 0.039959 0 -0.000164368 0 0 0 0 0 0 0 0 0 0 0 0 0 0 0 0 0 24 0.002 
55 4 0.0091528 0.106375 0.0166209 0 0 0 -0.364994 -0.338868 -0.147453 0 -0.000164368 0 0 0 0 0 0 0 0 0 0 0 0 0 0 0 0 0 22 0.002 
1066 1 0.00341146 0.0799684 0.0171623 0 0 0 0.164198 0.421933 0.509515 -0.00810404 0.00221142 -0.0130894 1 0 0 0 0 0 0 0 0 0 0 0 0 0 0 0 22 0.002 
403 8 0.0144491 0.0796033 0.017835 0 0 0 0.0344761 -0.268807 -0.121483 0 -0.000164368 0 0 0 0 0 0 0 0 0 0 0 0 0 0 0 0 0 31 0.002 
742 3 0.0154939 0.0835713 0.0179806 0 0 0 -0.00972612 -0.224122 -0.0838512 0 -0.000164368 0 0 0 0 0 0 0 0 0 0 0 0 0 0 0 0 0 21 0.002 
338 6 0.00826655 0.0845023 0.016816 0 0 0 -0.0794099 -0.133296 -0.242785 0 -0.000164368 0 0 0 0 0 0 0 0 0 0 0 0 0 0 0 0 0 28 0.002 
954 5 0.0123134 0.0858963 0.018695 0 0 0 -0.050234 -0.283533 -0.100071 0 -0.000164368 0 0 0 0 0 0 0 0 0 0 0 0 0 0 0 0 0 18 0.002 
321 7 0.00633317 0.0887021 0.0175642 0 0 0 -0.0640101 -0.274119 -0.0626604 0.00236452 -0.00053992 8.25763e-05 0 0 0 0 0 0 1 1 0 0 0 0 0 0 0 0 23 0.002 
459 5 0.0169137 0.0899117 0.0189669 0 0 0 -0.110549 -0.0359298 -0.0625294 0.00133219 -0.0010159 -0.000531624 0 0 0 0 1 0 0 0 0 0 0 0 0 0 0 0 23 0.002 
425 1 0.00336886 0.0934702 0.0177683 0 0 0 0.023346 -0.0769561 -0.0484913 0 -0.000164368 0 0 0 0 0 0 0 0 0 0 0 0 0 0 0 0 0 37 0.002 
287 6 0.00899515 0.0923369 0.0185802 0 0 0 0.012355 -0.29382 -0.0671106 0 -0.000164368 0 0 0 0 0 0 0 0 0 0 0 0 0 0 0 0 0 28 0.002 
534 13 0.00299991 0.0974155 0.0170733 0 0 0 0.00133166 -0.0668178 -0.0151539 -2.85525e-05 -0.000171952 1.20954e-05 0 0 0 0 0 0 0 0 0 0 0 0 0 0 0 0 33 0.002 
140 4 0.0159908 0.0973163 0.0176954 0 0 0 0.301755 -0.446343 -0.48647 0 -0.000164368 0 0 0 0 0 0 0 0 0 0 0 0 0 0 0 0 0 30 0.002 
606 4 0.0047142 0.100772 0.0186872 0 0 0 0.10863 -0.108498 0.0194787 0 -0.000164368 0 0 0 0 0 0 0 0 0 0 0 0 0 0 0 0 0 41 0.002 
503 7 0.0108613 0.0773362 0.0197767 0 0 0 -0.0714921 0.00471976 -0.168766 0 -0.000164368 0 0 0 0 0 0 0 0 0 0 0 0 0 0 0 0 0 24 0.002 
1147 9 0.00531513 0.0776729 0.0198164 0 0 0 -0.0657718 0.0658217 -0.00990439 0.00810404 -0.00254016 0.0130894 1 0 0 0 0 0 0 0 0 0 0 0 0 0 0 0 5 0.002 
657 3 0.0108489 0.0814995 0.0194466 0 0 0 -0.0389119 -0.015875 -0.19967 0 -0.000164368 0 0 0 0 0 0 0 0 0 0 0 0 0 0 0 0 0 25 0.002 
128 4 0.00597087 0.0826173 0.0195046 0 0 0 0.0631585 -0.199179 -0.117945 0 -0.000164368 0 0 0 0 0 0 0 0 0 0 0 0 0 0 0 0 0 32 0.002 
792 2 0.00299754 0.0855856 0.0197388 0 0 0 -0.0108287 -0.149231 -0.0427479 0.00267229 0.00108241 0.000480447 0 0 0 0 0 0 0 0 0 0 0 0 0 0 0 0 16 0.002 
1155 5 0.00957813 0.0884886 0.0200591 0 0 0 -0.060564 -0.316731 -0.00272095 0 -0.000164368 0 0 0 0 0 0 0 0 0 0 0 0 0 0 0 0 0 3 0.002 
904 3 0.00299371 0.0896867 0.0195195 0 0 0 0.0382385 -0.0910078 -0.0336727 -2.57906e-05 -0.00170692 -0.00129791 0 0 0 0 0 0 1 0 0 0 0 0 0 0 0 0 12 0.002 
910 15 0.0133166 0.0901172 0.0206875 0 0 0 -0.152733 -0.231386 -0.0127984 0.00695715 -0.000548977 -0.00595022 0 0 0 0 1 0 0 0 0 0 0 0 0 0 1 0 20 0.002 
554 3 0.00564212 0.0958655 0.0203484 0 0 0 0.0766696 -0.185452 -0.0386193 0 -0.000164368 0 0 0 0 0 0 0 0 0 0 0 0 0 0 0 0 0 16 0.002 
1188 4 0.0157341 0.093796 0.0201996 0 0 0 -0.0655992 -0.318806 0.085933 -0.000428756 0.00657129 -0.0130103 0 0 0 1 0 0 0 0 0 0 0 0 0 0 0 0 3 0.002 
1192 2 0.0105853 0.0963016 0.0198934 0 0 0 0.00938448 -0.269898 0.0143849 0 -0.000164368 0 0 0 0 0 0 0 0 0 0 0 0 0 0 0 0 0 0 0.002 
877 4 0.00923246 0.10268 0.0198899 0 0 0 0.113902 -0.461358 0.560609 0 -0.000164368 0 0 0 0 0 0 0 0 0 0 0 0 0 0 0 0 0 17 0.002 
1075 3 0.0175866 0.100834 0.0207618 0 0 0 -0.250415 0.13562 0.419547 0.000351896 0.00163097 -0.00236946 0 0 1 0 0 0 0 0 0 0 0 0 0 0 0 0 8 0.002 
923 10 0.00318982 0.106101 0.0199912 0 0 0 0.1315 -0.0463238 0.115452 0 -0.000164368 0 0 0 0 0 0 0 0 0 0 0 0 0 0 0 0 0 13 0.002 
1185 6 0.00695349 0.107846 0.0202297 0 0 0 0.107343 0.263558 0.468068 0 -0.000164368 0 0 0 0 0 0 0 0 0 0 0 0 0 0 0 0 0 1 0.002 
368 5 0.0159614 0.0750907 0.0223406 0 0 0 -0.290991 -0.0143532 -0.0118833 0.00809834 -0.00756146 -0.00222035 0 0 0 0 4 0 0 0 0 0 0 0 0 0 0 0 37 0.002 
979 4 0.00804196 0.0772821 0.0227286 0 0 0 -0.000634727 -0.264493 -0.101745 0 -0.000164368 0 0 0 0 0 0 0 0 0 0 0 0 0 0 0 0 0 21 0.002 
862 3 0.0145533 0.0787313 0.023 0 0 0 -0.201054 0.0090941 0.0973714 -0.0165219 0.0417825 0.00927321 0 0 0 0 1 0 0 0 0 0 0 0 0 0 0 0 22 0.002 
888 1 0.0183185 0.0782058 0.0216383 0 0 0 -0.17139 -0.0364275 -0.00756924 0.0065733 0.0133021 -0.0059995 1 0 0 0 1 0 0 0 0 0 0 0 0 0 0 0 26 0.002 
1098 3 0.00332002 0.0803988 0.0222624 0 0 0 0.118953 -0.0106439 0.0408918 0.000276876 -0.000352775 -0.000539642 0 0 1 0 0 0 0 0 0 0 0 0 0 0 0 0 12 0.002 
299 1 0.00855856 0.0828742 0.022806 0 0 0 -0.0831056 -0.105604 -0.032782 9.15593e-05 -0.000305295 -0.000264231 1 0 0 0 0 0 0 0 0 0 0 0 0 0 0 0 32 0.002 
475 2 0.0138226 0.0829211 0.0217797 0 0 0 -0.0452731 -0.308913 -0.0287753 0 -0.000164368 0 0 0 0 0 0 0 0 0 0 0 0 0 0 0 0 0 30 0.002 
1026 6 0.0178215 0.0822559 0.0216238 0 0 0 -0.034971 -0.264971 -0.00366856 -0.000241267 -0.000287845 0.000117422 0 0 0 0 0 1 0 0 0 0 0 0 0 0 0 0 26 0.002 
579 8 0.00631841 0.0860882 0.0219184 0 0 0 -0.0388983 -0.0716039 -0.00777415 0 -0.000164368 0 0 0 0 0 0 0 0 0 0 0 0 0 0 0 0 0 38 0.002 
16 3 0.0121696 0.0866311 0.0226632 0 0 0 -0.0317035 -0.306789 -0.0694877 0 -0.000164368 0 0 0 0 0 0 0 0 0 0 0 0 0 0 0 0 0 44 0.002 
751 3 0.0160677 0.0866478 0.0217206 0 0 0 -0.0287105 -0.22544 0.0188986 0 -0.000164368 0 0 0 0 0 0 0 0 0 0 0 0 0 0 0 0 0 26 0.002 
730 3 0.0064206 0.0905259 0.0214433 0 0 0 -0.0511663 -0.226459 -0.0838485 0 -0.000164368 0 0 0 0 0 0 0 0 0 0 0 0 0 0 0 0 0 17 0.002 
1077 1 0.00301623 0.0931671 0.0218264 0 0 0 0.00915714 -0.14422 -0.0153048 0 -0.000164368 0 0 0 0 0 0 0 0 0 0 0 0 0 0 0 0 0 7 0.002 
543 1 0.010136 0.0917616 0.0224429 0 0 0 -0.105958 -0.271125 -0.0104426 -0.00828934 0.00107178 0.00648185 0 0 0 0 0 0 0 0 0 0 0 0 0 0 1 0 35 0.002 
402 1 0.0176198 0.0921213 0.0232887 0 0 0 -0.0427838 -0.164957 -0.00726059 -0.00264175 0.00384711 0.00366172 2 0 0 1 0 0 0 0 0 0 0 0 0 0 0 0 37 0.002 
631 1 0.0136992 0.0958653 0.02338 0 0 0 -0.106514 -0.346599 0.0526795 0 -0.000164368 0 0 0 0 0 0 0 0 0 0 0 0 0 0 0 0 0 36 0.002 
192 7 0.00337553 0.0994665 0.0222416 0 0 0 0.071457 -0.0381028 0.0318701 0 -0.000164368 0 0 0 0 0 0 0 0 0 0 0 0 0 0 0 0 0 39 0.002 
762 6 0.00736233 0.0988521 0.0224194 0 0 0 0.0284533 -0.233133 0.0670011 0 -0.000164368 0 0 0 0 0 0 0 0 0 0 0 0 0 0 0 0 0 30 0.002 
1090 12 0.0130492 0.0997451 0.0220207 0 0 0 -0.0545211 -0.307152 0.0363534 0 -0.000164368 0 0 0 0 0 0 0 0 0 0 0 0 0 0 0 0 0 5 0.002 
230 6 0.00661973 0.102997 0.023035 0 0 0 0.0139267 -0.219986 0.346306 -3.96287e-05 -0.000120106 2.40572e-05 0 0 0 0 0 1 0 0 0 0 0 0 0 0 0 0 42 0.002 
786 1 0.0155696 0.103526 0.0231869 0 0 0 0.0265513 -0.0320637 0.025144 0 -0.000164368 0 0 0 0 0 0 0 0 0 0 0 0 0 0 0 0 0 29 0.002 
1123 3 0.0101385 0.106236 0.0221549 0 0 0 -0.00167402 -0.156795 0.161254 0 -0.000164368 0 0 0 0 0 0 0 0 0 0 0 0 0 0 0 0 0 0 0.002 
928 2 0.0148415 0.107464 0.0221415 0 0 0 -0.197682 -0.118078 0.272996 0 -0.000164368 0 0 0 0 0 0 0 0 0 0 0 0 0 0 0 0 0 20 0.002 
1111 4 0.00426185 0.0771601 0.0244888 0 0 0 -0.0789952 -0.177236 -0.0326957 0.00115342 0.000468311 0.00116653 0 0 0 1 0 0 0 0 0 0 0 0 0 0 0 0 10 0.002 
703 3 0.0112238 0.0758956 0.0249441 0 0 0 -0.116641 -0.124706 -0.122901 -0.0402529 0.0235742 -0.0148635 0 0 0 0 0 0 0 0 0 0 0 0 0 0 0 0 23 0.002 
26 9 0.0183066 0.0769374 0.0256318 0 0 0 -0.12937 -0.126018 0.142195 -0.000382351 -0.000647406 0.000361344 0 0 0 0 0 0 0 0 1 0 0 0 0 0 0 0 36 0.002 
769 5 0.00699528 0.080145 0.0256573 0 0 0 -0.0650254 -0.249771 -0.121977 0.000209572 -9.80082e-05 9.62719e-05 0 0 0 0 1 0 0 0 0 0 0 0 0 0 0 0 27 0.002 
1011 6 0.0108453 0.0798559 0.0242517 0 0 0 -0.120837 -0.18617 -0.00594324 0 -0.000164368 0 0 0 0 0 0 0 0 0 0 0 0 0 0 0 0 0 13 0.002 
1024 5 0.0120086 0.083546 0.0252905 0 0 0 -0.0159113 -0.196579 -0.0440214 0 -0.000164368 0 0 0 0 0 0 0 0 0 0 0 0 0 0 0 0 0 9 0.002 
1064 5 0.0160179 0.0839052 0.0250547 0 0 0 0.00897948 -0.249021 -0.0493508 0.000201097 0.000927778 -4.31613e-05 0 0 0 0 3 0 0 0 0 0 0 0 0 0 0 0 17 0.002 
183 9 0.0030117 0.0844833 0.0237804 0 0 0 0.0473723 -0.0394989 0.0839322 0 -0.000164368 0 0 0 0 0 0 0 0 0 0 0 0 0 0 0 0 0 31 0.002 
65 2 0.00300312 0.0885515 0.0235724 0 0 0 -0.0175883 0.120365 -0.0526337 -0.00049095 -0.000333675 -6.15462e-05 0 1 0 0 0 0 0 0 0 0 0 0 0 0 0 0 24 0.002 
206 6 0.00666093 0.0884071 0.0251815 0 0 0 -0.0578771 -0.0820611 0.000609102 0.000482654 1.47119e-05 5.92922e-05 0 1 0 0 0 1 0 0 0 0 0 0 0 0 0 0 44 0.002 
301 5 0.00692636 0.0924151 0.025049 0 0 0 0.0061173 -0.156747 -0.0913563 0 -0.000164368 0 0 0 0 0 0 0 0 0 0 0 0 0 0 0 0 0 42 0.002 