ITEM: TIMESTEP
9750000
ITEM: NUMBER OF ATOMS
1197
ITEM: BOX BOUNDS ff ff ff
-0.01 0.45
-0.15 0.15
-0.08 0.1
ITEM: ATOMS id type x y z ix iy iz vx vy vz fx fy fz c_cc_1 c_cc_2 c_cc_3 c_cc_4 c_cc_5 c_cc_6 c_cc_7 c_cc_8 c_cc_9 c_cc_10 c_cc_11 c_cc_12 c_cc_13 c_cc_14 c_cc_15 c_cc_16 f_fppacc radius 
232 7 0.0185613 -0.0570121 -0.00845354 0 0 0 -0.0963309 -1.41193 10.6395 0 -0.000164368 0 0 0 0 0 0 0 0 0 0 0 0 0 0 0 0 0 7 0.002 
510 9 0.00465124 -0.01922 0.0542221 0 0 0 0.0534557 4.10541 1.25786 0 -0.000164368 0 0 0 0 0 0 0 0 0 0 0 0 0 0 0 0 0 63 0.002 
1067 10 0.00623671 -0.0081523 0.053087 0 0 0 0.710728 0.110275 -2.86308 -0.042288 -0.285797 -0.215604 0 0 0 0 0 0 0 0 0 1 0 0 0 0 0 0 7 0.002 
430 4 0.00723247 -0.00647471 0.056341 0 0 0 1.12676 -3.5981 1.46077 0.042288 0.285468 0.215604 0 0 0 0 0 0 0 0 0 1 0 0 0 0 0 0 39 0.002 
1196 5 0.0148649 -0.0297933 0.0496814 0 0 0 -9.92747 40.5708 27.3776 0.00554464 0.383183 -0.531403 0 0 0 0 0 0 0 0 0 0 0 0 0 0 0 0 0 0.002 
296 2 0.00415819 0.0282525 -0.0433587 0 0 0 0.988389 -3.08808 -4.55996 0 -0.000164368 0 0 0 0 0 0 0 0 0 0 0 0 0 0 0 0 0 20 0.002 
122 5 0.0115045 0.0170554 -0.0317169 0 0 0 0.230336 -1.84912 -0.60815 0 -0.000164368 0 0 0 0 0 0 0 0 0 0 0 0 0 0 0 0 0 49 0.002 
214 8 0.00891022 0.033867 -0.0188179 0 0 0 0.562945 -2.59834 1.06937 0 -0.000164368 0 0 0 0 0 0 0 0 0 0 0 0 0 0 0 0 0 7 0.002 
1202 4 0.015567 0.015086 0.0394473 0 0 0 0.854024 -2.71031 3.41311 0 -0.000164368 0 0 0 0 0 0 0 0 0 0 0 0 0 0 0 0 0 0 0.002 
978 1 0.00930016 0.0285246 0.0476934 0 0 0 2.37545 -2.01193 1.97413 0 -0.000164368 0 0 0 0 0 0 0 0 0 0 0 0 0 0 0 0 0 17 0.002 
41 1 0.015124 0.0528566 -0.0355 0 0 0 2.91116e-230 -8.12383e-20 1.12852e-12 -2.21475e-230 -1.35525e-20 0 0 0 0 0 0 0 0 0 0 0 0 0 0 0 0 0 2 0.002 
316 2 0.0132009 0.0524866 -0.0316785 0 0 0 0.888183 -1.56633 0.746205 0 -0.000164368 0 0 0 0 0 0 0 0 0 0 0 0 0 0 0 0 0 26 0.002 
1218 8 0.0184009 0.0700798 -0.028126 0 0 0 6.0724 -7.14762 2.88385 0 -0.000164368 0 0 0 0 0 0 0 0 0 0 0 0 0 0 0 0 0 0 0.002 
1210 2 0.0173589 0.0481056 -0.0333331 0 0 0 6.68169 -1.76247 -6.66043 -0.158949 -2.31415 2.15217 0 0 0 0 0 0 0 0 0 0 0 0 0 0 0 0 0 0.002 
659 4 0.00489555 0.0519873 -0.0270861 0 0 0 1.81005 4.53465 -3.13662 0 -0.000164368 0 0 0 0 0 0 0 0 0 0 0 0 0 0 0 0 0 14 0.002 
633 6 0.0081275 0.0737026 -0.0179876 0 0 0 -2.33484 0.0831564 -1.25158 0 -0.000164368 0 0 0 0 0 0 0 0 0 0 0 0 0 0 0 0 0 35 0.002 
915 9 0.00455646 0.0712558 -0.0155661 0 0 0 -2.25897 0.815623 -3.01467 0 -0.000164368 0 0 0 0 0 0 0 0 0 0 0 0 0 0 0 0 0 30 0.002 
492 4 0.00672975 0.0604991 -0.0010454 0 0 0 -0.153875 -0.59421 -0.980813 0 -0.000164368 0 0 0 0 0 0 0 0 0 0 0 0 0 0 0 0 0 25 0.002 
507 6 0.0176814 0.0673162 0.00941885 0 0 0 -0.759614 0.569778 -1.11081 0 -0.000164368 0 0 0 0 0 0 0 0 0 0 0 0 0 0 0 0 0 33 0.002 
1217 4 0.0172373 0.0615302 -0.0258423 0 0 0 -5.69591 -3.34488 -10.8124 0 -0.000164368 0 0 0 0 0 0 0 0 0 0 0 0 0 0 0 0 0 0 0.002 
796 15 0.0174138 0.0593177 0.0129376 0 0 0 2.54219 -0.750383 -2.73567 0 -0.000164368 0 0 0 0 0 0 0 0 0 0 0 0 0 0 0 0 0 30 0.002 
472 3 0.0154501 0.0696502 0.0129482 0 0 0 0.491056 2.95993 -2.11996 0 -0.000164368 0 0 0 0 0 0 0 0 0 0 0 0 0 0 0 0 0 34 0.002 
526 2 0.00973259 0.0685357 0.0167304 0 0 0 -0.121231 0.122678 -0.576113 0 -0.000164368 0 0 0 0 0 0 0 0 0 0 0 0 0 0 0 0 0 22 0.002 
368 5 0.0179331 0.0727402 0.018022 0 0 0 0.0842033 -0.157624 -0.14077 4.13748e-05 4.91517e-05 0.00011395 0 0 0 0 1 0 0 0 0 0 0 0 0 0 0 0 38 0.002 
1134 2 0.00329444 0.0640658 0.0202219 0 0 0 0.127209 -1.36691 0.241064 0 -0.000164368 0 0 0 0 0 0 0 0 0 0 0 0 0 0 0 0 0 1 0.002 
729 9 0.00483308 0.0730058 0.0191999 0 0 0 0.321938 -0.207371 -0.441898 0 -0.000164368 0 0 0 0 0 0 0 0 0 0 0 0 0 0 0 0 0 28 0.002 
69 6 0.0123888 0.0732929 0.0201068 0 0 0 0.148866 -0.196362 -0.180641 0 -0.000164368 0 0 0 0 0 0 0 0 0 0 0 0 0 0 0 0 0 32 0.002 
33 2 0.0126436 0.0410524 0.0259382 0 0 0 -3.30017 -7.1373 9.02445 0 -0.000164368 0 0 0 0 0 0 0 0 0 0 0 0 0 0 0 0 0 6 0.002 
524 5 0.014827 0.0686855 0.0220814 0 0 0 0.27988 -0.377697 -0.548638 0 -0.000164368 0 0 0 0 0 0 0 0 0 0 0 0 0 0 0 0 0 35 0.002 
907 8 0.00461681 0.0714954 0.0229357 0 0 0 0.289881 -0.223896 -0.426302 0 -0.000164368 0 0 0 0 0 0 0 0 0 0 0 0 0 0 0 0 0 21 0.002 
993 8 0.00827952 0.0743518 0.0227462 0 0 0 -0.112101 -0.0105879 -0.121758 0 -0.000164368 0 0 0 0 0 0 0 0 0 0 0 0 0 0 0 0 0 26 0.002 
654 3 0.0155568 0.0748033 0.0222012 0 0 0 0.272063 -0.21189 -0.152278 0 -0.000164368 0 0 0 0 0 0 0 0 0 0 0 0 0 0 0 0 0 43 0.002 
161 8 0.0126579 0.0542377 0.0243929 0 0 0 -0.605933 -0.305697 -1.26981 0 -0.000164368 0 0 0 0 0 0 0 0 0 0 0 0 0 0 0 0 0 53 0.002 
199 4 0.00434131 0.0618873 0.0248015 0 0 0 0.358067 0.043482 -0.256542 0 -0.000164368 0 0 0 0 0 0 0 0 0 0 0 0 0 0 0 0 0 44 0.002 
773 5 0.0173779 0.0636528 0.0249026 0 0 0 0.273949 -0.371839 0.102807 0 -0.000164368 0 0 0 0 0 0 0 0 0 0 0 0 0 0 0 0 0 18 0.002 
976 5 0.00598891 0.0672185 0.0237035 0 0 0 0.437371 -0.364363 0.189024 0 -0.000164368 0 0 0 0 0 0 0 0 0 0 0 0 0 0 0 0 0 9 0.002 
854 2 0.0112551 0.0669096 0.0252382 0 0 0 0.368733 0.0757042 -0.29379 0 -0.000164368 0 0 0 0 0 0 0 0 0 0 0 0 0 0 0 0 0 25 0.002 
348 6 0.0163184 0.0593373 0.0273004 0 0 0 0.538169 -0.894108 -0.0375463 0 -0.000164368 0 0 0 0 0 0 0 0 0 0 0 0 0 0 0 0 0 42 0.002 
895 10 0.00305475 0.0663042 0.0269787 0 0 0 0.0192794 0.230548 0.0227344 0 -0.000164368 0 0 0 0 0 0 0 0 0 0 0 0 0 0 0 0 0 40 0.002 
288 1 0.0117191 0.0724617 0.0275879 0 0 0 -0.154813 -0.159004 -0.186832 -0.000112994 0.000374938 0.000259058 1 0 0 0 0 0 0 0 0 0 0 0 0 0 0 0 33 0.002 
707 2 0.015305 0.0704126 0.0271953 0 0 0 -0.0913549 0.222496 -0.0261837 -0.00296689 0.00184944 -0.00707354 0 1 0 0 0 0 0 0 0 0 0 0 0 0 0 0 51 0.002 
1111 4 0.00614689 0.0742593 0.026973 0 0 0 -0.0292791 -0.168776 -0.0959033 -0.000450974 -0.00104446 -0.00028299 0 0 0 1 0 0 0 0 0 0 0 0 0 0 0 0 12 0.002 
945 9 0.00962869 0.0577272 0.0295377 0 0 0 -0.0549305 -0.328679 -0.186591 0 -0.000164368 0 0 0 0 0 0 0 0 0 0 0 0 0 0 0 0 0 13 0.002 
438 2 0.00351585 0.0595025 0.0293648 0 0 0 0.188998 0.156482 -0.937356 0 -0.000164368 0 0 0 0 0 0 0 0 0 0 0 0 0 0 0 0 0 37 0.002 
471 5 0.00739729 0.0637757 0.0283542 0 0 0 0.402591 0.506543 -0.158216 -0.00925927 0.00461116 -0.00524296 0 0 0 0 1 0 0 0 0 0 0 0 0 0 0 0 40 0.002 
399 3 0.0109598 0.0639332 0.030152 0 0 0 0.119492 -0.109154 0.0227491 0.00925927 -0.00493989 0.00524296 0 0 0 0 1 0 0 0 0 0 0 0 0 0 0 0 36 0.002 
308 1 0.00639748 0.0678146 0.0294051 0 0 0 0.0680068 0.244143 0.162363 0.000536931 -0.0943432 -0.0313596 1 0 0 0 0 0 0 0 0 0 0 0 0 0 0 0 54 0.002 
624 7 0.0116106 0.0689322 0.0296235 0 0 0 -0.00347487 -0.052481 -0.0522821 0 -0.000164368 0 0 0 0 0 0 0 0 0 0 0 0 0 0 0 0 0 32 0.002 
589 5 0.0180677 0.068567 0.0293874 0 0 0 0.0241565 -0.0111805 -0.0704141 0.00296689 -0.00217818 0.00707354 0 1 0 0 0 0 0 0 0 0 0 0 0 0 0 0 32 0.002 
811 5 0.0030222 0.0715696 0.0280678 0 0 0 0.0154574 -0.204718 -0.180901 0 -0.000164368 0 0 0 0 0 0 0 0 0 0 0 0 0 0 0 0 0 30 0.002 
58 1 0.00779269 0.0715186 0.029626 0 0 0 -0.0247486 0.0492353 0.0297255 -0.0159249 0.0478856 0.0041213 2 0 0 0 0 0 0 0 0 0 0 0 0 0 0 0 41 0.002 
513 4 0.0168202 0.0737302 0.0297228 0 0 0 -0.0562433 -0.101307 -0.0474583 0 -0.000164368 0 0 0 0 0 0 0 0 0 0 0 0 0 0 0 0 0 43 0.002 
924 7 0.0149171 0.0550053 0.0300392 0 0 0 0.121649 -0.0357812 -0.700372 0 -0.000164368 0 0 0 0 0 0 0 0 0 0 0 0 0 0 0 0 0 16 0.002 
1021 3 0.00303978 0.068702 0.0319817 0 0 0 0.0120165 -0.16196 0.0129761 0 -0.000164368 0 0 0 0 0 0 0 0 0 0 0 0 0 0 0 0 0 14 0.002 
768 6 0.00811948 0.0529666 0.0328543 0 0 0 0.428591 -0.734629 -0.0531403 0 -0.000164368 0 0 0 0 0 0 0 0 0 0 0 0 0 0 0 0 0 18 0.002 
297 3 0.00360112 0.0539016 0.0324533 0 0 0 -0.355683 -0.0578924 -0.235385 0 -0.000164368 0 0 0 0 0 0 0 0 0 0 0 0 0 0 0 0 0 42 0.002 
662 1 0.00692925 0.0596047 0.032588 0 0 0 0.0352828 -0.371212 0.0779779 0 -0.000164368 0 0 0 0 0 0 0 0 0 0 0 0 0 0 0 0 0 32 0.002 
821 3 0.0133777 0.0588031 0.0328846 0 0 0 -0.202545 -0.453495 -0.0667001 0 -0.000164368 0 0 0 0 0 0 0 0 0 0 0 0 0 0 0 0 0 17 0.002 
237 10 0.0179425 0.0586444 0.032855 0 0 0 0.228534 -0.687511 -0.305816 0 -0.000164368 0 0 0 0 0 0 0 0 0 0 0 0 0 0 0 0 0 44 0.002 
263 2 0.00303861 0.0626298 0.0327103 0 0 0 0.0279887 -0.056299 -0.155548 0 -0.000164368 0 0 0 0 0 0 0 0 0 0 0 0 0 0 0 0 0 31 0.002 
463 9 0.00610732 0.0653855 0.0329903 0 0 0 0.047905 -0.216896 -0.00333158 0 -0.000164368 0 0 0 0 0 0 0 0 0 0 0 0 0 0 0 0 0 38 0.002 
121 2 0.0139582 0.0643128 0.0330009 0 0 0 0.231352 -0.189311 -0.00290641 -0.00528117 -0.00179995 0.000436188 0 1 0 0 0 0 0 0 0 0 0 0 0 0 0 0 41 0.002 
882 3 0.010183 0.0669285 0.0329285 0 0 0 0.0555899 -0.112969 -0.0518598 0 -0.000164368 0 0 0 0 0 0 0 0 0 0 0 0 0 0 0 0 0 23 0.002 
404 6 0.01681 0.0671063 0.0329264 0 0 0 0.00541923 -0.0151491 -0.0364028 -0.0119724 0.0135521 0.00691806 0 1 0 0 0 0 0 0 0 0 0 0 0 0 0 0 25 0.002 
1046 3 0.00688935 0.0695045 0.0329604 0 0 0 0.0207405 0.0155071 0.0874415 0.00521255 0.0377886 0.0280317 2 0 0 0 0 0 0 0 0 0 0 0 0 0 0 0 10 0.002 
165 4 0.0138653 0.0699116 0.0328435 0 0 0 0.0309457 -0.129821 -0.0354637 -0.00607254 -0.0022581 -7.55893e-05 0 0 0 1 0 0 0 0 0 0 0 0 0 0 0 0 32 0.002 
577 2 0.010344 0.0718722 0.0329436 0 0 0 0.0726172 -0.109961 0.0155507 0 -0.000164368 0 0 0 0 0 0 0 0 0 0 0 0 0 0 0 0 0 24 0.002 
874 1 0.0175646 0.0713993 0.032988 0 0 0 0.0127693 -0.132629 -0.00754949 0.00599201 0.0018225 3.0137e-05 1 0 0 1 0 0 0 0 0 0 0 0 0 0 0 0 27 0.002 
625 3 0.00306965 0.0730299 0.0326125 0 0 0 0.0432828 -0.0436055 -0.0600915 0 -0.000164368 0 0 0 0 0 0 0 0 0 0 0 0 0 0 0 0 0 20 0.002 
934 1 0.00701365 0.0741554 0.0328484 0 0 0 0.104121 -0.0155129 -0.0276299 0 -0.000164368 0 0 0 0 0 0 0 0 0 0 0 0 0 0 0 0 0 28 0.002 
104 1 0.0144028 0.0739518 0.0329882 0 0 0 -0.00568639 -0.128904 -0.0104443 0 -0.000164368 0 0 0 0 0 0 0 0 0 0 0 0 0 0 0 0 0 22 0.002 
126 2 0.0169996 0.0469742 0.031546 0 0 0 -0.23583 6.99876 -7.97611 0 -0.000164368 0 0 0 0 0 0 0 0 0 0 0 0 0 0 0 0 0 24 0.002 
1220 2 0.0136498 0.0423663 0.0394687 0 0 0 0.446863 22.1837 -26.6534 -0.20163 -0.447502 -0.457497 0 0 0 0 0 0 0 0 0 0 0 0 0 0 0 0 0 0.002 
1213 1 0.00367246 0.0894611 -0.0328728 0 0 0 0.0777956 1.58307 0.456516 0 -0.000164368 0 0 0 0 0 0 0 0 0 0 0 0 0 0 0 0 0 0 0.002 
538 1 0.0134571 0.0957803 -0.0320062 0 0 0 0.681157 0.152407 -0.333024 0 -0.000164368 0 0 0 0 0 0 0 0 0 0 0 0 0 0 0 0 0 27 0.002 
678 9 0.00348036 0.0973824 -0.0318465 0 0 0 0.187896 -0.266094 -0.339669 0 -0.000164368 0 0 0 0 0 0 0 0 0 0 0 0 0 0 0 0 0 29 0.002 
645 2 0.00934425 0.0976759 -0.031801 0 0 0 -0.0410567 -0.168356 0.147765 0.00593697 0.0085416 -0.00705904 0 1 0 0 0 0 0 0 0 0 0 0 0 0 0 0 31 0.002 
814 13 0.00628861 0.100333 -0.0329493 0 0 0 0.119893 0.048343 -0.216491 0 -0.000164368 0 0 0 0 0 0 0 0 0 0 0 0 0 0 0 0 0 35 0.002 
562 3 0.0136982 0.101385 -0.0326849 0 0 0 -0.00954824 -0.189222 0.155704 0 -0.000164368 0 0 0 0 0 0 0 0 0 0 0 0 0 0 0 0 0 23 0.002 
836 4 0.0034536 0.103844 -0.0324785 0 0 0 -0.015676 -0.0704959 0.0882813 0 -0.000164368 0 0 0 0 0 0 0 0 0 0 0 0 0 0 0 0 0 27 0.002 
1093 3 0.011786 0.105228 -0.0329502 0 0 0 0.0451723 -0.100253 0.00691229 0 -0.000164368 0 0 0 0 0 0 0 0 0 0 0 0 0 0 0 0 0 11 0.002 
1154 12 0.00741273 0.107023 -0.0329841 0 0 0 0.105465 0.0897715 0.00559251 0 -0.000164368 0 0 0 0 0 0 0 0 0 0 0 0 0 0 0 0 0 2 0.002 
598 1 0.003086 0.107843 -0.0329116 0 0 0 0.025044 -0.0622992 0.0293581 0 -0.000164368 0 0 0 0 0 0 0 0 0 0 0 0 0 0 0 0 0 31 0.002 
356 7 0.00965518 0.0930254 -0.0305357 0 0 0 0.163785 0.0890513 0.416979 0 -0.000164368 0 0 0 0 0 0 0 0 0 0 0 0 0 0 0 0 0 45 0.002 
938 2 0.0122321 0.107577 -0.0294155 0 0 0 0.159066 -0.0936514 0.0229666 0 -0.000164368 0 0 0 0 0 0 0 0 0 0 0 0 0 0 0 0 0 8 0.002 
396 3 0.0158857 0.105837 -0.0312877 0 0 0 0.160162 -0.234977 0.0039989 0 -0.000164368 0 0 0 0 0 0 0 0 0 0 0 0 0 0 0 0 0 48 0.002 
512 7 0.0133722 0.0816183 -0.0270805 0 0 0 1.11369 0.694074 0.972651 0 -0.000164368 0 0 0 0 0 0 0 0 0 0 0 0 0 0 0 0 0 30 0.002 
879 4 0.00301365 0.0953748 -0.0269358 0 0 0 0.0778295 0.289079 0.129695 0 -0.000164368 0 0 0 0 0 0 0 0 0 0 0 0 0 0 0 0 0 22 0.002 
274 4 0.00803895 0.0961658 -0.028339 0 0 0 1.62702 1.21508 1.03454 -0.00593697 -0.00887034 0.00705904 0 1 0 0 0 0 0 0 0 0 0 0 0 0 0 0 34 0.002 
1120 6 0.0127086 0.0974618 -0.0281335 0 0 0 0.087611 -0.244756 -0.446231 0 -0.000164368 0 0 0 0 0 0 0 0 0 0 0 0 0 0 0 0 0 2 0.002 
1156 1 0.0059728 0.0997691 -0.0289878 0 0 0 -0.172182 0.274157 -0.0456683 0 -0.000164368 0 0 0 0 0 0 0 0 0 0 0 0 0 0 0 0 0 3 0.002 
584 8 0.00752247 0.103687 -0.0285585 0 0 0 0.166756 0.918964 0.23821 0 -0.000164368 0 0 0 0 0 0 0 0 0 0 0 0 0 0 0 0 0 41 0.002 
1174 9 0.0143644 0.103952 -0.0271022 0 0 0 0.310932 -0.0106362 0.290159 0 -0.000164368 0 0 0 0 0 0 0 0 0 0 0 0 0 0 0 0 0 1 0.002 
960 3 0.00314021 0.107639 -0.0276102 0 0 0 0.0249387 0.0483951 0.118391 0 -0.000164368 0 0 0 0 0 0 0 0 0 0 0 0 0 0 0 0 0 12 0.002 
638 6 0.00740486 0.107756 -0.0288182 0 0 0 0.138826 -0.09147 0.0833399 0 -0.000164368 0 0 0 0 0 0 0 0 0 0 0 0 0 0 0 0 0 23 0.002 
635 4 0.0164278 0.107576 0.00888483 0 0 0 -0.257171 0.115844 0.498751 0 -0.000164368 0 0 0 0 0 0 0 0 0 0 0 0 0 0 0 0 0 41 0.002 
317 11 0.00305776 0.0993966 -0.0262672 0 0 0 -0.42177 0.226871 -0.231021 0.000403339 -0.00184469 0.00174974 0 0 0 0 0 0 0 0 0 0 1 0 0 0 0 0 31 0.002 
1169 3 0.0114424 0.0992907 -0.0246292 0 0 0 1.16009 1.03418 0.178215 0 -0.000164368 0 0 0 0 0 0 0 0 0 0 0 0 0 0 0 0 0 1 0.002 
289 3 0.00444971 0.103642 -0.0258835 0 0 0 0.095938 0.237175 -0.107933 0 -0.000164368 0 0 0 0 0 0 0 0 0 0 0 0 0 0 0 0 0 24 0.002 
885 6 0.0105822 0.103855 -0.0252614 0 0 0 0.421231 -0.111558 -0.307112 0 -0.000164368 0 0 0 0 0 0 0 0 0 0 0 0 0 0 0 0 0 2 0.002 
570 1 0.00705227 0.107115 -0.0247485 0 0 0 0.153402 0.105246 -0.124865 0 -0.000164368 0 0 0 0 0 0 0 0 0 0 0 0 0 0 0 0 0 33 0.002 
145 6 0.0117443 0.0807907 -0.0228056 0 0 0 0.0844721 -0.545646 -0.288892 0 -0.000164368 0 0 0 0 0 0 0 0 0 0 0 0 0 0 0 0 0 38 0.002 
144 9 0.0135546 0.0956206 -0.0224889 0 0 0 -0.121998 -0.46811 -0.0523427 0.00980814 -0.00670382 0.00461012 0 0 0 0 0 0 0 0 1 0 0 0 0 0 0 0 46 0.002 
620 1 0.0029991 0.0980793 -0.0224931 0 0 0 -0.0200742 0.0870672 -0.172843 0.0266904 -0.0763719 -0.00160229 1 0 0 0 0 0 0 0 0 0 1 0 0 0 0 0 22 0.002 
1058 2 0.00690949 0.0976184 -0.0234047 0 0 0 -0.0885951 1.2793 -0.480401 0 -0.000164368 0 0 0 0 0 0 0 0 0 0 0 0 0 0 0 0 0 17 0.002 
329 7 0.0029782 0.102018 -0.022537 0 0 0 -0.00469922 0.166805 -0.103176 0.0252437 0.0531074 -0.000522126 1 0 0 0 0 0 0 0 0 0 0 0 0 0 0 0 32 0.002 
1091 5 0.00675657 0.103826 -0.0224071 0 0 0 0.261329 0.135424 0.126069 0 -0.000164368 0 0 0 0 0 0 0 0 0 0 0 0 0 0 0 0 0 8 0.002 
1086 9 0.00306356 0.106133 -0.022806 0 0 0 0.0880328 0.38041 0.0889695 6.99641e-05 -0.00037955 0.00164455 0 0 0 0 0 0 0 0 1 0 0 0 0 0 0 0 8 0.002 
555 5 0.0165308 0.0924329 -0.0218369 0 0 0 0.140562 -0.16885 -0.0297211 0 -0.000164368 0 0 0 0 0 0 0 0 0 0 0 0 0 0 0 0 0 33 0.002 
1121 3 0.00700583 0.107536 -0.0204209 0 0 0 0.14012 0.287951 0.101479 0 -0.000164368 0 0 0 0 0 0 0 0 0 0 0 0 0 0 0 0 0 0 0.002 
433 9 0.0106624 0.106804 -0.0222415 0 0 0 0.0609767 -0.174618 -0.254345 0 -0.000164368 0 0 0 0 0 0 0 0 0 0 0 0 0 0 0 0 0 33 0.002 
641 1 0.0166959 0.097508 -0.0208953 0 0 0 0.497719 0.774683 -2.16595 -0.00980814 0.00637508 -0.00461012 0 0 0 0 0 0 0 0 1 0 0 0 0 0 0 0 20 0.002 
1215 2 0.00501132 0.0997845 -0.0184931 0 0 0 0.222295 0.451734 -0.398377 0 -0.000164368 0 0 0 0 0 0 0 0 0 0 0 0 0 0 0 0 0 0 0.002 
661 2 0.00907666 0.0998662 -0.019262 0 0 0 -0.688074 0.293597 -0.170867 0 -0.000164368 0 0 0 0 0 0 0 0 0 0 0 0 0 0 0 0 0 13 0.002 
1197 5 0.0122341 0.102309 -0.0187271 0 0 0 -0.127203 1.31942 -0.419913 0 -0.000164368 0 0 0 0 0 0 0 0 0 0 0 0 0 0 0 0 0 0 0.002 
891 2 0.00622533 0.104552 -0.0177117 0 0 0 0.493255 0.804894 0.296312 -0.00216838 -0.000563146 0.00094407 0 1 0 0 0 0 0 0 0 0 0 0 0 0 0 0 12 0.002 
713 7 0.00316137 0.107442 -0.0190278 0 0 0 0.0144459 0.601286 0.103612 -6.99641e-05 5.08138e-05 -0.00164455 0 0 0 0 0 0 0 0 1 0 0 0 0 0 0 0 30 0.002 
602 6 0.00616707 0.0914647 -0.0152824 0 0 0 -0.15885 2.90823 1.28293 -0.0389483 -0.0533858 -0.0119002 0 0 0 0 0 1 0 0 0 0 0 0 0 0 0 0 24 0.002 
709 1 0.0146602 0.0928302 -0.0178495 0 0 0 0.500529 -0.0990712 -1.15803 0 -0.000164368 0 0 0 0 0 0 0 0 0 0 0 0 0 0 0 0 0 28 0.002 
1012 7 0.00439925 0.0948364 -0.0165083 0 0 0 0.0698821 0.713972 -0.954424 0.0389483 0.0530571 0.0119002 0 0 0 0 0 1 0 0 0 0 0 0 0 0 0 0 25 0.002 
1199 14 0.0160611 0.108015 -0.0155066 0 0 0 -0.0757378 1.47277 0.584699 -0.142301 -0.19624 0.0547263 0 0 0 0 0 0 0 0 0 0 0 0 0 0 0 0 0 0.002 
1214 5 0.0121663 0.08385 -0.013298 0 0 0 -2.9815 -0.118808 -0.276592 0 -0.000164368 0 0 0 0 0 0 0 0 0 0 0 0 0 0 0 0 0 0 0.002 
1129 5 0.0137539 0.0965232 -0.01501 0 0 0 0.445822 2.34215 -1.60272 0 -0.000164368 0 0 0 0 0 0 0 0 0 0 0 0 0 0 0 0 0 6 0.002 
186 11 0.00978942 0.0967885 -0.0144085 0 0 0 -0.120964 0.398936 -0.17742 0 -0.000164368 0 0 0 0 0 0 0 0 0 0 0 0 0 0 0 0 0 39 0.002 
833 6 0.00514022 0.098629 -0.0129611 0 0 0 0.0392615 0.118425 0.28207 0 -0.000164368 0 0 0 0 0 0 0 0 0 0 0 0 0 0 0 0 0 21 0.002 
760 3 0.0030363 0.101384 -0.015206 0 0 0 0.039323 0.043431 -0.0808467 0 -0.000164368 0 0 0 0 0 0 0 0 0 0 0 0 0 0 0 0 0 20 0.002 
582 7 0.00955504 0.102641 -0.0143377 0 0 0 -0.581003 -0.437971 0.0961046 0 -0.000164368 0 0 0 0 0 0 0 0 0 0 0 0 0 0 0 0 0 24 0.002 
999 5 0.00312711 0.105475 -0.015375 0 0 0 -0.0370245 0.288617 0.138897 0.00216838 0.000234409 -0.00094407 0 1 0 0 0 0 0 0 0 0 0 0 0 0 0 0 9 0.002 
610 7 0.00923041 0.107494 -0.0135422 0 0 0 0.0478732 0.288466 0.254827 0 -0.000164368 0 0 0 0 0 0 0 0 0 0 0 0 0 0 0 0 0 29 0.002 
451 1 0.00709353 0.0886302 -0.0111179 0 0 0 1.05827 -0.180533 -0.63752 0 -0.000164368 0 0 0 0 0 0 0 0 0 0 0 0 0 0 0 0 0 33 0.002 
1043 8 0.00319255 0.0902785 -0.0112722 0 0 0 0.549732 0.881466 0.933107 0 -0.000164368 0 0 0 0 0 0 0 0 0 0 0 0 0 0 0 0 0 12 0.002 
576 2 0.00720315 0.095211 -0.0116276 0 0 0 0.0281256 -0.212521 -0.150693 0 -0.000164368 0 0 0 0 0 0 0 0 0 0 0 0 0 0 0 0 0 20 0.002 
546 1 0.0177437 0.10102 -0.0122411 0 0 0 0.330783 0.711934 -0.69406 -0.000419864 0.0365051 -0.0210336 1 0 0 0 0 0 0 0 0 0 0 0 0 0 0 0 31 0.002 
167 2 0.00707868 0.104029 -0.0112531 0 0 0 -0.0360601 -0.0635615 0.470011 0 -0.000164368 0 0 0 0 0 0 0 0 0 0 0 0 0 0 0 0 0 27 0.002 
1201 4 0.00305097 0.108004 -0.0121638 0 0 0 -0.0355716 -0.0154233 0.0454594 2.61307e-06 -0.00244172 -0.000228291 0 0 0 1 0 0 0 0 0 0 0 0 0 0 0 0 1 0.002 
674 10 0.00323237 0.0964283 -0.00935584 0 0 0 0.185755 0.302637 0.0795766 0 -0.000164368 0 0 0 0 0 0 0 0 0 0 0 0 0 0 0 0 0 26 0.002 
293 1 0.0124489 0.100837 -0.00995835 0 0 0 -0.434762 0.411527 -0.0838496 0 -0.000164368 0 0 0 0 0 0 0 0 0 0 0 0 0 0 0 0 0 35 0.002 
419 10 0.0032171 0.104476 -0.0102967 0 0 0 -0.297151 0.0148855 0.21285 0.000313116 -0.000230449 -0.00014764 0 0 0 1 0 0 0 0 0 1 0 0 0 0 0 0 45 0.002 
1127 2 0.0163875 0.105602 -0.00916542 0 0 0 -0.193636 -0.183476 0.379776 0 -0.000164368 0 0 0 0 0 0 0 0 0 0 0 0 0 0 0 0 0 3 0.002 
922 5 0.0111823 0.107984 -0.00943009 0 0 0 0.231113 -0.0448192 -0.0820013 0 -0.000164368 0 0 0 0 0 0 0 0 0 0 0 0 0 0 0 0 0 9 0.002 
961 1 0.011856 0.095898 -0.0091281 0 0 0 2.97659 6.52369 -2.33384 0 -0.000164368 0 0 0 0 0 0 0 0 0 0 0 0 0 0 0 0 0 10 0.002 
827 2 0.00615196 0.094348 -0.00676672 0 0 0 0.294401 0.344538 -0.0590445 0 -0.000164368 0 0 0 0 0 0 0 0 0 0 0 0 0 0 0 0 0 23 0.002 
797 6 0.00326016 0.101351 -0.0078059 0 0 0 0.121208 -0.012008 0.224193 -0.000160772 -0.000411273 0.000225191 0 0 0 0 0 0 0 0 0 1 0 0 0 0 0 0 30 0.002 
9 6 0.00723205 0.101975 -0.00691344 0 0 0 0.253107 1.23731 0.137002 0 -0.000164368 0 0 0 0 0 0 0 0 0 0 0 0 0 0 0 0 0 50 0.002 
930 3 0.0170886 0.101728 -0.00737615 0 0 0 0.0749162 0.589603 -0.0343562 0 -0.000164368 0 0 0 0 0 0 0 0 0 0 0 0 0 0 0 0 0 33 0.002 
423 3 0.0115245 0.10386 -0.00636828 0 0 0 0.27389 0.0218475 0.145098 0 -0.000164368 0 0 0 0 0 0 0 0 0 0 0 0 0 0 0 0 0 39 0.002 
1017 2 0.00734308 0.10612 -0.00721047 0 0 0 0.166331 0.127462 0.224709 0 -0.000164368 0 0 0 0 0 0 0 0 0 0 0 0 0 0 0 0 0 2 0.002 
632 6 0.00353634 0.107898 -0.00762313 0 0 0 0.102367 -0.0351739 -0.0175154 0.000415326 0.00285603 -0.00457086 0 0 0 0 0 1 0 0 0 0 0 0 0 0 0 0 31 0.002 
446 9 0.00346808 0.0977665 -0.00479529 0 0 0 0.0875097 0.203215 0.0764202 0 -0.000164368 0 0 0 0 0 0 0 0 0 0 0 0 0 0 0 0 0 41 0.002 
465 4 0.0149436 0.0976042 -0.00429239 0 0 0 0.0146948 -0.244822 0.0655391 0 -0.000164368 0 0 0 0 0 0 0 0 0 0 0 0 0 0 0 0 0 37 0.002 
375 4 0.00308855 0.104746 -0.00522248 0 0 0 0.0558458 0.118911 0.281849 -0.000415326 -0.00318477 0.00457086 0 0 0 0 0 1 0 0 0 0 0 0 0 0 0 0 27 0.002 
102 1 0.0152024 0.106966 -0.00550211 0 0 0 0.0764124 0.529762 0.6652 0 -0.000164368 0 0 0 0 0 0 0 0 0 0 0 0 0 0 0 0 0 33 0.002 
1193 8 0.00789564 0.0944528 -0.00287466 0 0 0 -0.199613 0.144387 -0.101395 0 -0.000164368 0 0 0 0 0 0 0 0 0 0 0 0 0 0 0 0 0 2 0.002 
695 2 0.00758085 0.10426 -0.00242124 0 0 0 -0.0700478 0.0204652 0.289477 0 -0.000164368 0 0 0 0 0 0 0 0 0 0 0 0 0 0 0 0 0 19 0.002 
306 3 0.00322006 0.10751 -0.00174452 0 0 0 0.0238366 0.253583 0.286538 0.000212038 0.00245325 0.000978716 0 0 0 0 0 0 0 0 0 0 0 0 0 0 0 0 40 0.002 
336 9 0.0101832 0.107837 -0.00365937 0 0 0 0.0385923 -0.112964 0.116426 0 -0.000164368 0 0 0 0 0 0 0 0 0 0 0 0 0 0 0 0 0 34 0.002 
489 10 0.0157295 0.0769958 -0.0022323 0 0 0 0.435034 0.813188 -1.61812 0 -0.000164368 0 0 0 0 0 0 0 0 0 0 0 0 0 0 0 0 0 39 0.002 
400 7 0.00476008 0.0998719 -0.00132864 0 0 0 0.148943 0.230942 0.176096 0.00957344 -0.0212704 0.00128769 0 0 0 0 0 0 1 0 0 0 0 0 0 0 0 0 37 0.002 
719 3 0.00323366 0.103541 -0.0013484 0 0 0 -0.0520203 0.151096 0.153389 -0.00978548 0.018324 -0.0022664 0 0 0 0 0 0 1 0 0 0 0 0 0 0 0 0 18 0.002 
809 1 0.012558 0.103693 -0.00110274 0 0 0 -0.040593 -0.119522 0.677208 0 -0.000164368 0 0 0 0 0 0 0 0 0 0 0 0 0 0 0 0 0 21 0.002 
114 6 0.013728 0.107722 0.00035935 0 0 0 -0.015262 0.0384639 0.67604 0 -0.000164368 0 0 0 0 0 0 0 0 0 0 0 0 0 0 0 0 0 21 0.002 
1187 4 0.00720804 0.107841 -5.88961e-05 0 0 0 0.078779 -0.00531898 0.520904 0 -0.000164368 0 0 0 0 0 0 0 0 0 0 0 0 0 0 0 0 0 0 0.002 
1103 1 0.00732918 0.0905149 0.00234131 0 0 0 -0.406752 0.367088 -0.673741 0 -0.000164368 0 0 0 0 0 0 0 0 0 0 0 0 0 0 0 0 0 11 0.002 
1116 4 0.00442078 0.0955743 0.00269194 0 0 0 -0.0244122 0.018716 0.0332803 0 -0.000164368 0 0 0 0 0 0 0 0 0 0 0 0 0 0 0 0 0 15 0.002 
706 9 0.00674491 0.0999716 0.00267499 0 0 0 0.0123287 0.179161 0.0735709 0 -0.000164368 0 0 0 0 0 0 0 0 0 0 0 0 0 0 0 0 0 44 0.002 
1031 3 0.0171327 0.100216 0.000980912 0 0 0 -0.194277 -0.0254345 -0.138907 0 -0.000164368 0 0 0 0 0 0 0 0 0 0 0 0 0 0 0 0 0 12 0.002 
1076 2 0.0113363 0.101261 0.0027452 0 0 0 0.118489 0.144848 0.0178227 0 -0.000164368 0 0 0 0 0 0 0 0 0 0 0 0 0 0 0 0 0 6 0.002 
107 2 0.00841448 0.103938 0.00206065 0 0 0 0.144834 0.320509 0.443659 0 -0.000164368 0 0 0 0 0 0 0 0 0 0 0 0 0 0 0 0 0 11 0.002 
1040 3 0.00376545 0.107434 0.00230739 0 0 0 -0.129026 0.112304 0.129983 -0.00047498 0.0160217 -0.0195674 0 0 0 0 0 0 0 0 0 0 0 0 0 0 0 0 13 0.002 
516 2 0.0155379 0.0841665 0.00439934 0 0 0 1.13816 0.662893 -0.0241372 0 -0.000164368 0 0 0 0 0 0 0 0 0 0 0 0 0 0 0 0 0 34 0.002 
593 1 0.00860447 0.0946371 0.00423926 0 0 0 -0.0466684 0.415785 -0.181747 0 -0.000164368 0 0 0 0 0 0 0 0 0 0 0 0 0 0 0 0 0 34 0.002 
926 2 0.0117629 0.0972331 0.00313691 0 0 0 0.37311 0.194326 -0.126785 0 -0.000164368 0 0 0 0 0 0 0 0 0 0 0 0 0 0 0 0 0 15 0.002 
1191 3 0.00478906 0.104905 0.00518794 0 0 0 0.372615 -0.0025321 0.0531635 0.00047498 -0.0163505 0.0195674 0 0 0 0 0 0 0 0 0 0 0 0 0 0 0 0 1 0.002 
1078 1 0.0139475 0.107782 0.00491453 0 0 0 0.0432014 -0.0715875 0.280886 0 -0.000164368 0 0 0 0 0 0 0 0 0 0 0 0 0 0 0 0 0 2 0.002 
704 9 0.00558907 0.093019 0.00640633 0 0 0 -0.116246 0.525723 -0.814116 0 -0.000164368 0 0 0 0 0 0 0 0 0 0 0 0 0 0 0 0 0 24 0.002 
1065 3 0.00411657 0.0972853 0.00684145 0 0 0 -0.454035 1.12621 -0.204379 0 -0.000164368 0 0 0 0 0 0 0 0 0 0 0 0 0 0 0 0 0 12 0.002 
863 1 0.0122692 0.100638 0.00736909 0 0 0 0.138808 -0.0978995 0.119606 0 -0.000164368 0 0 0 0 0 0 0 0 0 0 0 0 0 0 0 0 0 11 0.002 
1140 12 0.0162744 0.10026 0.0070871 0 0 0 -0.379117 0.754986 -0.762789 0 -0.000164368 0 0 0 0 0 0 0 0 0 0 0 0 0 0 0 0 0 4 0.002 
338 6 0.00626923 0.101265 0.00697437 0 0 0 0.110228 0.304292 0.124751 0 -0.000164368 0 0 0 0 0 0 0 0 0 0 0 0 0 0 0 0 0 29 0.002 
1000 4 0.0163123 0.104322 0.00635636 0 0 0 0.0433377 -0.0880412 0.420886 0 -0.000164368 0 0 0 0 0 0 0 0 0 0 0 0 0 0 0 0 0 9 0.002 
1142 2 0.00301227 0.10795 0.00724957 0 0 0 -0.0730658 0.0270668 0.113128 0 -0.000164368 0 0 0 0 0 0 0 0 0 0 0 0 0 0 0 0 0 2 0.002 
278 11 0.00541196 0.089889 0.00908356 0 0 0 -0.912356 0.78504 -0.236913 0 -0.000164368 0 0 0 0 0 0 0 0 0 0 0 0 0 0 0 0 0 38 0.002 
988 10 0.00825197 0.0971511 0.00907145 0 0 0 -0.0346472 0.0480445 -0.117719 0 -0.000164368 0 0 0 0 0 0 0 0 0 0 0 0 0 0 0 0 0 12 0.002 
14 5 0.0174843 0.0973244 0.00992255 0 0 0 0.0941116 0.591343 0.110518 0 -0.000164368 0 0 0 0 0 0 0 0 0 0 0 0 0 0 0 0 0 19 0.002 
531 1 0.00304516 0.101696 0.00939676 0 0 0 -0.0535767 0.317649 0.0412442 0 -0.000164368 0 0 0 0 0 0 0 0 0 0 0 0 0 0 0 0 0 49 0.002 
480 3 0.0123948 0.104653 0.00848631 0 0 0 0.00465001 -0.0189518 0.41226 0 -0.000164368 0 0 0 0 0 0 0 0 0 0 0 0 0 0 0 0 0 31 0.002 
1147 9 0.00320092 0.0851279 0.0115931 0 0 0 -0.186462 0.550391 -0.664009 0 -0.000164368 0 0 0 0 0 0 0 0 0 0 0 0 0 0 0 0 0 5 0.002 
1221 1 0.0124262 0.0898554 0.0108764 0 0 0 -1.63982 0.412313 -0.101469 0 -0.000164368 0 0 0 0 0 0 0 0 0 0 0 0 0 0 0 0 0 0 0.002 
873 6 0.0132166 0.093964 0.0104569 0 0 0 -0.454951 0.387152 -0.246502 0 -0.000164368 0 0 0 0 0 0 0 0 0 0 0 0 0 0 0 0 0 14 0.002 
59 3 0.0130302 0.0981768 0.0113152 0 0 0 -0.0674379 0.816718 0.0992543 0 -0.000164368 0 0 0 0 0 0 0 0 0 0 0 0 0 0 0 0 0 12 0.002 
1153 8 0.0059814 0.0998142 0.0119472 0 0 0 -0.0698444 0.00197073 -0.0389313 0 -0.000164368 0 0 0 0 0 0 0 0 0 0 0 0 0 0 0 0 0 5 0.002 
690 2 0.00360884 0.10516 0.011839 0 0 0 -0.0750453 0.0497551 0.191382 0 -0.000164368 0 0 0 0 0 0 0 0 0 0 0 0 0 0 0 0 0 15 0.002 
798 4 0.0157036 0.105081 0.0120005 0 0 0 -0.374021 -0.189175 0.282937 0 -0.000164368 0 0 0 0 0 0 0 0 0 0 0 0 0 0 0 0 0 19 0.002 
1023 1 0.0127046 0.107754 0.0119845 0 0 0 -0.276946 0.115506 0.551259 0 -0.000164368 0 0 0 0 0 0 0 0 0 0 0 0 0 0 0 0 0 12 0.002 
574 5 0.00729389 0.0797928 0.0148619 0 0 0 0.488929 0.427481 1.28714 0 -0.000164368 0 0 0 0 0 0 0 0 0 0 0 0 0 0 0 0 0 24 0.002 
56 7 0.0174747 0.0808389 0.0125863 0 0 0 0.106746 -0.00418204 -0.027683 0 -0.000164368 0 0 0 0 0 0 0 0 0 0 0 0 0 0 0 0 0 38 0.002 
261 1 0.00857571 0.0839202 0.0139761 0 0 0 -0.121704 0.449813 0.0484044 0.000276806 -0.000321262 -0.00112362 1 0 0 0 0 0 0 0 0 0 0 0 0 0 0 0 35 0.002 
1066 1 0.00488965 0.0886177 0.0128786 0 0 0 -0.416423 0.558449 -0.0721725 0 -0.000164368 0 0 0 0 0 0 0 0 0 0 0 0 0 0 0 0 0 22 0.002 
1060 2 0.00868691 0.0896799 0.0136403 0 0 0 -0.671836 1.89146 0.482393 0.0021954 0.00109401 0.00198786 0 0 0 0 0 0 0 0 0 0 0 0 0 0 0 0 7 0.002 
254 10 0.0150335 0.0878614 0.0139282 0 0 0 -0.529078 1.27538 -0.435457 0 -0.000164368 0 0 0 0 0 0 0 0 0 0 0 0 0 0 0 0 0 39 0.002 
321 7 0.00309816 0.0934248 0.0130778 0 0 0 0.00905973 0.0822025 -0.104692 0 -0.000164368 0 0 0 0 0 0 0 0 0 0 0 0 0 0 0 0 0 24 0.002 
726 1 0.00939745 0.0938122 0.0123421 0 0 0 -0.118171 0.107983 -0.0724918 0 -0.000164368 0 0 0 0 0 0 0 0 0 0 0 0 0 0 0 0 0 22 0.002 
892 5 0.00310463 0.0976074 0.0140062 0 0 0 0.0337791 0.0955821 -0.050966 0 -0.000164368 0 0 0 0 0 0 0 0 0 0 0 0 0 0 0 0 0 13 0.002 
1183 1 0.0173459 0.100099 0.0130309 0 0 0 0.0167345 0.830959 0.443862 4.40424e-05 0.00433793 -0.00166435 1 0 0 0 0 0 0 0 0 0 0 0 0 0 0 0 1 0.002 
665 2 0.00613567 0.103059 0.0143326 0 0 0 -0.0382354 -0.0826753 0.196096 0 -0.000164368 0 0 0 0 0 0 0 0 0 0 0 0 0 0 0 0 0 18 0.002 
322 2 0.011305 0.103268 0.0125971 0 0 0 0.13503 -0.0492759 0.276663 0 -0.000164368 0 0 0 0 0 0 0 0 0 0 0 0 0 0 0 0 0 40 0.002 
1206 3 0.00879642 0.106305 0.0139881 0 0 0 -0.0705813 0.131135 0.252306 0 -0.000164368 0 0 0 0 0 0 0 0 0 0 0 0 0 0 0 0 0 0 0.002 
1011 6 0.00986346 0.0767582 0.0157203 0 0 0 0.314989 -0.446171 0.604453 0 -0.000164368 0 0 0 0 0 0 0 0 0 0 0 0 0 0 0 0 0 15 0.002 
475 2 0.0157067 0.0772693 0.0153909 0 0 0 0.04979 -0.125415 -0.244384 0 -0.000164368 0 0 0 0 0 0 0 0 0 0 0 0 0 0 0 0 0 30 0.002 
657 3 0.0128975 0.0805198 0.0161334 0 0 0 0.0109423 -0.101643 -0.120884 0 -0.000164368 0 0 0 0 0 0 0 0 0 0 0 0 0 0 0 0 0 25 0.002 
459 5 0.0140151 0.091783 0.0145284 0 0 0 -0.0886904 0.523995 -0.0372513 0 -0.000164368 0 0 0 0 0 0 0 0 0 0 0 0 0 0 0 0 0 23 0.002 
595 6 0.0182116 0.0928866 0.0156823 0 0 0 -0.0396404 0.599601 0.833091 -0.00367088 -0.00533945 -0.0468125 0 0 0 0 0 1 0 0 0 0 0 0 0 0 0 0 34 0.002 
876 14 0.0116497 0.0953008 0.0160458 0 0 0 -0.633153 0.450308 0.525571 0 -0.000164368 0 0 0 0 0 0 0 0 0 0 0 0 0 0 0 0 0 12 0.002 
128 4 0.00680057 0.0963675 0.016529 0 0 0 -0.063282 -0.00352063 0.0235362 0 -0.000164368 0 0 0 0 0 0 0 0 0 0 0 0 0 0 0 0 0 32 0.002 
1051 10 0.0161776 0.0972335 0.0155623 0 0 0 -0.438729 1.33657 0.607971 -4.40424e-05 -0.00466667 0.00166435 1 0 0 0 0 0 0 0 0 0 0 0 0 0 0 0 9 0.002 
176 2 0.0121558 0.0992517 0.0151013 0 0 0 -0.157384 0.599169 0.269048 -1.69732e-05 -0.00113641 0.00109561 0 1 0 0 0 0 0 0 0 0 0 0 0 0 0 0 27 0.002 
998 5 0.00878357 0.100993 0.0165203 0 0 0 0.0343604 -0.122913 0.0362142 -0.00109679 -4.04656e-05 -0.00104888 0 0 0 0 1 0 0 0 0 0 0 0 0 0 0 0 8 0.002 
18 3 0.0151988 0.104336 0.0165762 0 0 0 0.0984777 0.119621 0.0537107 0.00685209 -0.00723334 -0.000373205 0 0 1 0 0 0 0 0 0 0 0 0 0 0 0 0 35 0.002 
718 11 0.0122776 0.106955 0.015884 0 0 0 0.0626214 0.179881 0.17236 -0.00663745 0.00689885 -0.000199939 0 0 1 0 0 0 0 0 0 0 1 0 0 0 0 0 28 0.002 
519 1 0.00636689 0.107826 0.0168237 0 0 0 -0.170232 -0.047121 0.17321 0 -0.000164368 0 0 0 0 0 0 0 0 0 0 0 0 0 0 0 0 0 30 0.002 