ITEM: TIMESTEP
9550000
ITEM: NUMBER OF ATOMS
1171
ITEM: BOX BOUNDS ff ff ff
-0.01 0.45
-0.15 0.15
-0.08 0.1
ITEM: ATOMS id type x y z ix iy iz vx vy vz fx fy fz c_cc_1 c_cc_2 c_cc_3 c_cc_4 c_cc_5 c_cc_6 c_cc_7 c_cc_8 c_cc_9 c_cc_10 c_cc_11 c_cc_12 c_cc_13 c_cc_14 c_cc_15 c_cc_16 f_fppacc radius 
538 1 0.00615206 -0.0405408 -0.0411239 0 0 0 0.418566 -4.2098 3.53818 0 -0.000164368 0 0 0 0 0 0 0 0 0 0 0 0 0 0 0 0 0 27 0.002 
1183 1 0.00440471 -0.0464597 0.0245469 0 0 0 -0.0963089 -1.03585 -1.64546 0 -0.000164368 0 0 0 0 0 0 0 0 0 0 0 0 0 0 0 0 0 0 0.002 
557 5 0.00595129 -0.0402643 0.0408059 0 0 0 2.7547 10.3391 9.26677 0 -0.000164368 0 0 0 0 0 0 0 0 0 0 0 0 0 0 0 0 0 28 0.002 
891 2 0.0156353 -0.0306078 -0.0486772 0 0 0 1.28578 -18.382 11.4579 0 -0.000164368 0 0 0 0 0 0 0 0 0 0 0 0 0 0 0 0 0 11 0.002 
140 4 0.0114379 -0.032141 -0.0455212 0 0 0 0.663267 -11.4743 7.54301 0 -0.000164368 0 0 0 0 0 0 0 0 0 0 0 0 0 0 0 0 0 30 0.002 
1186 8 0.00720209 -0.0273784 0.0372588 0 0 0 -2.3107 9.8519 17.9998 0 -0.000164368 0 0 0 0 0 0 0 0 0 0 0 0 0 0 0 0 0 0 0.002 
1073 6 0.00842093 -0.0298282 0.0494946 0 0 0 -1.45367 18.0823 12.2222 0 -0.000164368 0 0 0 0 0 0 0 0 0 0 0 0 0 0 0 0 0 11 0.002 
1091 5 0.00535296 0.00858281 -0.0501571 0 0 0 0.823251 -14.8288 -6.18848 0 -0.000164368 0 0 0 0 0 0 0 0 0 0 0 0 0 0 0 0 0 8 0.002 
156 4 0.0112979 0.0112886 0.0558117 0 0 0 -0.344185 5.38115 -1.12026 0 -0.000164368 0 0 0 0 0 0 0 0 0 0 0 0 0 0 0 0 0 31 0.002 
536 2 0.0113274 0.0161314 0.0541733 0 0 0 0.262261 -2.8373 3.89258 0 -0.000164368 0 0 0 0 0 0 0 0 0 0 0 0 0 0 0 0 0 28 0.002 
529 14 0.00890759 0.0314553 0.047536 0 0 0 0.551161 9.08025 -6.88998 0 -0.000164368 0 0 0 0 0 0 0 0 0 0 0 0 0 0 0 0 0 44 0.002 
41 1 0.0151244 0.0528567 -0.0355 0 0 0 -2.22652e-308 -2.03637e-20 1.11885e-12 -1.24137e-306 1.35525e-20 0 0 0 0 0 0 0 0 0 0 0 0 0 0 0 0 0 2 0.002 
221 16 0.018662 0.0423469 -0.0368 0 0 0 2.92846 -14.1076 -8.13148 0 -0.000164368 0 0 0 0 0 0 0 0 0 0 0 0 0 0 0 0 0 43 0.002 
1039 3 0.00350245 0.0592823 -0.0311702 0 0 0 -0.312038 -0.626621 0.632401 0 -0.000164368 0 0 0 0 0 0 0 0 0 0 0 0 0 0 0 0 0 7 0.002 
638 6 0.0152842 0.0738698 -0.0266276 0 0 0 -3.89375 0.767098 2.16398 0 -0.000164368 0 0 0 0 0 0 0 0 0 0 0 0 0 0 0 0 0 23 0.002 
800 1 0.00718164 0.0607209 -0.0196798 0 0 0 -4.96451 -0.842732 -2.92104 0 -0.000164368 0 0 0 0 0 0 0 0 0 0 0 0 0 0 0 0 0 18 0.002 
1134 2 0.0118272 0.0569009 -0.0167437 0 0 0 0.238475 -0.202373 0.423344 0 -0.000164368 0 0 0 0 0 0 0 0 0 0 0 0 0 0 0 0 0 0 0.002 
852 2 0.0148876 0.062876 -0.0244599 0 0 0 -2.9274 4.56591 -21.2625 0 -0.000164368 0 0 0 0 0 0 0 0 0 0 0 0 0 0 0 0 0 12 0.002 
339 4 0.015772 0.0540454 -0.00445755 0 0 0 -0.560094 -2.07915 1.23499 -0.256582 -0.381514 -0.374959 0 0 0 1 0 0 0 0 0 0 0 0 0 0 0 0 30 0.002 
941 3 0.014621 0.0582362 -0.0027152 0 0 0 -2.00915 0.601126 0.113213 -0.084135 0.0274875 0.0353732 0 0 1 0 0 0 0 0 0 0 0 0 0 0 0 0 20 0.002 
1193 8 0.018 0.0564165 -0.00252191 0 0 0 4.22862 4.31927 -12.7378 0.340717 0.353534 0.339586 0 0 1 1 0 0 0 0 0 0 0 0 0 0 0 0 2 0.002 
592 7 0.00664601 0.0685452 0.0134771 0 0 0 0.0222733 -0.267743 -0.376296 0 -0.000164368 0 0 0 0 0 0 0 0 0 0 0 0 0 0 0 0 0 37 0.002 
122 5 0.0103158 0.0709189 0.0131197 0 0 0 -0.0464978 -0.265018 -0.297371 0 -0.000164368 0 0 0 0 0 0 0 0 0 0 0 0 0 0 0 0 0 49 0.002 
1013 8 0.0102985 0.0679695 0.0163463 0 0 0 -0.00716536 -0.11043 -0.463168 0 -0.000164368 0 0 0 0 0 0 0 0 0 0 0 0 0 0 0 0 0 17 0.002 
527 8 0.00475361 0.0727734 0.0157558 0 0 0 -0.374518 -0.726706 -0.159992 0 -0.000164368 0 0 0 0 0 0 0 0 0 0 0 0 0 0 0 0 0 28 0.002 
584 8 0.00343591 0.0647873 0.0171623 0 0 0 0.0285804 -0.253076 -0.308548 0 -0.000164368 0 0 0 0 0 0 0 0 0 0 0 0 0 0 0 0 0 40 0.002 
552 8 0.00858318 0.0644288 0.0204575 0 0 0 -0.111279 -0.0822836 -0.222354 0 -0.000164368 0 0 0 0 0 0 0 0 0 0 0 0 0 0 0 0 0 30 0.002 
92 2 0.00616822 0.0677433 0.0190966 0 0 0 -0.0744653 -0.0244586 -0.384973 0 -0.000164368 0 0 0 0 0 0 0 0 0 0 0 0 0 0 0 0 0 39 0.002 
635 4 0.0135212 0.067898 0.0189167 0 0 0 -0.421514 0.28067 -0.517635 0 -0.000164368 0 0 0 0 0 0 0 0 0 0 0 0 0 0 0 0 0 40 0.002 
1082 1 0.00300266 0.0720935 0.0206918 0 0 0 0.00780232 -0.282681 -0.0145578 0 -0.000164368 0 0 0 0 0 0 0 0 0 0 0 0 0 0 0 0 0 13 0.002 
175 5 0.0152076 0.0721179 0.0204328 0 0 0 0.0298016 -0.301828 -0.169933 0 -0.000164368 0 0 0 0 0 0 0 0 0 0 0 0 0 0 0 0 0 17 0.002 
510 9 0.00314605 0.0677511 0.0228519 0 0 0 -0.0597513 -0.293075 -0.192078 0 -0.000164368 0 0 0 0 0 0 0 0 0 0 0 0 0 0 0 0 0 62 0.002 
490 2 0.0111 0.0699021 0.0222303 0 0 0 -0.796533 -0.106874 0.460664 0 -0.000164368 0 0 0 0 0 0 0 0 0 0 0 0 0 0 0 0 0 54 0.002 
721 5 0.00623142 0.0704347 0.0227915 0 0 0 -0.280525 -0.417443 0.157286 0.00060013 0.00164528 -3.75963e-05 0 0 0 0 1 0 0 0 0 0 0 0 0 0 0 0 34 0.002 
650 3 0.00886716 0.0733096 0.0219179 0 0 0 -0.414531 -0.0964586 0.428583 0.000421524 -0.00598875 -0.0140473 0 0 0 0 1 0 0 0 0 0 0 0 0 0 0 0 27 0.002 
928 2 0.00844799 0.064632 0.0249511 0 0 0 0.21457 -0.0891629 -0.183563 0 -0.000164368 0 0 0 0 0 0 0 0 0 0 0 0 0 0 0 0 0 20 0.002 
674 10 0.00304369 0.0720405 0.0251905 0 0 0 0.00166706 -0.210986 -0.0178919 0 -0.000164368 0 0 0 0 0 0 0 0 0 0 0 0 0 0 0 0 0 26 0.002 
797 6 0.0169391 0.0716457 0.0250258 0 0 0 0.119894 -0.260962 -0.0431886 0 -0.000164368 0 0 0 0 0 0 0 0 0 0 0 0 0 0 0 0 0 26 0.002 
72 3 0.0100842 0.0733377 0.0257217 0 0 0 -0.0503732 -0.340159 0.0250334 -0.00102165 0.00385037 0.0140849 0 0 0 0 0 0 0 0 0 0 0 0 0 0 0 0 44 0.002 
465 4 0.0150693 0.061147 0.0257881 0 0 0 0.23923 -0.316727 -0.198818 0 -0.000164368 0 0 0 0 0 0 0 0 0 0 0 0 0 0 0 0 0 37 0.002 
102 1 0.0164309 0.066064 0.0277535 0 0 0 -0.0401097 -0.339002 -0.178303 0 -0.000164368 0 0 0 0 0 0 0 0 0 0 0 0 0 0 0 0 0 33 0.002 
713 7 0.00783759 0.0696375 0.0265262 0 0 0 -0.001171 -0.293129 0.00426733 0 -0.000164368 0 0 0 0 0 0 0 0 0 0 0 0 0 0 0 0 0 29 0.002 
300 1 0.0122298 0.0708093 0.0279669 0 0 0 0.0359025 -0.301866 0.025342 0 -0.000164368 0 0 0 0 0 0 0 0 0 0 0 0 0 0 0 0 0 33 0.002 
1065 3 0.00316434 0.0626737 0.0296531 0 0 0 0.050168 -0.203985 -0.228884 0 -0.000164368 0 0 0 0 0 0 0 0 0 0 0 0 0 0 0 0 0 10 0.002 
540 4 0.00309599 0.0665844 0.0282656 0 0 0 0.0011593 -0.0973858 -0.125114 0 -0.000164368 0 0 0 0 0 0 0 0 0 0 0 0 0 0 0 0 0 31 0.002 
123 8 0.00337762 0.0705219 0.0291528 0 0 0 -0.0238804 -0.209621 0.00561866 0 -0.000164368 0 0 0 0 0 0 0 0 0 0 0 0 0 0 0 0 0 40 0.002 
576 2 0.0181904 0.0707558 0.0287921 0 0 0 0.079359 -0.318379 -0.030356 0 -0.000164368 0 0 0 0 0 0 0 0 0 0 0 0 0 0 0 0 0 20 0.002 
593 1 0.00652233 0.0729096 0.0284791 0 0 0 0.0453531 -0.245361 -0.00639792 0 -0.000164368 0 0 0 0 0 0 0 0 0 0 0 0 0 0 0 0 0 30 0.002 
350 8 0.0147619 0.0739338 0.0291073 0 0 0 0.0663202 -0.345019 0.152865 0 -0.000164368 0 0 0 0 0 0 0 0 0 0 0 0 0 0 0 0 0 32 0.002 
727 2 0.00870426 0.0529123 0.0316395 0 0 0 0.314741 -0.625273 0.420563 0 -0.000164368 0 0 0 0 0 0 0 0 0 0 0 0 0 0 0 0 0 25 0.002 
519 1 0.00778521 0.0613679 0.0322232 0 0 0 0.956508 0.0904886 -0.372658 0 -0.000164368 0 0 0 0 0 0 0 0 0 0 0 0 0 0 0 0 0 30 0.002 
1094 10 0.0157312 0.0625107 0.0312651 0 0 0 -0.0264814 -0.231042 -0.0444312 0 -0.000164368 0 0 0 0 0 0 0 0 0 0 0 0 0 0 0 0 0 9 0.002 
1066 1 0.00589523 0.0650477 0.0324729 0 0 0 0.00184434 -0.170478 0.00852049 0 -0.000164368 0 0 0 0 0 0 0 0 0 0 0 0 0 0 0 0 0 21 0.002 
471 5 0.0129391 0.069767 0.0317696 0 0 0 0.0719338 -0.260455 0.0259211 -0.00391016 -0.000344101 0.000958691 0 0 0 0 1 0 0 0 0 0 0 0 0 0 0 0 37 0.002 
961 1 0.00658104 0.0704854 0.0317059 0 0 0 -0.0285628 -0.207704 0.012361 -0.000927947 0.00367741 -0.00121294 1 0 0 0 0 0 0 0 0 0 0 0 0 0 0 0 10 0.002 
297 3 0.0101119 0.0725402 0.0323617 0 0 0 -0.0249651 -0.319944 0.130566 0 -0.000164368 0 0 0 0 0 0 0 0 0 0 0 0 0 0 0 0 0 41 0.002 
814 13 0.00316278 0.05752 0.0323259 0 0 0 0.0648926 0.618966 -0.415403 0 -0.000164368 0 0 0 0 0 0 0 0 0 0 0 0 0 0 0 0 0 35 0.002 
1012 7 0.00911792 0.067513 0.0325189 0 0 0 0.0949946 -0.131389 -0.00829405 0.000927947 -0.00400615 0.00121294 1 0 0 0 0 0 0 0 0 0 0 0 0 0 0 0 24 0.002 
126 2 0.0136223 0.065883 0.032638 0 0 0 0.0158995 -0.23403 -0.0139738 0 -0.000164368 0 0 0 0 0 0 0 0 0 0 0 0 0 0 0 0 0 24 0.002 
796 15 0.00333063 0.068109 0.0329721 0 0 0 -0.092531 -0.167355 0.0124736 0 -0.000164368 0 0 0 0 0 0 0 0 0 0 0 0 0 0 0 0 0 30 0.002 
438 2 0.00303221 0.0723667 0.0329851 0 0 0 0.00366833 -0.229941 -0.00181116 0 -0.000164368 0 0 0 0 0 0 0 0 0 0 0 0 0 0 0 0 0 35 0.002 
1052 1 0.0165249 0.0710904 0.0329431 0 0 0 -0.0396584 -0.245722 -0.00837608 0.00391016 1.53652e-05 -0.000958691 0 0 0 0 1 0 0 0 0 0 0 0 0 0 0 0 12 0.002 
662 1 0.00658026 0.0743613 0.0329661 0 0 0 -0.00481536 -0.211452 0.00204263 0 -0.000164368 0 0 0 0 0 0 0 0 0 0 0 0 0 0 0 0 0 29 0.002 
768 6 0.0149331 0.0748471 0.0330032 0 0 0 -0.0482044 -0.237024 0.00853208 0.000472115 0.00153291 -0.00352344 0 0 0 0 0 0 0 0 0 0 0 0 0 0 0 0 18 0.002 
590 2 0.0128564 0.0747921 0.0171859 0 0 0 -0.0883217 -0.527098 0.062891 0 -0.000164368 0 0 0 0 0 0 0 0 0 0 0 0 0 0 0 0 0 35 0.002 
1190 6 0.00300113 0.0484571 0.0311013 0 0 0 7.23999 19.0575 -38.2529 0 -0.000164368 0 0 0 0 0 0 0 0 0 0 0 0 0 0 0 0 0 0 0.002 
1115 2 0.00561283 0.0738247 0.0102395 0 0 0 -0.876733 -6.20609 4.93451 0 -0.000164368 0 0 0 0 0 0 0 0 0 0 0 0 0 0 0 0 0 0 0.002 
167 2 0.00339207 0.107735 -0.0328731 0 0 0 0.0331455 -0.123 0.0400878 0 -0.000164368 0 0 0 0 0 0 0 0 0 0 0 0 0 0 0 0 0 27 0.002 
704 9 0.0155318 0.100862 0.00861515 0 0 0 -0.0192459 -1.5287 1.09652 0 -0.000164368 0 0 0 0 0 0 0 0 0 0 0 0 0 0 0 0 0 23 0.002 
173 3 0.0136795 0.107916 -0.0329375 0 0 0 1.06291 -0.118573 0.110934 -0.00281798 -0.000992338 2.8787e-05 0 0 1 0 0 0 0 0 0 0 0 0 0 0 0 0 19 0.002 
938 2 0.00745553 0.102455 -0.0320277 0 0 0 1.06218 0.892788 -1.91492 0 -0.000164368 0 0 0 0 0 0 0 0 0 0 0 0 0 0 0 0 0 8 0.002 
430 4 0.00313624 0.10512 -0.0296947 0 0 0 -0.0270996 -0.392967 -0.0822663 0 -0.000164368 0 0 0 0 0 0 0 0 0 0 0 0 0 0 0 0 0 37 0.002 
555 5 0.0102679 0.106911 -0.0311155 0 0 0 0.891734 0.0484876 0.141095 0.00281798 0.000663602 -2.8787e-05 0 0 1 0 0 0 0 0 0 0 0 0 0 0 0 0 33 0.002 
898 1 0.00624159 0.107702 -0.0277589 0 0 0 0.181563 -0.164152 -0.100746 0 -0.000164368 0 0 0 0 0 0 0 0 0 0 0 0 0 0 0 0 0 16 0.002 
570 1 0.0107702 0.0910168 -0.0284088 0 0 0 5.59897 2.39576 -6.68805 0 -0.000164368 0 0 0 0 0 0 0 0 0 0 0 0 0 0 0 0 0 33 0.002 
1144 2 0.00354727 0.0973367 -0.0303441 0 0 0 0.813236 9.89744 -10.381 0 -0.000164368 0 0 0 0 0 0 0 0 0 0 0 0 0 0 0 0 0 1 0.002 
378 2 0.0116984 0.106314 -0.0256165 0 0 0 2.15617 1.07303 0.638558 0 -0.000164368 0 0 0 0 0 0 0 0 0 0 0 0 0 0 0 0 0 33 0.002 
394 6 0.0164966 0.0911506 -0.0216699 0 0 0 -0.139827 -0.851427 -0.269963 0 -0.000164368 0 0 0 0 0 0 0 0 0 0 0 0 0 0 0 0 0 41 0.002 
1090 12 0.0165865 0.105946 -0.0202472 0 0 0 -2.42902 1.83835 3.87672 0 -0.000164368 0 0 0 0 0 0 0 0 0 0 0 0 0 0 0 0 0 5 0.002 
139 6 0.00584735 0.105943 -0.0217452 0 0 0 -3.48911 -0.178993 0.521755 0.13709 -0.0262718 -0.0663562 0 0 0 0 0 1 0 0 0 0 0 0 0 0 0 0 46 0.002 
1003 7 0.00419538 0.0991686 -0.0185686 0 0 0 0.378364 -0.778584 -0.099125 0 -0.000164368 0 0 0 0 0 0 0 0 0 0 0 0 0 0 0 0 0 14 0.002 
1169 3 0.00337556 0.106078 -0.0186236 0 0 0 0.00230285 -0.352953 -0.0682512 -0.13709 0.0259431 0.0663562 0 0 0 0 0 1 0 0 0 0 0 0 0 0 0 0 1 0.002 
1178 2 0.00361691 0.0931908 -0.0155412 0 0 0 0.547294 -1.90973 -0.156002 0 -0.000164368 0 0 0 0 0 0 0 0 0 0 0 0 0 0 0 0 0 0 0.002 
1185 6 0.00601109 0.107146 -0.0124803 0 0 0 -0.259434 -0.193211 1.28824 0 -0.000164368 0 0 0 0 0 0 0 0 0 0 0 0 0 0 0 0 0 1 0.002 
1142 2 0.0140383 0.108024 -0.0133936 0 0 0 -0.524768 -0.560905 3.03631 0.0162439 0.0125375 -0.014107 0 0 0 0 0 0 0 0 0 0 0 0 0 0 0 0 2 0.002 
1143 7 0.00436632 0.0842371 -0.0107814 0 0 0 1.13002 -0.84159 0.288497 0 -0.000164368 0 0 0 0 0 0 0 0 0 0 0 0 0 0 0 0 0 1 0.002 
1040 3 0.00653181 0.0953139 -0.0126437 0 0 0 0.839979 0.102412 -0.395006 0 -0.000164368 0 0 0 0 0 0 0 0 0 0 0 0 0 0 0 0 0 13 0.002 
632 6 0.00821164 0.102863 -0.0127946 0 0 0 -0.344931 0.489678 0.152598 0 -0.000164368 0 0 0 0 0 0 0 0 0 0 0 0 0 0 0 0 0 30 0.002 
55 4 0.00725906 0.0950617 -0.00603867 0 0 0 2.16633 0.638303 1.35712 0 -0.000164368 0 0 0 0 0 0 0 0 0 0 0 0 0 0 0 0 0 22 0.002 
690 2 0.0108218 0.0970539 -0.00639709 0 0 0 1.96305 1.54625 -0.0463437 0 -0.000164368 0 0 0 0 0 0 0 0 0 0 0 0 0 0 0 0 0 15 0.002 
740 1 0.0081973 0.101567 -0.0061566 0 0 0 1.02106 -0.604595 0.295434 0 -0.000164368 0 0 0 0 0 0 0 0 0 0 0 0 0 0 0 0 0 23 0.002 
784 7 0.0177538 0.104839 -0.00840983 0 0 0 0.560971 0.715218 -0.558553 0 -0.000164368 0 0 0 0 0 0 0 0 0 0 0 0 0 0 0 0 0 22 0.002 
1123 3 0.0121983 0.106939 -0.00784473 0 0 0 0.505914 0.144798 0.656082 0 -0.000164368 0 0 0 0 0 0 0 0 0 0 0 0 0 0 0 0 0 0 0.002 
932 2 0.0119307 0.085563 -0.00442522 0 0 0 -0.512136 -2.2789 2.37471 0 -0.000164368 0 0 0 0 0 0 0 0 0 0 0 0 0 0 0 0 0 15 0.002 
272 2 0.0090519 0.0918507 -0.00388462 0 0 0 2.23467 -0.270574 0.676646 0 -0.000164368 0 0 0 0 0 0 0 0 0 0 0 0 0 0 0 0 0 42 0.002 
627 2 0.00400963 0.101012 -0.0056092 0 0 0 -0.0621458 0.137417 -0.192096 0 -0.000164368 0 0 0 0 0 0 0 0 0 0 0 0 0 0 0 0 0 36 0.002 
629 8 0.004654 0.0967881 -0.00249541 0 0 0 0.0834551 -0.507381 0.723101 -0.00380022 -0.085622 -0.140096 0 0 0 0 0 0 0 1 0 0 0 0 0 0 0 0 34 0.002 
892 5 0.0050205 0.0992717 0.000482143 0 0 0 -0.0407165 0.35094 0.504093 0.00380022 0.0852933 0.140096 0 0 0 0 0 0 0 1 0 0 0 0 0 0 0 0 11 0.002 
781 2 0.00528414 0.104311 -0.000105783 0 0 0 0.498558 0.0577148 -0.651557 0 -0.000164368 0 0 0 0 0 0 0 0 0 0 0 0 0 0 0 0 0 32 0.002 
452 8 0.0142897 0.076357 0.00286708 0 0 0 -0.0919494 -0.129905 -0.369736 0 -0.000164368 0 0 0 0 0 0 0 0 0 0 0 0 0 0 0 0 0 31 0.002 
947 4 0.00772912 0.0911082 0.00434249 0 0 0 0.705672 -0.172523 3.30734 0 -0.000164368 0 0 0 0 0 0 0 0 0 0 0 0 0 0 0 0 0 13 0.002 
881 1 0.0036651 0.107086 0.00267465 0 0 0 0.188251 -0.445985 -0.0866634 0 -0.000164368 0 0 0 0 0 0 0 0 0 0 0 0 0 0 0 0 0 24 0.002 
741 5 0.0150576 0.107526 0.00247972 0 0 0 -0.377869 0.335386 2.26769 0 -0.000164368 0 0 0 0 0 0 0 0 0 0 0 0 0 0 0 0 0 18 0.002 
1063 3 0.00323738 0.0912187 0.00416217 0 0 0 0.195705 0.486273 -0.659601 0 -0.000164368 0 0 0 0 0 0 0 0 0 0 0 0 0 0 0 0 0 10 0.002 
598 1 0.0112228 0.096436 0.00375821 0 0 0 0.0603874 -0.0254091 -0.714386 0 -0.000164368 0 0 0 0 0 0 0 0 0 0 0 0 0 0 0 0 0 30 0.002 
230 6 0.00319585 0.102548 0.00502184 0 0 0 0.231228 0.746623 0.418968 0 -0.000164368 0 0 0 0 0 0 0 0 0 0 0 0 0 0 0 0 0 41 0.002 
459 5 0.0112416 0.101694 0.00513427 0 0 0 0.495224 -0.52236 1.77463 0 -0.000164368 0 0 0 0 0 0 0 0 0 0 0 0 0 0 0 0 0 20 0.002 
591 9 0.00481086 0.101402 0.00872377 0 0 0 0.129173 -0.347946 0.0794621 0 -0.000164368 0 0 0 0 0 0 0 0 0 0 0 0 0 0 0 0 0 15 0.002 
397 3 0.00431337 0.0807472 0.00577264 0 0 0 0.848334 1.73014 -0.265589 0 -0.000164368 0 0 0 0 0 0 0 0 0 0 0 0 0 0 0 0 0 41 0.002 
719 3 0.00358206 0.0865942 0.00761815 0 0 0 -0.0521128 0.539076 0.528223 0 -0.000164368 0 0 0 0 0 0 0 0 0 0 0 0 0 0 0 0 0 16 0.002 
709 1 0.0168388 0.0898068 0.00894931 0 0 0 -0.221839 -0.391419 2.63557 0 -0.000164368 0 0 0 0 0 0 0 0 0 0 0 0 0 0 0 0 0 27 0.002 
877 4 0.0155855 0.0972451 0.00602985 0 0 0 0.0307237 0.237864 -0.246176 0 -0.000164368 0 0 0 0 0 0 0 0 0 0 0 0 0 0 0 0 0 17 0.002 
1158 12 0.0103138 0.0871973 0.00888138 0 0 0 -0.198703 0.00491581 -0.328021 0 -0.000164368 0 0 0 0 0 0 0 0 0 0 0 0 0 0 0 0 0 2 0.002 
716 5 0.00786797 0.0949432 0.00883327 0 0 0 -0.0146753 0.00918451 -0.327906 0 -0.000164368 0 0 0 0 0 0 0 0 0 0 0 0 0 0 0 0 0 14 0.002 
553 7 0.0130935 0.0945896 0.00918646 0 0 0 0.00179499 0.0607925 -0.159046 0 -0.000164368 0 0 0 0 0 0 0 0 0 0 0 0 0 0 0 0 0 21 0.002 
419 10 0.00354236 0.0766578 0.0125129 0 0 0 -2.40953 0.337028 1.23582 -0.0573992 -0.0441858 0.0150169 0 0 0 0 0 0 0 0 0 1 0 0 0 0 0 0 43 0.002 
522 2 0.00308824 0.0811845 0.0106346 0 0 0 0.122325 0.32671 1.05312 0 -0.000164368 0 0 0 0 0 0 0 0 0 0 0 0 0 0 0 0 0 43 0.002 
128 4 0.00543445 0.084379 0.0112963 0 0 0 0.0950226 0.344315 1.21626 0 -0.000164368 0 0 0 0 0 0 0 0 0 0 0 0 0 0 0 0 0 31 0.002 
400 7 0.00838617 0.0912223 0.0107461 0 0 0 0.0120639 0.0260422 -0.207948 0 -0.000164368 0 0 0 0 0 0 0 0 0 0 0 0 0 0 0 0 0 35 0.002 
306 3 0.00407144 0.0940303 0.0100432 0 0 0 0.136724 0.380644 -0.198028 0 -0.000164368 0 0 0 0 0 0 0 0 0 0 0 0 0 0 0 0 0 40 0.002 
1155 5 0.00804823 0.0991086 0.0109166 0 0 0 0.324303 0.0187907 0.144758 0 -0.000164368 0 0 0 0 0 0 0 0 0 0 0 0 0 0 0 0 0 2 0.002 
1192 2 0.014528 0.105886 0.0104035 0 0 0 2.32839 0.715447 -0.802229 0 -0.000164368 0 0 0 0 0 0 0 0 0 0 0 0 0 0 0 0 0 0 0.002 
1116 4 0.00624653 0.0793906 0.0132695 0 0 0 -0.513102 -0.298895 1.23853 0.0573992 0.0438571 -0.0150169 0 0 0 0 0 0 0 0 0 1 0 0 0 0 0 0 13 0.002 
841 3 0.0093326 0.0848989 0.0124539 0 0 0 0.295866 -0.195437 -0.279332 0 -0.000164368 0 0 0 0 0 0 0 0 0 0 0 0 0 0 0 0 0 19 0.002 
699 9 0.01299 0.0869533 0.0130608 0 0 0 0.234342 0.415123 -0.22641 0 -0.000164368 0 0 0 0 0 0 0 0 0 0 0 0 0 0 0 0 0 18 0.002 
876 14 0.0155088 0.0970075 0.0132027 0 0 0 0.0337868 -0.209249 0.382344 0 -0.000164368 0 0 0 0 0 0 0 0 0 0 0 0 0 0 0 0 0 12 0.002 
131 7 0.0106397 0.103142 0.0144612 0 0 0 -0.0509588 0.152942 0.195805 0 -0.000164368 0 0 0 0 0 0 0 0 0 0 0 0 0 0 0 0 0 42 0.002 
786 1 0.0181726 0.102606 0.0126741 0 0 0 0.217821 0.173766 -0.0269703 0 -0.000164368 0 0 0 0 0 0 0 0 0 0 0 0 0 0 0 0 0 29 0.002 
665 2 0.00318318 0.102969 0.012726 0 0 0 0.0418339 -0.302462 -0.0190542 -0.000415546 0.002049 -0.00876533 0 1 0 0 0 0 0 0 0 0 0 0 0 0 0 0 18 0.002 
762 6 0.00677019 0.104245 0.0140093 0 0 0 -0.51488 -0.252021 0.780069 0 -0.000164368 0 0 0 0 0 0 0 0 0 0 0 0 0 0 0 0 0 30 0.002 
606 4 0.00395159 0.107522 0.0136942 0 0 0 -0.322603 0.130973 0.794633 0.0306178 -0.0456139 -0.0229734 0 0 0 1 0 0 0 0 0 0 0 0 0 0 0 0 41 0.002 
1119 4 0.0158781 0.10718 0.0141985 0 0 0 0.654057 -0.0675987 0.433682 -0.0516911 -0.00744458 -0.0487571 0 0 0 0 0 0 0 0 0 0 0 0 0 0 0 0 1 0.002 
1031 3 0.00572643 0.0771394 0.0167476 0 0 0 -0.240555 -0.284213 0.103674 0 -0.000164368 0 0 0 0 0 0 0 0 0 0 0 0 0 0 0 0 0 9 0.002 
503 7 0.00968935 0.0782151 0.0155135 0 0 0 -0.121804 -0.00988042 0.108642 0 -0.000164368 0 0 0 0 0 0 0 0 0 0 0 0 0 0 0 0 0 24 0.002 
362 1 0.0071567 0.0830377 0.016028 0 0 0 1.78943 -0.25355 0.841231 0 -0.000164368 0 0 0 0 0 0 0 0 0 0 0 0 0 0 0 0 0 20 0.002 
579 8 0.00717803 0.0880025 0.015029 0 0 0 0.846669 0.23899 0.313207 0 -0.000164368 0 0 0 0 0 0 0 0 0 0 0 0 0 0 0 0 0 38 0.002 
792 2 0.00358308 0.0893085 0.0166867 0 0 0 0.269879 -0.199668 0.00580264 0 -0.000164368 0 0 0 0 0 0 0 0 0 0 0 0 0 0 0 0 0 16 0.002 
338 6 0.0152056 0.0893099 0.0162501 0 0 0 -0.614113 0.00694611 -0.166535 0 -0.000164368 0 0 0 0 0 0 0 0 0 0 0 0 0 0 0 0 0 27 0.002 
1153 8 0.00587594 0.0924268 0.0154943 0 0 0 0.0945136 -0.00591013 -0.099714 0 -0.000164368 0 0 0 0 0 0 0 0 0 0 0 0 0 0 0 0 0 3 0.002 
176 2 0.0108976 0.0927027 0.0151782 0 0 0 0.064502 -0.0690755 -0.0293772 0 -0.000164368 0 0 0 0 0 0 0 0 0 0 0 0 0 0 0 0 0 24 0.002 
1051 10 0.0150922 0.0935376 0.0165655 0 0 0 0.0629407 -0.126904 -0.0285283 0 -0.000164368 0 0 0 0 0 0 0 0 0 0 0 0 0 0 0 0 0 8 0.002 
321 7 0.00609153 0.100104 0.0147037 0 0 0 -0.0424567 -0.271764 -0.0155364 -0.00415419 0.00594499 -0.0105784 0 0 0 0 0 0 1 0 0 0 0 0 0 0 0 0 21 0.002 
534 13 0.0030333 0.102071 0.0166056 0 0 0 0.0100737 -0.16398 0.0373012 0.000124726 0.000860063 0.0015885 0 1 0 0 0 0 0 0 0 0 0 0 2 0 0 0 31 0.002 
1002 1 0.0149049 0.10309 0.0168933 0 0 0 0.0703168 -0.00626363 0.35413 -5.85739e-05 -8.1304e-05 -7.39074e-05 1 0 0 0 0 0 0 0 0 0 0 0 0 0 0 0 8 0.002 
369 6 0.00694312 0.108015 0.0166829 0 0 0 0.0470786 0.242757 0.0997087 -0.0207107 -0.0579733 -0.0166393 0 0 0 0 0 0 0 0 0 0 0 0 0 0 0 0 28 0.002 
112 6 0.0108076 0.107903 0.0155743 0 0 0 0.123474 -0.0516179 0.186367 0 -0.000164368 0 0 0 0 0 0 0 0 0 0 0 0 0 0 0 0 0 37 0.002 
77 12 0.00907659 0.0754476 0.0184409 0 0 0 -0.0194767 -0.312717 0.0857571 0 -0.000164368 0 0 0 0 0 0 0 0 0 0 0 0 0 0 0 0 0 37 0.002 
995 2 0.0151022 0.104652 0.032722 0 0 0 0.105749 -0.0917256 -0.0662104 -0.00237268 0.000189553 -0.00101467 0 2 0 0 0 0 0 0 0 0 0 0 0 0 0 0 15 0.002 
922 5 0.0149535 0.0779923 0.0192518 0 0 0 -0.607157 -0.52468 0.623487 0.0140995 0.00622427 -0.0277464 0 0 0 0 1 0 0 0 0 0 0 0 0 0 0 0 6 0.002 
531 1 0.00318116 0.080162 0.0173704 0 0 0 -0.00769574 -0.0423174 0.102787 -0.00134841 -0.0130753 0.00291347 1 0 0 0 0 0 0 0 0 0 0 0 0 0 0 0 48 0.002 
1098 3 0.00304794 0.0840514 0.0182492 0 0 0 0.0831754 -0.315398 0.689805 0.00134841 0.0127465 -0.00291347 1 0 0 0 0 0 0 0 0 0 0 0 0 0 0 0 11 0.002 
885 6 0.0149192 0.0843778 0.0174341 0 0 0 0.21788 -0.215438 -0.257097 0 -0.000164368 0 0 0 0 0 0 0 0 0 0 0 0 0 0 0 0 0 2 0.002 
984 3 0.00989188 0.0874181 0.0187405 0 0 0 0.0044932 -0.0339468 -0.20775 0.00057012 -4.51255e-05 0.000213617 0 0 1 0 0 0 0 0 0 0 0 0 0 0 0 0 17 0.002 
730 3 0.00772649 0.0912356 0.018894 0 0 0 0.0359276 0.0275223 0.0368165 0.00366626 0.00290986 0.00037673 0 0 1 0 0 0 0 0 0 0 0 0 0 0 0 0 17 0.002 
425 1 0.00409715 0.0957467 0.0168953 0 0 0 -0.00737241 -0.0588701 -0.00827902 0.00150985 -0.00154946 -0.00232881 1 0 0 0 0 0 0 0 0 0 0 0 0 0 0 0 37 0.002 
742 3 0.0178437 0.0957813 0.0184853 0 0 0 0.100754 -0.211492 0.0287291 0 -0.000164368 0 0 0 0 0 0 0 0 0 0 0 0 0 0 0 0 0 20 0.002 
287 6 0.00707719 0.0985839 0.0182485 0 0 0 -0.0372642 -0.170219 0.0627234 -0.00153917 -0.00491163 0.00570985 0 0 0 0 0 1 1 0 0 0 0 0 0 0 0 0 27 0.002 
631 1 0.011487 0.100479 0.0174249 0 0 0 0.421404 0.0623614 0.0767928 -4.10216e-06 -0.000118324 4.23124e-05 1 0 0 0 0 0 0 0 0 0 0 0 0 0 0 0 36 0.002 
910 15 0.0157281 0.0993885 0.018162 0 0 0 0.0845637 -0.135315 -0.00804391 -0.00172562 0.000886349 -0.00282947 1 0 0 0 0 0 0 0 0 0 0 0 0 0 1 0 17 0.002 
887 1 0.0187437 0.102159 0.0176934 0 0 0 0.189018 -0.046684 0.0832386 0 -0.000164368 0 0 0 0 0 0 0 0 0 0 0 0 0 0 0 0 0 9 0.002 
803 4 0.0105108 0.10501 0.0183841 0 0 0 0.144646 0.116672 0.433955 0 -0.000164368 0 0 0 0 0 0 0 0 0 0 0 0 0 0 0 0 0 18 0.002 
1136 1 0.0142485 0.106997 0.0179011 0 0 0 0.0640275 0.101143 0.831823 0 -0.000164368 0 0 0 0 0 0 0 0 0 0 0 0 0 0 0 0 0 3 0.002 
923 10 0.00301205 0.107811 0.017565 0 0 0 0.0311047 -0.0267432 0.0833801 -0.0306178 0.0452851 0.0229734 0 0 0 1 0 0 0 0 0 0 0 0 0 0 0 0 13 0.002 
843 4 0.0185938 0.107914 0.0169573 0 0 0 0.524224 0.214788 0.710029 0.0516911 0.00711584 0.0487571 0 0 0 0 0 0 0 0 0 0 0 0 0 0 0 0 1 0.002 
726 1 0.00525074 0.0754112 0.0204114 0 0 0 -0.165281 -0.120231 -0.00798907 0 -0.000164368 0 0 0 0 0 0 0 0 0 0 0 0 0 0 0 0 0 22 0.002 
1124 4 0.0186649 0.0759982 0.0211653 0 0 0 0.0150929 -0.318956 -0.0191685 0 -0.000164368 0 0 0 0 0 0 0 0 0 0 0 0 0 0 0 0 0 3 0.002 
1147 9 0.00653129 0.0815701 0.0197062 0 0 0 0.217526 -0.371743 1.32759 0 -0.000164368 0 0 0 0 0 0 0 0 0 0 0 0 0 0 0 0 0 4 0.002 
9 6 0.00999882 0.079644 0.0204872 0 0 0 0.0565073 -0.253453 -0.00860139 0 -0.000164368 0 0 0 0 0 0 0 0 0 0 0 0 0 0 0 0 0 45 0.002 
1129 5 0.0125532 0.0832001 0.0208364 0 0 0 0.438446 -0.493021 0.269177 0.00114016 0.00126326 0.00129328 0 0 0 0 0 0 0 0 0 0 0 0 0 0 0 0 4 0.002 
979 4 0.00608233 0.0864139 0.0194423 0 0 0 0.0640884 -0.155714 0.16212 -0.000666086 0.000197967 -2.37094e-05 0 0 0 1 0 0 0 0 0 0 0 0 0 0 0 0 19 0.002 
183 9 0.00300223 0.0883458 0.0211031 0 0 0 0.00568401 -0.109228 0.117232 0.000666086 -0.000526703 2.37094e-05 0 0 0 1 0 0 0 0 0 0 0 0 0 0 0 0 31 0.002 
274 4 0.0136015 0.0883414 0.0199172 0 0 0 -0.0446576 -0.258879 0.258191 -0.00073248 -0.000299208 -0.00032626 0 0 1 1 0 0 0 0 0 0 0 0 0 0 0 0 33 0.002 
888 1 0.0174675 0.0891498 0.020522 0 0 0 0.0079741 -0.252832 0.182579 -0.00298088 0.000622989 -0.00132536 1 0 0 1 0 0 0 0 0 0 0 0 0 0 0 0 22 0.002 
904 3 0.00311384 0.0923718 0.0195768 0 0 0 0.112764 -0.0782077 0.177208 0.00131098 0.0005353 -0.00237429 0 0 1 0 0 0 0 0 0 0 0 0 0 0 0 0 11 0.002 
403 8 0.014632 0.0923702 0.0203898 0 0 0 0.145256 -0.0732305 -0.0108979 -0.00873103 -0.0036321 -0.0044748 0 0 0 0 0 0 0 1 0 0 0 0 0 0 0 0 30 0.002 
954 5 0.0108009 0.0937722 0.0191549 0 0 0 0.262946 0.0642797 -0.0322272 -0.00366626 -0.00323859 -0.00037673 0 0 1 0 0 0 0 0 0 0 0 0 0 0 0 0 17 0.002 
543 1 0.0104211 0.0978987 0.0203066 0 0 0 0.0556797 -0.0373869 0.0336306 0.00510534 -0.000684588 0.00377464 1 0 0 0 0 1 0 0 0 0 0 0 0 0 0 0 32 0.002 
554 3 0.00300689 0.0989248 0.0190595 0 0 0 -0.0216601 -0.143256 0.014589 -0.00149268 -0.00161009 0.00793795 1 0 1 0 0 0 0 0 0 0 0 0 1 0 0 0 15 0.002 
402 1 0.0187218 0.0995413 0.0207997 0 0 0 0.0287369 -0.183567 0.0627461 5.2927e-05 0.00406415 -0.00351166 1 0 0 0 0 0 0 0 0 0 0 0 0 0 1 0 34 0.002 
996 2 0.0117291 0.101964 0.0211309 0 0 0 0.0101121 -0.0722813 0.162373 0.00327421 0.000687906 -0.0158403 1 2 0 0 0 0 0 0 0 0 0 0 0 0 0 0 16 0.002 
192 7 0.00326884 0.10434 0.0198897 0 0 0 0.00474546 -0.0241011 -0.0633673 0.000261859 -0.00030338 0.00067806 0 0 0 0 0 0 0 0 0 0 0 0 1 0 0 0 38 0.002 
252 6 0.00664064 0.106657 0.0204249 0 0 0 -0.0626829 -0.0254814 0.178124 -0.00344192 0.00391877 -0.00103198 0 0 0 0 0 1 0 0 0 0 0 0 0 0 0 0 19 0.002 
240 1 0.0117767 0.107876 0.0211652 0 0 0 -0.107867 -0.0254728 0.151603 0 -0.000164368 0 0 0 0 0 0 0 0 0 0 0 0 0 0 0 0 0 33 0.002 
278 11 0.00986928 0.076896 0.0234537 0 0 0 -0.0684789 0.226036 0.211576 0 -0.000164368 0 0 0 0 0 0 0 0 0 0 0 0 0 0 0 0 0 36 0.002 
235 3 0.0140498 0.0756242 0.0223361 0 0 0 0.109945 -0.501057 0.0593817 -0.0140995 -0.00655301 0.0277464 0 0 0 0 1 0 0 0 0 0 0 0 0 0 0 0 44 0.002 
56 7 0.00647219 0.0790741 0.0233586 0 0 0 -0.0931345 -0.344604 -0.0433103 0 -0.000164368 0 0 0 0 0 0 0 0 0 0 0 0 0 0 0 0 0 37 0.002 
639 9 0.00300852 0.0800021 0.0214943 0 0 0 0.000515514 -0.207016 0.115287 0 -0.000164368 0 0 0 0 0 0 0 0 0 0 0 0 0 0 0 0 0 38 0.002 
926 2 0.0172337 0.081152 0.0221004 0 0 0 0.152512 -0.166066 -0.0864214 -0.000329502 -0.0039288 -0.00600343 0 1 0 0 0 0 0 0 0 0 0 0 0 0 0 0 15 0.002 
1111 4 0.00305033 0.0837536 0.0229134 0 0 0 -0.00217283 -0.133847 0.0232443 0 -0.000164368 0 0 0 0 0 0 0 0 0 0 0 0 0 0 0 0 0 8 0.002 
657 3 0.00868159 0.0845746 0.0218749 0 0 0 0.289698 -0.239273 -0.0398156 -0.00117778 -0.00045279 -0.00106676 0 0 0 0 0 0 0 0 0 0 0 0 0 0 0 0 24 0.002 
368 5 0.0145108 0.0859286 0.0230088 0 0 0 0.389383 -0.282617 0.259514 -0.0237679 -0.00732982 -0.00484404 0 0 0 0 1 0 0 0 0 0 0 0 0 0 0 0 32 0.002 
299 1 0.00761681 0.0888525 0.0222887 0 0 0 0.406251 0.0224326 0.148827 0 -0.000164368 0 0 0 0 0 0 0 0 0 0 0 0 0 0 0 0 0 29 0.002 
475 2 0.0111258 0.0910054 0.0222389 0 0 0 0.696179 -0.221591 0.172361 0 -0.000164368 0 0 0 0 0 0 0 0 0 0 0 0 0 0 0 0 0 30 0.002 
65 2 0.0029893 0.0915862 0.0234892 0 0 0 0.113911 -0.08041 0.204698 0.00422045 -0.00315568 0.00201202 0 0 1 0 0 0 0 0 0 0 0 0 0 0 0 0 23 0.002 
206 6 0.00700923 0.0926324 0.0235009 0 0 0 -0.0229019 -7.3122e-05 0.0908935 -0.00152789 -0.00156919 -0.00656966 0 0 0 0 0 1 0 0 0 0 0 0 0 0 0 0 40 0.002 
1026 6 0.0175663 0.0922104 0.0230926 0 0 0 -0.0383364 -0.0516553 -0.0236038 0.0125219 0.000970095 0.00725387 1 0 0 0 0 2 0 1 0 0 0 0 0 0 0 0 21 0.002 
1077 1 0.00309004 0.0958221 0.0216128 0 0 0 -0.00478531 -0.0878693 0.191705 0 -0.000164368 0 0 0 0 0 0 0 0 0 0 0 0 0 0 0 0 0 7 0.002 
16 3 0.0103142 0.0949341 0.0229885 0 0 0 0.0681207 -0.0713288 -0.0790583 0.000588019 -0.00100624 0.00109389 1 0 0 0 0 0 0 0 0 0 0 0 0 0 0 0 42 0.002 
301 5 0.00682292 0.0972099 0.0220078 0 0 0 0.0227177 -0.0682928 0.117428 0 -0.000164368 0 0 0 0 0 0 0 0 0 0 0 0 0 0 0 0 0 39 0.002 
751 3 0.0167428 0.0961338 0.0229247 0 0 0 -0.0489357 -0.108283 0.120576 0 -0.000164368 0 0 0 0 0 0 0 0 0 0 0 0 0 0 0 0 0 24 0.002 
505 2 0.00300722 0.0996046 0.0229979 0 0 0 0.00558263 0.0339739 -0.00859171 -6.94001e-05 -0.00263794 -0.000708557 0 1 1 0 0 0 0 0 0 0 0 0 0 0 0 0 38 0.002 
1027 1 0.0143625 0.0993408 0.0225665 0 0 0 0.0542388 -0.0459731 -0.0198861 0.00658037 0.00167472 -0.00138282 1 1 0 0 0 0 0 0 0 0 0 0 0 0 0 0 9 0.002 
211 2 0.00727916 0.101244 0.0213344 0 0 0 0.051596 -0.0564102 0.0511031 0 -0.000164368 0 0 0 0 0 0 0 0 0 0 0 0 0 0 0 0 0 21 0.002 
361 3 0.00925955 0.104678 0.0226803 0 0 0 -0.00371059 -0.143783 0.192068 -0.0051907 0.00367285 -0.00306183 0 1 1 0 0 1 0 0 0 0 0 0 0 0 0 0 31 0.002 
1146 2 0.0148343 0.103982 0.0229451 0 0 0 -0.0013321 -0.141572 0.196966 0 -0.000164368 0 0 0 0 0 0 0 0 0 0 0 0 0 0 0 0 0 6 0.002 
983 5 0.00303355 0.108 0.0216193 0 0 0 -0.112102 -0.0120363 0.0719914 0 -0.000164368 0 0 0 0 0 0 0 0 0 0 0 0 0 0 0 0 0 11 0.002 
1074 10 0.0159493 0.107997 0.021675 0 0 0 -0.0507727 -0.043675 0.343005 0 -0.000164368 0 0 0 0 0 0 0 0 0 0 0 0 0 0 0 0 0 4 0.002 
827 2 0.00663249 0.0755761 0.0254578 0 0 0 -0.0488803 -0.312633 0.00616607 0 -0.000164368 0 0 0 0 0 0 0 0 0 0 0 0 0 0 0 0 0 21 0.002 
261 1 0.0170562 0.0757987 0.0249784 0 0 0 0.126051 -0.257941 0.169491 -0.00309649 -0.00815587 -0.00593054 1 0 0 0 0 0 0 0 0 0 0 0 0 0 0 0 33 0.002 
907 8 0.00301229 0.078303 0.0252589 0 0 0 -0.070132 -0.27447 0.0138785 0 -0.000164368 0 0 0 0 0 0 0 0 0 0 0 0 0 0 0 0 0 20 0.002 
993 8 0.00958579 0.081475 0.02437 0 0 0 -0.0874436 -0.280007 0.0441264 0 -0.000164368 0 0 0 0 0 0 0 0 0 0 0 0 0 0 0 0 0 23 0.002 
653 9 0.0133622 0.0801491 0.0246545 0 0 0 -0.0442979 -0.250381 0.14568 0.000673498 -0.00162165 -0.000799894 0 0 0 0 0 0 0 0 1 0 0 0 0 0 0 0 19 0.002 
729 9 0.00624711 0.0841738 0.0254613 0 0 0 -0.0359432 -0.253382 0.0471055 0.00793776 -0.00293478 -0.0108726 0 0 0 0 0 0 0 0 2 0 0 0 0 0 0 0 24 0.002 
237 10 0.0187029 0.0830575 0.0252787 0 0 0 0.0740681 -0.263786 0.0662322 0.000908897 -0.0033666 -0.00117665 0 1 0 0 0 0 0 0 0 2 0 0 0 0 0 0 38 0.002 
830 7 0.00311245 0.086796 0.0255693 0 0 0 0.0100901 -0.218261 0.0273691 0 -0.000164368 0 0 0 0 0 0 0 0 0 0 0 0 0 0 0 0 0 30 0.002 
703 3 0.0108298 0.0869398 0.0242747 0 0 0 0.187315 -0.389216 0.19803 -0.000266706 0.00408586 -0.00480743 0 0 1 0 0 0 0 0 0 0 0 0 0 0 0 0 22 0.002 
26 9 0.0181228 0.087049 0.0242712 0 0 0 0.0755958 -0.251017 0.102436 0.0226278 0.00557346 0.00355075 0 0 0 0 1 0 0 0 0 0 0 0 0 0 0 0 32 0.002 
862 3 0.0148777 0.0896 0.0245553 0 0 0 0.14275 -0.281905 0.101492 -0.00112553 0.00192475 -0.0040171 0 0 1 0 0 0 0 0 0 0 0 0 0 0 0 0 20 0.002 