ITEM: TIMESTEP
10850000
ITEM: NUMBER OF ATOMS
1329
ITEM: BOX BOUNDS ff ff ff
-0.01 0.45
-0.15 0.15
-0.08 0.1
ITEM: ATOMS id type x y z ix iy iz vx vy vz fx fy fz c_cc_1 c_cc_2 c_cc_3 c_cc_4 c_cc_5 c_cc_6 c_cc_7 c_cc_8 c_cc_9 c_cc_10 c_cc_11 c_cc_12 c_cc_13 c_cc_14 c_cc_15 c_cc_16 f_fppacc radius 
540 4 0.0146907 -0.0536982 -0.0206311 0 0 0 -5.50191 -20.1498 57.1126 0 -0.000164368 0 0 0 0 0 0 0 0 0 0 0 0 0 0 0 0 0 51 0.002 
1345 4 0.0116113 -0.0022015 -0.05551 0 0 0 0.905186 -20.7128 1.11559 0 -0.000164368 0 0 0 0 0 0 0 0 0 0 0 0 0 0 0 0 0 0 0.002 
314 6 0.0110719 -0.0170372 0.033086 0 0 0 0.360926 -1.74995 -0.659877 0 -0.000164368 0 0 0 0 0 0 0 0 0 0 0 0 0 0 0 0 0 33 0.002 
203 3 0.00480059 0.0339645 -0.0251267 0 0 0 0.706782 -1.65297 -0.127691 0 -0.000164368 0 0 0 0 0 0 0 0 0 0 0 0 0 0 0 0 0 48 0.002 
558 1 0.0141241 0.0230487 -0.053115 0 0 0 3.26424 -10.3569 -4.5597 -0.0616699 -0.110724 0.211678 0 0 0 0 0 0 0 0 0 0 0 0 0 0 0 0 7 0.002 
1264 1 0.0159662 0.0311306 0.0488238 0 0 0 14.8812 40.3817 -22.8552 0 -0.000164368 0 0 0 0 0 0 0 0 0 0 0 0 0 0 0 0 0 0 0.002 
1353 8 0.00547511 0.035295 0.0179833 0 0 0 0.703254 -7.5666 8.0171 0 -0.000164368 0 0 0 0 0 0 0 0 0 0 0 0 0 0 0 0 0 0 0.002 
338 6 0.00910396 0.0400136 -0.0411787 0 0 0 0.478757 -11.8911 -6.43397 0 -0.000164368 0 0 0 0 0 0 0 0 0 0 0 0 0 0 0 0 0 48 0.002 
41 1 0.0151206 0.0528441 -0.0354995 0 0 0 -1.43015e-16 -1.38735e-15 -2.80438e-12 -1.38778e-17 -5.55112e-17 0 1 0 0 0 0 0 0 0 0 0 0 0 0 0 0 0 4 0.002 
480 3 0.0160988 0.0564646 -0.0355005 0 0 0 1.85639e-16 1.5347e-15 -2.80397e-12 1.38778e-17 5.55112e-17 0 1 0 0 0 0 0 0 0 0 0 0 0 0 0 0 0 44 0.002 
843 4 0.0121482 0.0679055 -0.0321515 0 0 0 0.281072 -1.33575 0.209179 0 -0.000164368 0 0 0 0 0 0 0 0 0 0 0 0 0 0 0 0 0 14 0.002 
306 3 0.0079826 0.0631749 0.00336849 0 0 0 0.259127 -0.575932 -0.958877 0 -0.000164368 0 0 0 0 0 0 0 0 0 0 0 0 0 0 0 0 0 51 0.002 
1138 3 0.00731581 0.0583492 -0.0235701 0 0 0 1.18179 0.511808 2.77885 0 -0.000164368 0 0 0 0 0 0 0 0 0 0 0 0 0 0 0 0 0 10 0.002 
839 3 0.0185449 0.0487227 -0.0259415 0 0 0 -0.100841 -3.16954 -4.8574 0 -0.000164368 0 0 0 0 0 0 0 0 0 0 0 0 0 0 0 0 0 17 0.002 
64 4 0.0122495 0.0403697 -0.020106 0 0 0 1.2787 -5.92668 4.28723 0 -0.000164368 0 0 0 0 0 0 0 0 0 0 0 0 0 0 0 0 0 17 0.002 
773 5 0.0158187 0.0455461 -0.0155505 0 0 0 2.02991 -4.87275 0.149174 0 -0.000164368 0 0 0 0 0 0 0 0 0 0 0 0 0 0 0 0 0 24 0.002 
1136 1 0.0050332 0.065261 -0.0185031 0 0 0 -0.225476 0.999521 -4.43142 0 -0.000164368 0 0 0 0 0 0 0 0 0 0 0 0 0 0 0 0 0 20 0.002 
128 4 0.00629137 0.0669736 -0.00643029 0 0 0 -0.739437 -0.968706 -1.24877 0 -0.000164368 0 0 0 0 0 0 0 0 0 0 0 0 0 0 0 0 0 49 0.002 
946 1 0.0153491 0.070665 0.0329903 0 0 0 -0.00377179 -0.211715 0.00355295 -1.32366e-05 -0.000194701 3.06104e-05 1 0 0 0 0 0 0 0 0 0 0 0 0 0 0 0 36 0.002 
1142 2 0.00557964 0.0660346 0.0122857 0 0 0 0.200211 -0.502026 -0.985554 0 -0.000164368 0 0 0 0 0 0 0 0 0 0 0 0 0 0 0 0 0 27 0.002 
1039 3 0.0133127 0.0512842 0.0209161 0 0 0 1.27843 -0.688302 -0.627733 0 -0.000164368 0 0 0 0 0 0 0 0 0 0 0 0 0 0 0 0 0 15 0.002 
592 7 0.0100879 0.0744506 0.0201385 0 0 0 0.449968 -0.746651 0.216765 0 -0.000164368 0 0 0 0 0 0 0 0 0 0 0 0 0 0 0 0 0 46 0.002 
957 4 0.00335786 0.0640856 0.0225646 0 0 0 0.107392 0.202949 -0.675405 0 -0.000164368 0 0 0 0 0 0 0 0 0 0 0 0 0 0 0 0 0 39 0.002 
510 9 0.00843122 0.0678756 0.0227319 0 0 0 0.173995 0.647105 -1.00065 0 -0.000164368 0 0 0 0 0 0 0 0 0 0 0 0 0 0 0 0 0 91 0.002 
963 3 0.00755691 0.0741563 0.0233852 0 0 0 -0.0434643 -0.28412 0.100316 0 -0.000164368 0 0 0 0 0 0 0 0 0 0 0 0 0 0 0 0 0 28 0.002 
1268 9 0.0163806 0.0736269 0.0229009 0 0 0 -2.93462 1.12228 0.457833 0.359163 -0.260348 -0.0967737 0 0 0 0 0 0 0 0 2 0 0 0 0 0 0 0 9 0.002 
397 3 0.00578495 0.0469023 0.0252572 0 0 0 0.345624 -1.14037 -0.567769 0 -0.000164368 0 0 0 0 0 0 0 0 0 0 0 0 0 0 0 0 0 68 0.002 
1214 5 0.0150274 0.0662971 0.0255968 0 0 0 0.126265 -0.598786 -0.0281552 0 -0.000164368 0 0 0 0 0 0 0 0 0 0 0 0 0 0 0 0 0 13 0.002 
419 10 0.00344715 0.0717647 0.0255694 0 0 0 0.0258352 -0.439977 -0.0421197 0 -0.000164368 0 0 0 0 0 0 0 0 0 0 0 0 0 0 0 0 0 67 0.002 
331 7 0.00932586 0.0711492 0.0256249 0 0 0 0.103134 -0.379939 -0.0889988 0 -0.000164368 0 0 0 0 0 0 0 0 0 0 0 0 0 0 0 0 0 61 0.002 
601 8 0.0163958 0.0700881 0.0255628 0 0 0 0.019387 -0.491459 -0.041811 0 -0.000164368 0 0 0 0 0 0 0 0 0 0 0 0 0 0 0 0 0 41 0.002 
1065 3 0.00318944 0.0669436 0.0276097 0 0 0 -0.00717063 0.0258026 -0.0747033 0 -0.000164368 0 0 0 0 0 0 0 0 0 0 0 0 0 0 0 0 0 26 0.002 
243 5 0.0164142 0.0745675 0.027674 0 0 0 -0.145114 -0.202059 -0.0704709 0 -0.000164368 0 0 0 0 0 0 0 0 0 0 0 0 0 0 0 0 0 31 0.002 
1049 4 0.0136708 0.0641796 0.0289702 0 0 0 0.0273803 -0.24271 -0.183021 0 -0.000164368 0 0 0 0 0 0 0 0 0 0 0 0 0 0 0 0 0 26 0.002 
1127 2 0.00651306 0.0683482 0.0294134 0 0 0 -0.0610316 0.013189 -0.115904 -0.0262666 -0.00845572 0.000708456 0 1 0 0 0 0 0 0 0 0 0 0 0 0 0 0 28 0.002 
598 1 0.0102968 0.0695383 0.0292141 0 0 0 0.0346841 -0.309323 0.046784 0.0262666 0.00812698 -0.000708456 0 1 0 0 0 0 0 0 0 0 0 0 0 0 0 0 51 0.002 
433 9 0.0143217 0.0680314 0.0299845 0 0 0 -0.0775791 -0.269163 0.00317386 -0.000100466 -0.000123498 -7.21849e-06 0 0 0 0 0 0 0 0 1 0 0 0 0 0 0 0 55 0.002 
890 6 0.0136893 0.0718736 0.029003 0 0 0 -0.111033 -0.270657 -0.0269423 0 -0.000164368 0 0 0 0 0 0 0 0 0 0 0 0 0 0 0 0 0 44 0.002 
860 11 0.0108216 0.0747724 0.029543 0 0 0 -0.0175773 -0.25441 0.095917 0 -0.000164368 0 0 0 0 0 0 0 0 0 0 0 0 0 0 0 0 0 39 0.002 
378 2 0.00562692 0.0513207 0.0313161 0 0 0 0.0267589 -0.44969 -0.229221 0 -0.000164368 0 0 0 0 0 0 0 0 0 0 0 0 0 0 0 0 0 41 0.002 
1023 1 0.010241 0.0546886 0.031131 0 0 0 0.270431 -0.308761 -0.201006 0 -0.000164368 0 0 0 0 0 0 0 0 0 0 0 0 0 0 0 0 0 35 0.002 
749 4 0.0178706 0.0568859 0.0321514 0 0 0 0.514299 -0.182549 -0.104742 0 -0.000164368 0 0 0 0 0 0 0 0 0 0 0 0 0 0 0 0 0 47 0.002 
1073 6 0.00849714 0.0598284 0.0304151 0 0 0 -0.199976 -0.244164 -0.328603 0 -0.000164368 0 0 0 0 0 0 0 0 0 0 0 0 0 0 0 0 0 35 0.002 
923 10 0.00308689 0.0649261 0.0318926 0 0 0 0.0167908 0.0363339 -0.030635 0 -0.000164368 0 0 0 0 0 0 0 0 0 0 0 0 0 0 0 0 0 33 0.002 
668 7 0.0182417 0.0682867 0.0307325 0 0 0 -0.0633736 -0.122084 -0.093165 0.000100466 -0.000205238 7.21849e-06 0 0 0 0 0 0 0 0 1 0 0 0 0 0 0 0 42 0.002 
519 1 0.00347623 0.0724284 0.0303397 0 0 0 -0.123185 -0.0356241 -0.102074 -0.00401619 -0.00338112 0.00712752 1 0 0 0 0 0 0 0 0 0 0 0 0 0 0 0 47 0.002 
1174 9 0.00718069 0.0739238 0.0309786 0 0 0 -0.102624 -0.133629 0.0468165 0 -0.000164368 0 0 0 0 0 0 0 0 0 0 0 0 0 0 0 0 0 11 0.002 
1189 5 0.0164832 0.0743214 0.0318375 0 0 0 -0.0959456 -0.16552 0.00883427 1.32366e-05 -0.000134036 -3.06104e-05 1 0 0 0 0 0 0 0 0 0 0 0 0 0 0 0 15 0.002 
1122 1 0.00325244 0.0591457 0.0330006 0 0 0 0.10034 -0.259903 0.0941672 -0.000261381 0.0227571 -0.00488324 0 0 0 0 0 0 0 0 0 0 0 0 0 0 0 0 28 0.002 
960 3 0.015706 0.0607014 0.0329176 0 0 0 0.175984 -0.194775 -0.0194196 0 -0.000164368 0 0 0 0 0 0 0 0 0 0 0 0 0 0 0 0 0 32 0.002 
1206 3 0.0069691 0.0640504 0.0327593 0 0 0 0.0310822 0.0208128 -0.0421813 0 -0.000164368 0 0 0 0 0 0 0 0 0 0 0 0 0 0 0 0 0 24 0.002 
690 2 0.0111254 0.0644827 0.032969 0 0 0 0.123814 -0.18078 -0.0257953 0 -0.000164368 0 0 0 0 0 0 0 0 0 0 0 0 0 0 0 0 0 34 0.002 
1017 2 0.0170464 0.0650482 0.032946 0 0 0 0.173034 -0.207913 -0.0174688 0 -0.000164368 0 0 0 0 0 0 0 0 0 0 0 0 0 0 0 0 0 12 0.002 
881 1 0.0031287 0.069336 0.0328489 0 0 0 -0.123132 -0.0770043 0.0234429 0.000116423 0.0022821 -0.00119377 0 0 0 0 0 0 0 0 0 0 0 0 0 0 0 0 38 0.002 
1091 5 0.0116941 0.06847 0.0329705 0 0 0 -0.0418093 -0.187695 -0.0140948 0 -0.000164368 0 0 0 0 0 0 0 0 0 0 0 0 0 0 0 0 0 28 0.002 
375 4 0.00814378 0.0704449 0.032862 0 0 0 -0.0305119 -0.119101 -0.00903064 0 -0.000164368 0 0 0 0 0 0 0 0 0 0 0 0 0 0 0 0 0 49 0.002 
765 1 0.0115915 0.0724924 0.0328406 0 0 0 -0.0445539 -0.159139 0.153047 0 -0.000164368 0 0 0 0 0 0 0 0 0 0 0 0 0 0 0 0 0 41 0.002 
1346 3 0.0096291 0.0798946 -0.0327949 0 0 0 -8.22041 4.74744 -11.0808 -0.0436231 -0.0273585 -0.0384075 0 0 1 0 0 0 0 0 0 0 0 0 0 0 0 0 1 0.002 
712 2 0.00378243 0.0895412 -0.0327962 0 0 0 0.211665 -1.20608 0.0283364 0 -0.000164368 0 0 0 0 0 0 0 0 0 0 0 0 0 0 0 0 0 46 0.002 
133 1 0.00993784 0.0915352 -0.0312468 0 0 0 -0.974309 -0.272103 0.892681 0 -0.000164368 0 0 0 0 0 0 0 0 0 0 0 0 0 0 0 0 0 56 0.002 
718 11 0.00387475 0.0946121 -0.0328411 0 0 0 -0.589629 -0.548918 0.0315003 0 -0.000164368 0 0 0 0 0 0 0 0 0 0 0 0 0 0 0 0 0 53 0.002 
1291 4 0.00377359 0.0995352 -0.0329657 0 0 0 -0.281132 -0.334129 -0.484578 0 -0.000164368 0 0 0 0 0 0 0 0 0 0 0 0 0 0 0 0 0 4 0.002 
1012 7 0.0077518 0.0989477 -0.0323727 0 0 0 -0.45377 -0.533295 0.155577 0 -0.000164368 0 0 0 0 0 0 0 0 0 0 0 0 0 0 0 0 0 32 0.002 
1329 3 0.00620969 0.102739 -0.0326996 0 0 0 -0.16204 -0.35356 0.103532 0 -0.000164368 0 0 0 0 0 0 0 0 0 0 0 0 0 0 0 0 0 0 0.002 
1334 15 0.0117003 0.102567 -0.0329898 0 0 0 -0.380695 -0.281618 0.0744831 0 -0.000164368 0 0 0 0 0 0 0 0 0 0 0 0 0 0 0 0 0 0 0.002 
567 7 0.00311049 0.105315 -0.0329458 0 0 0 0.00458953 -0.0481709 0.0498734 0 -0.000164368 0 0 0 0 0 0 0 0 0 0 0 0 0 0 0 0 0 29 0.002 
675 1 0.0155683 0.1037 -0.0325591 0 0 0 -0.203201 -0.415703 0.206392 0 -0.000164368 0 0 0 0 0 0 0 0 0 0 0 0 0 0 0 0 0 38 0.002 
1148 4 0.0100345 0.106422 -0.0323865 0 0 0 -0.1019 -0.304018 -0.00720332 0 -0.000164368 0 0 0 0 0 0 0 0 0 0 0 0 0 0 0 0 0 13 0.002 
971 2 0.00630256 0.107875 -0.0329302 0 0 0 -0.0591405 -0.0340774 0.0296852 0 -0.000164368 0 0 0 0 0 0 0 0 0 0 0 0 0 0 0 0 0 25 0.002 
1129 5 0.0138225 0.107896 -0.0320885 0 0 0 -0.111126 -0.0458321 0.212479 0 -0.000164368 0 0 0 0 0 0 0 0 0 0 0 0 0 0 0 0 0 23 0.002 
956 1 0.0146625 0.0768742 -0.0291109 0 0 0 0.0282448 0.22165 0.477682 0 -0.000164368 0 0 0 0 0 0 0 0 0 0 0 0 0 0 0 0 0 12 0.002 
740 1 0.00759505 0.0955976 -0.0296084 0 0 0 -0.279522 -0.700221 -0.220072 0 -0.000164368 0 0 0 0 0 0 0 0 0 0 0 0 0 0 0 0 0 42 0.002 
1111 4 0.011703 0.0986469 -0.0307403 0 0 0 -0.33291 -0.452895 0.121715 0 -0.000164368 0 0 0 0 0 0 0 0 0 0 0 0 0 0 0 0 0 14 0.002 
972 3 0.00706322 0.105539 -0.0295276 0 0 0 0.0137822 -0.308982 -0.0304166 0 -0.000164368 0 0 0 0 0 0 0 0 0 0 0 0 0 0 0 0 0 26 0.002 
618 7 0.00456634 0.091255 -0.0292647 0 0 0 -0.297442 -0.616097 0.107911 0 -0.000164368 0 0 0 0 0 0 0 0 0 0 0 0 0 0 0 0 0 36 0.002 
944 4 0.00366085 0.0948862 -0.0275843 0 0 0 -0.232834 -0.835951 0.319584 0 -0.000164368 0 0 0 0 0 0 0 0 0 0 0 0 0 0 0 0 0 2 0.002 
194 2 0.0119127 0.0943684 -0.0286982 0 0 0 0.0221026 -0.896744 -0.287109 0 -0.000164368 0 0 0 0 0 0 0 0 0 0 0 0 0 0 0 0 0 39 0.002 
245 1 0.00723897 0.0995745 -0.0275033 0 0 0 0.0533566 -0.528332 0.582413 0 -0.000164368 0 0 0 0 0 0 0 0 0 0 0 0 0 0 0 0 0 34 0.002 
896 1 0.00300826 0.10093 -0.0292204 0 0 0 0.0196244 -0.148972 -0.269863 0 -0.000164368 0 0 0 0 0 0 0 0 0 0 0 0 0 0 0 0 0 40 0.002 
209 9 0.0141777 0.102484 -0.0284978 0 0 0 -0.378135 -0.582855 0.626704 0 -0.000164368 0 0 0 0 0 0 0 0 0 0 0 0 0 0 0 0 0 10 0.002 
1032 4 0.00310064 0.104873 -0.0281549 0 0 0 -0.0163279 -0.150541 0.119529 0 -0.000164368 0 0 0 0 0 0 0 0 0 0 0 0 0 0 0 0 0 18 0.002 
997 6 0.00994508 0.103151 -0.027316 0 0 0 -0.130206 -0.284151 0.258898 0 -0.000164368 0 0 0 0 0 0 0 0 0 0 0 0 0 0 0 0 0 23 0.002 
995 2 0.0108408 0.107647 -0.0279729 0 0 0 0.0984852 -0.105232 0.245156 0 -0.000164368 0 0 0 0 0 0 0 0 0 0 0 0 0 0 0 0 0 21 0.002 
1236 1 0.0157899 0.107716 -0.0285317 0 0 0 -0.416346 0.0791876 0.513246 0 -0.000164368 0 0 0 0 0 0 0 0 0 0 0 0 0 0 0 0 0 7 0.002 
1103 1 0.0035081 0.087657 -0.0246965 0 0 0 -1.41887 1.21517 2.36155 0 -0.000164368 0 0 0 0 0 0 0 0 0 0 0 0 0 0 0 0 0 29 0.002 
753 6 0.0168706 0.0879448 -0.0257849 0 0 0 0.427592 0.93693 1.44553 0 -0.000164368 0 0 0 0 0 0 0 0 0 0 0 0 0 0 0 0 0 64 0.002 
1003 7 0.017253 0.0925413 -0.0267607 0 0 0 7.0696 3.45496 -6.84402 -0.274483 -0.201499 0.359157 0 0 0 0 0 0 1 0 0 0 0 0 0 0 0 0 27 0.002 
735 8 0.00307882 0.09986 -0.0252772 0 0 0 -0.0631636 -0.058819 -0.0260808 0 -0.000164368 0 0 0 0 0 0 0 0 0 0 0 0 0 0 0 0 0 24 0.002 
535 3 0.0107265 0.0982729 -0.0254926 0 0 0 -0.185091 -0.373578 -0.195923 0 -0.000164368 0 0 0 0 0 0 0 0 0 0 0 0 0 0 0 0 0 30 0.002 
477 2 0.00569532 0.107487 -0.0252191 0 0 0 -0.343501 -0.163306 0.180234 0 -0.000164368 0 0 0 0 0 0 0 0 0 0 0 0 0 0 0 0 0 15 0.002 
1347 4 0.00710448 0.0880891 -0.0228565 0 0 0 -0.0355416 0.784117 2.33728 0 -0.000164368 0 0 0 0 0 0 0 0 0 0 0 0 0 0 0 0 0 0 0.002 
508 9 0.00391555 0.0934411 -0.0236466 0 0 0 1.00054 -0.736562 0.1051 0 -0.000164368 0 0 0 0 0 0 0 0 0 0 0 0 0 0 0 0 0 60 0.002 
928 2 0.00960937 0.10135 -0.0223626 0 0 0 -0.524615 -0.801269 0.541825 0 -0.000164368 0 0 0 0 0 0 0 0 0 0 0 0 0 0 0 0 0 43 0.002 
988 10 0.00617075 0.103322 -0.023474 0 0 0 -0.0833671 0.285791 0.194159 0 -0.000164368 0 0 0 0 0 0 0 0 0 0 0 0 0 0 0 0 0 21 0.002 
828 2 0.017901 0.107422 -0.0249184 0 0 0 -0.0753637 1.78992 -1.41458 0 -0.000164368 0 0 0 0 0 0 0 0 0 0 0 0 0 0 0 0 0 35 0.002 
431 5 0.0142515 0.107932 -0.0231753 0 0 0 -0.569755 -0.33207 -0.553508 0 -0.000164368 0 0 0 0 0 0 0 0 0 0 0 0 0 0 0 0 0 13 0.002 
1354 3 0.00307794 0.0832063 -0.0203441 0 0 0 0.0216311 -1.69444 -0.114069 0 -0.000164368 0 0 0 0 0 0 0 0 0 0 0 0 0 0 0 0 0 0 0.002 
1175 4 0.0152126 0.0919461 -0.0234112 0 0 0 -0.220889 12.354 0.727751 0.274483 0.20117 -0.359157 0 0 0 0 0 0 1 0 0 0 0 0 0 0 0 0 11 0.002 
1314 3 0.00367093 0.0991561 -0.0212877 0 0 0 0.626181 -1.02059 -0.00893613 0 -0.000164368 0 0 0 0 0 0 0 0 0 0 0 0 0 0 0 0 0 1 0.002 
438 2 0.0105606 0.107131 -0.0214435 0 0 0 -0.682319 -0.209018 0.674866 0 -0.000164368 0 0 0 0 0 0 0 0 0 0 0 0 0 0 0 0 0 48 0.002 
12 9 0.00520724 0.107953 -0.0212107 0 0 0 -0.0654311 -0.0355728 0.249461 0 -0.000164368 0 0 0 0 0 0 0 0 0 0 0 0 0 0 0 0 0 49 0.002 
620 1 0.0118649 0.0799326 -0.029928 0 0 0 9.24607 -5.817 -10.496 0.0436231 0.0270298 0.0384075 0 0 1 0 0 0 0 0 0 0 0 0 0 0 0 0 31 0.002 
175 5 0.0041124 0.0920493 -0.0190634 0 0 0 0.451983 -0.183904 0.180595 0 -0.000164368 0 0 0 0 0 0 0 0 0 0 0 0 0 0 0 0 0 18 0.002 
677 9 0.0101762 0.10108 -0.0183491 0 0 0 -0.821857 -0.685427 0.315757 0 -0.000164368 0 0 0 0 0 0 0 0 0 0 0 0 0 0 0 0 0 69 0.002 
823 9 0.00686527 0.104149 -0.0183009 0 0 0 0.0991102 -0.342037 0.804587 0 -0.000164368 0 0 0 0 0 0 0 0 0 0 0 0 0 0 0 0 0 22 0.002 
554 3 0.00299608 0.105839 -0.0183619 0 0 0 -0.200079 -0.139322 -0.376218 0.0163827 0.00428517 0.0183101 0 0 1 0 0 0 0 0 0 0 0 0 0 0 0 0 28 0.002 
1262 8 0.0171775 0.107048 -0.0200422 0 0 0 -1.61338 -1.83863 -0.838722 0 -0.000164368 0 0 0 0 0 0 0 0 0 0 0 0 0 0 0 0 0 2 0.002 
1052 1 0.00580581 0.0978378 -0.0163546 0 0 0 -1.22331 -0.165611 0.434469 0 -0.000164368 0 0 0 0 0 0 0 0 0 0 0 0 0 0 0 0 0 24 0.002 
1195 2 0.00880209 0.107885 -0.0172305 0 0 0 -0.212474 -0.0507296 0.761648 0 -0.000164368 0 0 0 0 0 0 0 0 0 0 0 0 0 0 0 0 0 0 0.002 
526 2 0.0129582 0.107772 -0.0172203 0 0 0 -0.983692 -0.844504 0.318082 0 -0.000164368 0 0 0 0 0 0 0 0 0 0 0 0 0 0 0 0 0 34 0.002 
766 7 0.0132857 0.0967766 -0.0113129 0 0 0 -2.02 1.14509 3.77068 0.118681 -0.0639584 -0.0287286 0 0 0 0 0 0 0 0 0 0 0 0 0 0 0 0 45 0.002 
156 4 0.00782145 0.100561 -0.0142109 0 0 0 -0.889754 -0.160158 0.708899 0 -0.000164368 0 0 0 0 0 0 0 0 0 0 0 0 0 0 0 0 0 39 0.002 
1031 3 0.0151903 0.101443 -0.0132811 0 0 0 -1.02962 -0.129697 0.219227 0 -0.000164368 0 0 0 0 0 0 0 0 0 0 0 0 0 0 0 0 0 26 0.002 
898 1 0.0131101 0.105096 -0.0133638 0 0 0 -0.468882 -0.52525 0.209239 -0.0332394 -0.0189506 0.0318402 1 0 0 0 0 0 0 0 0 0 0 0 0 0 0 0 22 0.002 
1324 2 0.0167887 0.105655 -0.0147287 0 0 0 -0.772692 0.615175 0.11061 0.0332394 0.0186219 -0.0318402 1 0 0 0 0 0 0 0 0 0 0 0 0 0 0 0 1 0.002 
974 2 0.00389546 0.106663 -0.014573 0 0 0 -0.347507 -0.0245986 0.115608 -0.00403622 4.26611e-05 -0.0170563 0 1 1 0 0 0 0 0 0 0 0 0 0 0 0 0 35 0.002 
984 3 0.00812966 0.0961723 -0.0128112 0 0 0 -0.13673 -0.130945 0.0437533 0 -0.000164368 0 0 0 0 0 0 0 0 0 0 0 0 0 0 0 0 0 32 0.002 
603 7 0.0108015 0.0998649 -0.0114262 0 0 0 -1.00168 -0.102696 -0.534715 -0.118681 0.0636296 0.0287286 0 0 0 0 0 0 0 0 0 0 0 0 0 0 0 0 41 0.002 
1327 4 0.00615035 0.103953 -0.0127105 0 0 0 -0.690678 -0.0244483 0.422475 0.00752369 -0.00376513 0.00862495 0 1 0 0 0 0 0 0 0 0 0 0 0 0 0 0 1 0.002 
1212 1 0.0160424 0.107574 -0.0112496 0 0 0 -0.589943 -0.0997488 0.249779 0 -0.000164368 0 0 0 0 0 0 0 0 0 0 0 0 0 0 0 0 0 11 0.002 
1331 1 0.010499 0.0799218 -0.0103017 0 0 0 0.691754 -0.433428 -2.38734 -0.0134925 0.0123196 0.000841693 0 0 0 0 0 0 0 0 0 0 0 0 0 0 0 0 0 0.002 
44 5 0.00400553 0.102461 -0.00843951 0 0 0 0.639365 -1.09757 0.726289 0 -0.000164368 0 0 0 0 0 0 0 0 0 0 0 0 0 0 0 0 0 35 0.002 
262 3 0.00849115 0.104658 -0.0088587 0 0 0 0.0429339 0.57564 -0.174593 0 -0.000164368 0 0 0 0 0 0 0 0 0 0 0 0 0 0 0 0 0 40 0.002 
857 7 0.0118854 0.107289 -0.0100572 0 0 0 -0.239102 -0.258315 0.0934087 0 -0.000164368 0 0 0 0 0 0 0 0 0 0 0 0 0 0 0 0 0 21 0.002 
77 12 0.00318292 0.107836 -0.0106063 0 0 0 0.14931 -0.117117 -0.209333 0 -0.000164368 0 0 0 0 0 0 0 0 0 0 0 0 0 0 0 0 0 55 0.002 
782 1 0.00916857 0.0936802 -0.00760996 0 0 0 0.586146 -1.0513 -1.24843 0 -0.000164368 0 0 0 0 0 0 0 0 0 0 0 0 0 0 0 0 0 19 0.002 
604 8 0.0157141 0.10352 -0.00736404 0 0 0 -0.209836 -0.269736 -0.188275 0 -0.000164368 0 0 0 0 0 0 0 0 0 0 0 0 0 0 0 0 0 38 0.002 
645 2 0.00655607 0.107714 -0.00702127 0 0 0 -0.254335 -0.0247264 0.709409 0 -0.000164368 0 0 0 0 0 0 0 0 0 0 0 0 0 0 0 0 0 39 0.002 
1323 9 0.0150931 0.107777 -0.00731046 0 0 0 -0.284882 0.151842 0.49567 0.0289886 -0.00237186 -0.0101457 0 0 0 0 0 0 0 0 1 0 0 0 0 0 0 0 1 0.002 
1066 1 0.00815563 0.0803546 -0.00715466 0 0 0 -0.0314878 -0.870373 -1.37397 0.0134925 -0.0126483 -0.000841693 0 0 0 0 0 0 0 0 0 0 0 0 0 0 0 0 27 0.002 
1310 1 0.00426963 0.0843159 -0.00649634 0 0 0 -1.26029 0.64973 -0.921117 0 -0.000164368 0 0 0 0 0 0 0 0 0 0 0 0 0 0 0 0 0 1 0.002 
895 10 0.00674598 0.0962476 -0.00443107 0 0 0 0.492172 -0.779245 -0.308164 0 -0.000164368 0 0 0 0 0 0 0 0 0 0 0 0 0 0 0 0 0 44 0.002 
1105 7 0.00775338 0.10325 -0.00516557 0 0 0 0.469756 1.03973 0.456924 -0.0122126 0.00104636 0.00193435 0 0 0 0 0 0 1 0 0 0 0 0 0 0 0 0 14 0.002 
1043 8 0.00447472 0.105327 -0.00422891 0 0 0 0.0877655 0.738119 1.36394 0.0012577 0.0485042 -0.0556384 0 0 0 0 0 0 1 1 0 0 0 0 0 0 0 0 15 0.002 
181 6 0.0117131 0.107953 -0.00524835 0 0 0 -0.437974 -0.0461185 0.557386 -0.0289886 0.00204313 0.0101457 0 0 0 0 0 0 0 0 1 0 0 0 0 0 0 0 34 0.002 
1159 4 0.00666764 0.0890725 -0.0023222 0 0 0 -0.0549043 -0.167056 0.226636 0.0400144 0.0325355 -0.0159635 0 0 0 1 0 0 0 0 0 0 0 0 0 0 0 0 16 0.002 
344 1 0.0163951 0.104989 -0.00254456 0 0 0 -0.177367 0.0150292 -0.0825512 0 -0.000164368 0 0 0 0 0 0 0 0 0 0 0 0 0 0 0 0 0 43 0.002 
790 3 0.00849582 0.107262 -0.00248362 0 0 0 -0.119612 -0.0747518 0.292264 0 -0.000164368 0 0 0 0 0 0 0 0 0 0 0 0 0 0 0 0 0 37 0.002 
1016 8 0.00411153 0.0864174 -0.000931386 0 0 0 -1.69691 0.413964 -0.427676 -0.0400144 -0.0328642 0.0159635 0 0 0 1 0 0 0 0 0 0 0 0 0 0 0 0 29 0.002 
731 2 0.0104152 0.107904 0.00968854 0 0 0 0.112694 -0.0658354 0.154237 0 -0.000164368 0 0 0 0 0 0 0 0 0 0 0 0 0 0 0 0 0 29 0.002 
453 3 0.0138142 0.09619 -0.00186853 0 0 0 0.497932 0.4754 -0.724448 0 -0.000164368 0 0 0 0 0 0 0 0 0 0 0 0 0 0 0 0 0 35 0.002 
1146 2 0.00604403 0.102367 -0.000688685 0 0 0 0.38401 0.558792 0.467117 0 -0.000164368 0 0 0 0 0 0 0 0 0 0 0 0 0 0 0 0 0 24 0.002 
1057 3 0.0107126 0.101926 0.000478041 0 0 0 -0.167456 -0.47158 -0.183856 0 -0.000164368 0 0 0 0 0 0 0 0 0 0 0 0 0 0 0 0 0 14 0.002 
1056 1 0.00299917 0.10544 -0.000515773 0 0 0 0.0321335 0.379703 -0.153416 0.00959005 -0.0494165 0.0539733 0 0 0 0 0 0 0 1 0 0 0 0 0 0 0 0 15 0.002 
1193 8 0.00616309 0.107524 0.000770459 0 0 0 -0.0584667 0.309717 0.335463 0 -0.000164368 0 0 0 0 0 0 0 0 0 0 0 0 0 0 0 0 0 28 0.002 
536 2 0.0130382 0.105632 -0.000204254 0 0 0 -0.196126 -0.478876 0.237 0 -0.000164368 0 0 0 0 0 0 0 0 0 0 0 0 0 0 0 0 0 41 0.002 
653 9 0.01295 0.0899237 0.00228077 0 0 0 -0.529272 -0.62381 -0.610633 0 -0.000164368 0 0 0 0 0 0 0 0 0 0 0 0 0 0 0 0 0 36 0.002 
992 6 0.00850218 0.0965103 0.00219777 0 0 0 0.094709 0.112438 -0.248482 0 -0.000164368 0 0 0 0 0 0 0 0 0 0 0 0 0 0 0 0 0 15 0.002 
1279 4 0.0079128 0.104258 0.00303772 0 0 0 0.076997 -0.0522356 0.16169 -0.00409382 -0.0025513 0.00271297 0 0 0 0 0 0 0 0 0 0 0 0 0 0 0 0 6 0.002 
728 1 0.0179467 0.104089 0.00180328 0 0 0 0.0316393 0.0184069 0.0150126 0 -0.000164368 0 0 0 0 0 0 0 0 0 0 0 0 0 0 0 0 0 32 0.002 
1025 4 0.0100254 0.10742 0.00181832 0 0 0 0.0358314 -0.0759719 0.190419 0.00269275 0.0022323 -0.00441699 0 0 0 1 0 0 0 0 0 0 0 0 0 0 0 0 32 0.002 
298 9 0.017416 0.107997 0.00263269 0 0 0 0.104669 0.101403 0.169959 0 -0.000164368 0 0 0 0 0 0 0 0 0 0 0 0 0 0 0 0 0 8 0.002 
68 9 0.0176959 0.0895768 0.00518804 0 0 0 -0.571883 0.327205 -0.943688 0 -0.000164368 0 0 0 0 0 0 0 0 0 0 0 0 0 0 0 0 0 60 0.002 
763 3 0.00420529 0.0973136 0.00324468 0 0 0 0.428489 -0.581912 0.281905 0 -0.000164368 0 0 0 0 0 0 0 0 0 0 0 0 0 0 0 0 0 51 0.002 
1226 6 0.0180707 0.097593 0.00422227 0 0 0 -0.69891 0.925002 -0.559236 0 -0.000164368 0 0 0 0 0 0 0 0 0 0 0 0 0 0 0 0 0 15 0.002 
515 5 0.011882 0.100117 0.00429776 0 0 0 0.190902 0.0430516 0.160457 -0.00101069 0.000119466 -0.00200998 0 0 0 0 1 0 0 0 0 0 0 0 0 0 0 0 47 0.002 
416 5 0.00402625 0.106243 0.00485219 0 0 0 -0.0691166 -0.0124047 0.148307 0 -0.000164368 0 0 0 0 0 0 0 0 0 0 0 0 0 0 0 0 0 53 0.002 
1312 4 0.0146182 0.106296 0.00522813 0 0 0 0.0990394 -0.0560842 0.268329 0 -0.000164368 0 0 0 0 0 0 0 0 0 0 0 0 0 0 0 0 0 1 0.002 
58 1 0.00510257 0.0784023 0.00634341 0 0 0 0.104543 -0.365774 -0.330002 0 -0.000164368 0 0 0 0 0 0 0 0 0 0 0 0 0 0 0 0 0 52 0.002 
703 3 0.00868976 0.0919875 0.00612946 0 0 0 0.420748 0.319269 0.427755 0 -0.000164368 0 0 0 0 0 0 0 0 0 0 0 0 0 0 0 0 0 40 0.002 
533 4 0.0129588 0.0952997 0.00575258 0 0 0 0.725071 -0.198456 -0.327422 0.00152666 0.00548417 0.00116263 0 0 0 1 0 0 0 0 0 0 0 0 0 0 0 0 62 0.002 
1338 1 0.0074018 0.0982776 0.00622609 0 0 0 0.183056 0.174951 -0.147091 0 -0.000164368 0 0 0 0 0 0 0 0 0 0 0 0 0 0 0 0 0 0 0.002 
1196 5 0.00301916 0.100292 0.00610208 0 0 0 0.0130196 0.059173 -0.099876 0 -0.000164368 0 0 0 0 0 0 0 0 0 0 0 0 0 0 0 0 0 12 0.002 
845 3 0.0147796 0.0987364 0.00667799 0 0 0 0.253607 0.181082 0.13532 -0.00051597 -0.00609674 0.000847347 0 0 0 1 1 0 0 0 0 0 0 0 0 0 0 0 35 0.002 
572 3 0.0185809 0.100533 0.00709097 0 0 0 0.410704 0.390949 0.644825 0 -0.000164368 0 0 0 0 0 0 0 0 0 0 0 0 0 0 0 0 0 36 0.002 
311 2 0.0144666 0.102911 0.00738322 0 0 0 0.0587861 -0.0991542 0.164135 -6.20281e-05 -0.000114565 2.53286e-05 0 1 0 0 0 0 0 0 0 0 0 0 0 0 0 0 50 0.002 
548 4 0.00539043 0.103357 0.00740509 0 0 0 0.0599897 -0.0217765 0.19432 -0.00327206 -0.00200759 -0.00565363 0 0 0 1 0 0 0 0 0 0 0 0 0 0 0 0 48 0.002 
1280 1 0.0104356 0.103952 0.00617664 0 0 0 0.143879 0.0451731 0.15634 0 -0.000164368 0 0 0 0 0 0 0 0 0 0 0 0 0 0 0 0 0 1 0.002 
1154 12 0.0183764 0.105108 0.00598881 0 0 0 0.042914 -0.198194 0.267569 6.79514e-05 0.000377937 0.000190457 0 0 0 0 0 0 0 0 0 0 0 1 0 0 0 0 16 0.002 
337 8 0.00741953 0.106938 0.00713383 0 0 0 0.00604857 0.135781 0.128585 0 -0.000164368 0 0 0 0 0 0 0 0 0 0 0 0 0 0 0 0 0 44 0.002 
368 5 0.0109923 0.107992 0.00564878 0 0 0 0.13312 -0.00939197 0.212669 0.00140107 -0.000174104 0.00170402 0 0 0 1 0 0 0 0 0 0 0 0 0 0 0 0 44 0.002 
1172 8 0.0101444 0.0859271 0.00748642 0 0 0 -0.285494 3.26666 -2.53579 0 -0.000164368 0 0 0 0 0 0 0 0 0 0 0 0 0 0 0 0 0 26 0.002 
916 8 0.0146997 0.0851554 0.00944401 0 0 0 -0.440407 1.06184 -0.400236 0 -0.000164368 0 0 0 0 0 0 0 0 0 0 0 0 0 0 0 0 0 39 0.002 
488 6 0.00310982 0.0873704 0.00793673 0 0 0 0.0809785 -0.298583 -0.0660906 0 -0.000164368 0 0 0 0 0 0 0 0 0 0 0 0 0 0 0 0 0 50 0.002 
786 1 0.00661328 0.0892891 0.00909295 0 0 0 0.268505 -0.50174 0.176338 0 -0.000164368 0 0 0 0 0 0 0 0 0 0 0 0 0 0 0 0 0 41 0.002 
20 3 0.00307727 0.0926291 0.00858296 0 0 0 -0.0589284 -0.216649 -0.11864 0 -0.000164368 0 0 0 0 0 0 0 0 0 0 0 0 0 0 0 0 0 43 0.002 
621 4 0.0030445 0.10798 0.00844244 0 0 0 -0.012962 0.0720502 0.156763 -2.44459e-05 -9.78772e-05 -9.75508e-05 0 0 0 1 0 0 0 0 0 0 0 0 0 0 0 0 41 0.002 
154 5 0.0106133 0.0997921 0.00857048 0 0 0 0.197535 -0.063008 0.195491 0 -0.000164368 0 0 0 0 0 0 0 0 0 0 0 0 0 0 0 0 0 14 0.002 
835 12 0.0116709 0.104103 0.00998257 0 0 0 0.0527972 -0.0492483 0.1488 -3.33732e-05 -0.000241768 0.000171822 0 1 0 0 0 0 0 0 0 0 0 1 0 0 0 0 35 0.002 
369 6 0.0161114 0.107087 0.00890545 0 0 0 0.0135365 -0.0606427 0.125909 0 -0.000164368 0 0 0 0 0 0 0 0 0 0 0 0 0 0 0 0 0 40 0.002 
336 9 0.00299808 0.0907219 0.012215 0 0 0 -0.0397294 0.03889 -0.0205637 -0.00417075 0.0414627 -0.00240125 0 0 0 0 0 0 0 0 1 0 0 0 0 0 0 0 49 0.002 
1289 4 0.00578963 0.093563 0.0114388 0 0 0 -0.000161067 -0.106754 -0.0615 0 -0.000164368 0 0 0 0 0 0 0 0 0 0 0 0 0 0 0 0 0 1 0.002 
705 14 0.0132438 0.0968349 0.0101301 0 0 0 0.221718 -0.0488359 0.195047 0 -0.000164368 0 0 0 0 0 0 0 0 0 0 0 0 0 0 0 0 0 45 0.002 
1115 2 0.00953933 0.0985017 0.0122925 0 0 0 0.111105 -0.0795982 0.180987 0.00410185 -0.000786266 -0.00337841 0 1 0 0 0 0 0 0 0 0 0 0 0 0 0 0 21 0.002 
1068 4 0.0137447 0.100607 0.0114877 0 0 0 0.220831 -0.0296973 0.25921 0 -0.000164368 0 0 0 0 0 0 0 0 0 0 0 0 0 0 0 0 0 16 0.002 
1100 2 0.0174234 0.102151 0.0118586 0 0 0 0.23901 -0.0603344 0.28342 -0.000279098 -0.000399367 -0.000204699 0 1 0 0 0 0 0 0 0 0 0 0 0 0 0 0 14 0.002 
240 1 0.00314721 0.104556 0.0105001 0 0 0 0.00462052 0.0273422 0.1559 -0.000174177 0.0012268 -0.00273394 2 0 0 0 0 0 0 0 0 0 0 0 0 0 0 0 48 0.002 
933 1 0.00747506 0.104156 0.0107129 0 0 0 0.145719 -0.0550247 0.0974606 0.00327206 0.00167885 0.00565363 1 0 0 0 0 0 0 0 0 0 0 0 0 0 0 0 32 0.002 
182 2 0.0136799 0.107481 0.0120896 0 0 0 0.1107 -0.0677188 0.226834 0 -0.000164368 0 0 0 0 0 0 0 0 0 0 0 0 0 0 0 0 0 48 0.002 
493 5 0.0070195 0.107972 0.0119524 0 0 0 0.0735384 -0.0409716 0.128362 0 -0.000164368 0 0 0 0 0 0 0 0 0 0 0 0 0 0 0 0 0 56 0.002 
930 3 0.00468042 0.0792128 0.0139218 0 0 0 -0.518821 -0.443443 0.0672218 0 -0.000164368 0 0 0 0 0 0 0 0 0 0 0 0 0 0 0 0 0 54 0.002 
534 13 0.00364819 0.0868183 0.0124094 0 0 0 0.123061 0.12204 -0.0847761 0.00813922 -0.0437715 0.00227285 0 0 0 0 0 0 0 0 1 0 0 0 0 0 0 0 50 0.002 
531 1 0.00777661 0.087588 0.0136603 0 0 0 0.342188 -0.0598754 -0.0285997 0 -0.000164368 0 0 0 0 0 0 0 0 0 0 0 0 0 0 0 0 0 69 0.002 
560 4 0.0141948 0.0932503 0.0139007 0 0 0 0.109784 -0.0469937 -0.12618 0 -0.000164368 0 0 0 0 0 0 0 0 0 0 0 0 0 0 0 0 0 32 0.002 
1009 1 0.00307634 0.0950831 0.0141138 0 0 0 -0.0720397 -0.136296 0.0552004 -0.000283935 -0.00109618 3.94647e-05 1 0 0 0 0 0 0 0 0 0 0 0 0 0 0 0 15 0.002 
836 4 0.00959303 0.0940466 0.0126795 0 0 0 -0.0631196 0.180356 -0.202759 0 -0.000164368 0 0 0 0 0 0 0 0 0 0 0 0 0 0 0 0 0 41 0.002 
721 5 0.0149905 0.0974353 0.0137553 0 0 0 0.2084 -0.113898 0.188202 6.3053e-05 -4.40746e-05 -0.000425773 0 0 0 0 1 0 0 0 0 0 0 0 0 0 0 0 38 0.002 
892 5 0.00301138 0.0987788 0.0125929 0 0 0 0.0106431 -0.108035 0.113869 0.000283935 0.000767447 -3.94647e-05 1 0 0 0 0 0 0 0 0 0 0 0 0 0 0 0 30 0.002 
1149 4 0.00300702 0.10311 0.0142181 0 0 0 -0.000342361 -0.0491814 0.154834 0.000198623 -0.00162203 0.00283149 1 0 0 0 0 0 0 0 0 0 0 0 0 0 0 0 5 0.002 
1311 3 0.00664931 0.101511 0.0136848 0 0 0 0.0097795 -0.0651364 0.0648258 -0.00034551 0.000216358 -0.00014065 0 0 1 0 0 0 0 0 0 0 0 0 0 0 0 0 3 0.002 
967 2 0.0101619 0.103893 0.0136803 0 0 0 0.0598512 -0.112093 0.163831 6.91851e-05 -0.000107158 -4.3843e-05 0 2 0 0 0 0 0 0 0 0 0 0 0 0 0 0 23 0.002 
1185 6 0.0142386 0.103806 0.0138969 0 0 0 0.0253602 -0.101677 0.0803207 0 -0.000164368 0 0 0 0 0 0 0 0 0 0 0 0 0 0 0 0 0 12 0.002 
961 1 0.00303027 0.107944 0.012654 0 0 0 0.0159841 -0.0267103 0.0531627 0 -0.000164368 0 0 0 0 0 0 0 0 0 0 0 0 0 0 0 0 0 18 0.002 
345 6 0.0084594 0.0848863 0.0166339 0 0 0 -0.194248 -0.0173581 0.00691734 6.56834e-06 -0.000807461 6.92195e-05 0 0 0 0 0 1 0 0 0 0 0 0 0 0 0 0 42 0.002 
258 6 0.0123364 0.0849874 0.014964 0 0 0 -0.0907507 0.927266 -0.548462 0 -0.000164368 0 0 0 0 0 0 0 0 0 0 0 0 0 0 0 0 0 31 0.002 
1008 4 0.00655485 0.0912489 0.0150273 0 0 0 0.164985 -0.051377 -0.0404482 0 -0.000164368 0 0 0 0 0 0 0 0 0 0 0 0 0 0 0 0 0 16 0.002 
632 6 0.0179104 0.0914115 0.0144738 0 0 0 0.555341 0.944553 -0.239062 0 -0.000164368 0 0 0 0 0 0 0 0 0 0 0 0 0 0 0 0 0 50 0.002 
342 4 0.011223 0.0915395 0.0159626 0 0 0 0.0588587 -0.00716619 0.0272509 0.0001922 -0.000201762 -0.000280522 0 0 0 1 0 0 0 0 0 0 0 0 0 0 0 0 47 0.002 
998 5 0.00404059 0.0998599 0.0163848 0 0 0 0.013997 -0.0623799 0.0993592 -1.49688e-05 -0.000157627 2.13006e-05 0 0 0 0 1 0 0 0 0 0 0 0 0 0 0 0 20 0.002 
1153 8 0.00784295 0.0984082 0.0159059 0 0 0 -0.0477119 -0.0853591 0.0661429 -0.00429229 0.000314016 0.00274631 0 1 1 0 0 0 0 1 0 0 0 0 0 0 0 0 28 0.002 
411 1 0.0120218 0.100726 0.0154181 0 0 0 0.0322617 -0.0976657 0.14971 0 -0.000164368 0 0 0 0 0 0 0 0 0 0 0 0 0 0 0 0 0 6 0.002 
962 6 0.0176435 0.099777 0.0156473 0 0 0 0.226443 -0.137234 0.26851 0 -0.000164368 0 0 0 0 0 0 0 0 0 0 0 0 0 0 0 0 0 36 0.002 
1317 6 0.00639586 0.105337 0.0149301 0 0 0 0.0254226 -0.0808428 0.133519 0 -0.000164368 0 0 0 0 0 0 0 0 0 0 0 0 0 0 0 0 0 5 0.002 
920 3 0.00300272 0.106728 0.0165342 0 0 0 0.000925728 -0.0276366 0.0552398 0 -0.000164368 0 0 0 0 0 0 0 0 0 0 0 0 0 0 0 0 0 26 0.002 
583 1 0.0171884 0.107733 0.014919 0 0 0 0.0185075 -0.0214644 0.188405 0 -0.000164368 0 0 0 0 0 0 0 0 0 0 0 0 0 0 0 0 0 53 0.002 
1223 2 0.0133663 0.107951 0.0160817 0 0 0 0.0297565 0.00112734 0.227807 -3.13244e-05 4.9055e-05 -0.000158726 0 2 0 0 0 0 0 0 0 0 0 0 0 0 0 0 8 0.002 
232 7 0.00324594 0.0778601 0.018071 0 0 0 0.0821496 -0.279729 0.238725 0 -0.000164368 0 0 0 0 0 0 0 0 0 0 0 0 0 0 0 0 0 25 0.002 
1116 4 0.00511822 0.0814378 0.0186897 0 0 0 0.0315484 -0.108648 0.0930382 0 -0.000164368 0 0 0 0 0 0 0 0 0 0 0 0 0 0 0 0 0 24 0.002 
661 2 0.00305816 0.0845029 0.0168415 0 0 0 0.0179045 -0.00950575 0.0357621 0 -0.000164368 0 0 0 0 0 0 0 0 0 0 0 0 0 0 0 0 0 31 0.002 