ITEM: TIMESTEP
10100000
ITEM: NUMBER OF ATOMS
1236
ITEM: BOX BOUNDS ff ff ff
-0.01 0.45
-0.15 0.15
-0.08 0.1
ITEM: ATOMS id type x y z ix iy iz vx vy vz fx fy fz c_cc_1 c_cc_2 c_cc_3 c_cc_4 c_cc_5 c_cc_6 c_cc_7 c_cc_8 c_cc_9 c_cc_10 c_cc_11 c_cc_12 c_cc_13 c_cc_14 c_cc_15 c_cc_16 f_fppacc radius 
598 1 0.0180303 -0.0487501 -0.0310764 0 0 0 -0.49421 -8.39079 15.5986 0.000614433 0.0513162 0.0645541 0 0 0 0 0 0 0 0 0 0 0 0 0 0 0 0 34 0.002 
567 7 0.00982758 -0.0498737 0.0293331 0 0 0 0.375258 11.0605 16.3094 0.00322542 0.305409 -0.182557 0 0 0 0 0 0 0 0 0 0 0 0 0 0 0 0 26 0.002 
996 2 0.017923 -0.011469 -0.0564551 0 0 0 0.0211593 -16.4868 4.73804 0 -0.000164368 0 0 0 0 0 0 0 0 0 0 0 0 0 0 0 0 0 26 0.002 
773 5 0.0128238 -0.00192819 0.0406105 0 0 0 0.414895 4.93203 4.0677 0 -0.000164368 0 0 0 0 0 0 0 0 0 0 0 0 0 0 0 0 0 18 0.002 
1259 7 0.00718626 -0.008298 0.0572524 0 0 0 -0.12926 15.6258 3.34186 0.00811318 0.045384 -0.328429 0 0 0 0 0 0 0 0 0 0 0 0 0 0 0 0 0 0.002 
8 5 0.0144814 0.00829653 -0.055952 0 0 0 0.40435 -1.45942 -0.570288 0 -0.000164368 0 0 0 0 0 0 0 0 0 0 0 0 0 0 0 0 0 37 0.002 
69 6 0.011044 0.0206168 -0.0536916 0 0 0 0.983788 -3.7402 -1.5392 0 -0.000164368 0 0 0 0 0 0 0 0 0 0 0 0 0 0 0 0 0 33 0.002 
624 7 0.0047005 0.00622478 -0.0462604 0 0 0 0.165704 -1.18912 -1.06566 0 -0.000164368 0 0 0 0 0 0 0 0 0 0 0 0 0 0 0 0 0 35 0.002 
195 7 0.00738847 0.0239623 -0.0411818 0 0 0 1.08619 -3.01877 -13.7865 0 -0.000164368 0 0 0 0 0 0 0 0 0 0 0 0 0 0 0 0 0 37 0.002 
891 2 0.0138096 0.0310949 -0.0147324 0 0 0 0.0556591 -2.38512 0.674954 0 -0.000164368 0 0 0 0 0 0 0 0 0 0 0 0 0 0 0 0 0 16 0.002 
731 2 0.00781782 0.0258352 0.0458207 0 0 0 -1.28964 -2.83295 1.8599 0 -0.000164368 0 0 0 0 0 0 0 0 0 0 0 0 0 0 0 0 0 27 0.002 
41 1 0.015124 0.0528572 -0.0355 0 0 0 0 3.24482e-19 -6.7269e-12 -0 0 0 0 0 0 0 0 0 0 0 0 0 0 0 0 0 0 0 2 0.002 
824 6 0.00879476 0.0494053 -0.0295398 0 0 0 0.78587 -0.146095 -1.87271 0 -0.000164368 0 0 0 0 0 0 0 0 0 0 0 0 0 0 0 0 0 33 0.002 
293 1 0.00311823 0.0660798 -0.0200642 0 0 0 1.08514 -0.365793 0.0376735 0 -0.000164368 0 0 0 0 0 0 0 0 0 0 0 0 0 0 0 0 0 39 0.002 
712 2 0.0147605 0.0715752 -0.0178109 0 0 0 0.0944447 -1.06304 1.39835 0 -0.000164368 0 0 0 0 0 0 0 0 0 0 0 0 0 0 0 0 0 35 0.002 
1263 2 0.00914418 0.0578725 -0.0121375 0 0 0 -10.166 -5.20871 3.37039 0 -0.000164368 0 0 0 0 0 0 0 0 0 0 0 0 0 0 0 0 0 0 0.002 
545 9 0.0187159 0.0408168 -0.0103329 0 0 0 2.31441 -1.22649 3.06951 0 -0.000164368 0 0 0 0 0 0 0 0 0 0 0 0 0 0 0 0 0 50 0.002 
211 2 0.0100676 0.0681355 -0.00996864 0 0 0 -9.78683 2.13633 1.11627 0 -0.000164368 0 0 0 0 0 0 0 0 0 0 0 0 0 0 0 0 0 29 0.002 
801 5 0.0171217 0.0635213 -0.00654547 0 0 0 -0.840266 -0.155272 -1.39427 0 -0.000164368 0 0 0 0 0 0 0 0 0 0 0 0 0 0 0 0 0 27 0.002 
1027 1 0.0176182 0.059616 0.00638518 0 0 0 0.173042 -0.266837 -0.90751 0 -0.000164368 0 0 0 0 0 0 0 0 0 0 0 0 0 0 0 0 0 18 0.002 
895 10 0.0100909 0.0745884 0.00542425 0 0 0 -0.477621 -0.201676 -0.724206 0 -0.000164368 0 0 0 0 0 0 0 0 0 0 0 0 0 0 0 0 0 40 0.002 
872 1 0.0117916 0.0632292 -0.00154408 0 0 0 4.66329 9.57295 -20.0191 0 -0.000164368 0 0 0 0 0 0 0 0 0 0 0 0 0 0 0 0 0 19 0.002 
1042 12 0.00998057 0.0534905 0.00424449 0 0 0 -29.0534 53.0059 -58.2641 0 -0.000164368 0 0 0 0 0 0 0 0 0 0 0 0 0 0 0 0 0 16 0.002 
909 2 0.0105239 0.0634782 0.0117688 0 0 0 -0.0228211 0.0965149 -0.89165 0 -0.000164368 0 0 0 0 0 0 0 0 0 0 0 0 0 0 0 0 0 37 0.002 
730 3 0.00320452 0.0605381 0.0124993 0 0 0 0.0212176 -0.432403 -0.458382 0 -0.000164368 0 0 0 0 0 0 0 0 0 0 0 0 0 0 0 0 0 30 0.002 
562 3 0.015212 0.0728333 0.0129824 0 0 0 0.313255 1.42273 -0.440296 0.0438037 0.081918 0.0193681 0 0 0 0 0 0 0 0 0 0 0 0 0 0 0 0 23 0.002 
882 3 0.0129074 0.069811 0.013872 0 0 0 -0.142612 -0.673549 -3.96727 -0.0438037 -0.0822468 -0.0193681 0 0 0 0 0 0 0 0 0 0 0 0 0 0 0 0 23 0.002 
953 3 0.00350093 0.0572852 0.0177708 0 0 0 0.12722 -0.254371 -0.50158 0 -0.000164368 0 0 0 0 0 0 0 0 0 0 0 0 0 0 0 0 0 15 0.002 
802 4 0.00318508 0.0647521 0.0177617 0 0 0 -0.021413 0.104008 -0.425963 0 -0.000164368 0 0 0 0 0 0 0 0 0 0 0 0 0 0 0 0 0 27 0.002 
800 1 0.00796133 0.0713389 0.0184133 0 0 0 -0.521711 0.413812 -0.108342 0 -0.000164368 0 0 0 0 0 0 0 0 0 0 0 0 0 0 0 0 0 19 0.002 
904 3 0.00364051 0.0742625 0.0182227 0 0 0 0.0629133 -0.0185793 -0.296037 0 -0.000164368 0 0 0 0 0 0 0 0 0 0 0 0 0 0 0 0 0 14 0.002 
762 6 0.00563246 0.0690112 0.0207878 0 0 0 -0.318556 0.126539 -0.234149 0 -0.000164368 0 0 0 0 0 0 0 0 0 0 0 0 0 0 0 0 0 40 0.002 
268 5 0.0162087 0.0692133 0.0196905 0 0 0 0.224247 -0.0879659 0.131028 0 -0.000164368 0 0 0 0 0 0 0 0 0 0 0 0 0 0 0 0 0 51 0.002 
861 8 0.0100327 0.0410576 0.0210146 0 0 0 -0.229261 -1.44345 -1.37682 0 -0.000164368 0 0 0 0 0 0 0 0 0 0 0 0 0 0 0 0 0 40 0.002 
65 2 0.00301642 0.0674047 0.0233948 0 0 0 0.061774 -0.192588 0.00912816 0 -0.000164368 0 0 0 0 0 0 0 0 0 0 0 0 0 0 0 0 0 31 0.002 
967 2 0.0122626 0.0717723 0.0217562 0 0 0 -0.182308 0.021793 0.105162 0.00595313 -0.0105006 -0.0176228 0 2 0 0 0 0 0 0 0 0 0 0 0 0 0 0 16 0.002 
915 9 0.00689729 0.0738867 0.0230908 0 0 0 0.0118909 0.157118 -0.22368 0 -0.000164368 0 0 0 0 0 0 0 0 0 0 0 0 0 0 0 0 0 31 0.002 
803 4 0.0133985 0.0610429 0.0251315 0 0 0 -0.20238 -0.198198 -0.0100959 -0.00471393 0.0241384 -0.0173479 0 0 0 1 0 0 0 0 0 0 0 0 0 0 0 0 31 0.002 
140 4 0.0154382 0.0648547 0.0249181 0 0 0 -0.219182 -0.477047 -0.262121 0 -0.000164368 0 0 0 0 0 0 0 0 0 0 0 0 0 0 0 0 0 36 0.002 
877 4 0.00691647 0.0659298 0.0233063 0 0 0 0.167134 -0.125452 -0.448199 0 -0.000164368 0 0 0 0 0 0 0 0 0 0 0 0 0 0 0 0 0 23 0.002 
459 5 0.00960068 0.0697896 0.0239833 0 0 0 0.00110276 0.0792223 -0.0834999 -0.0059625 0.0096206 0.0175723 0 1 0 0 0 0 0 0 0 0 0 0 0 0 0 0 30 0.002 
1136 1 0.0151144 0.0694659 0.0237075 0 0 0 -0.035197 -0.248354 -0.02057 0 -0.000164368 0 0 0 0 0 0 0 0 0 0 0 0 0 0 0 0 0 17 0.002 
669 1 0.00311939 0.0725062 0.0241122 0 0 0 0.112207 0.0596383 -0.221052 0 -0.000164368 0 0 0 0 0 0 0 0 0 0 0 0 0 0 0 0 0 51 0.002 
577 2 0.0121952 0.0579539 0.0273355 0 0 0 -0.0974318 -0.230425 -0.440659 0.00471393 -0.0244672 0.0173479 0 0 0 1 0 0 0 0 0 0 0 0 0 0 0 0 25 0.002 
434 14 0.0168024 0.0593292 0.0273762 0 0 0 0.14327 -0.416557 -0.443108 0 -0.000164368 0 0 0 0 0 0 0 0 0 0 0 0 0 0 0 0 0 47 0.002 
291 1 0.00496802 0.064278 0.0264386 0 0 0 0.0513964 -0.14965 -0.425027 0 -0.000164368 0 0 0 0 0 0 0 0 0 0 0 0 0 0 0 0 0 43 0.002 
788 5 0.0100873 0.0649193 0.0257257 0 0 0 0.122208 -0.0448694 -0.3826 0 -0.000164368 0 0 0 0 0 0 0 0 0 0 0 0 0 0 0 0 0 36 0.002 
680 6 0.00640955 0.0712794 0.026154 0 0 0 0.0878704 0.0330427 -0.250251 0 -0.000164368 0 0 0 0 0 0 0 0 0 0 0 0 0 0 0 0 0 52 0.002 
876 14 0.0120095 0.0724504 0.026182 0 0 0 0.0286988 0.0387237 -0.02177 0 -0.000164368 0 0 0 0 0 0 0 0 0 0 0 0 0 0 0 0 0 17 0.002 
843 4 0.0185508 0.071187 0.0264543 0 0 0 0.0211522 -0.192822 -0.215634 0.0158092 0.0147805 -0.00387976 0 0 0 1 0 0 0 0 0 0 0 0 0 0 0 0 10 0.002 
789 5 0.016359 0.0747531 0.0258013 0 0 0 0.0595825 -0.134107 -0.140559 -0.000371384 -0.000777701 0.000923205 0 0 0 0 1 0 0 0 0 0 0 0 0 0 0 0 33 0.002 
1081 4 0.0106254 0.0541387 0.0273858 0 0 0 2.6751 1.67176 -2.02799 0 -0.000164368 0 0 0 0 0 0 0 0 0 0 0 0 0 0 0 0 0 14 0.002 
1036 6 0.00302885 0.0631518 0.0297647 0 0 0 0.0286907 0.246899 -0.250197 0 -0.000164368 0 0 0 0 0 0 0 0 0 0 0 0 0 0 0 0 0 31 0.002 
887 1 0.0176481 0.0646239 0.0288812 0 0 0 0.0928673 -0.0482549 0.184217 0 -0.000164368 0 0 0 0 0 0 0 0 0 0 0 0 0 0 0 0 0 19 0.002 
1146 2 0.0136268 0.0659281 0.0283361 0 0 0 0.326794 -0.00523722 -0.0377263 0 -0.000164368 0 0 0 0 0 0 0 0 0 0 0 0 0 0 0 0 0 23 0.002 
455 1 0.00349303 0.0685792 0.028836 0 0 0 0.0657105 -0.0872938 0.0460973 0 -0.000164368 0 0 0 0 0 0 0 0 0 0 0 0 0 0 0 0 0 49 0.002 
361 3 0.00825695 0.0687446 0.0287114 0 0 0 -0.0495231 -0.0435691 -0.176831 0 -0.000164368 0 0 0 0 0 0 0 0 0 0 0 0 0 0 0 0 0 40 0.002 
131 7 0.0121916 0.0696564 0.0291751 0 0 0 -0.0137513 0.0470503 -0.0503439 0 -0.000164368 0 0 0 0 0 0 0 0 0 0 0 0 0 0 0 0 0 52 0.002 
141 5 0.016508 0.0686839 0.0287856 0 0 0 0.269026 0.0793661 -0.0119628 -0.0158092 -0.0151092 0.00387976 0 0 0 1 0 0 0 0 0 0 0 0 0 0 0 0 62 0.002 
112 6 0.0150036 0.072547 0.0288464 0 0 0 0.0751783 -0.106376 -0.0271367 0.000371384 0.000448965 -0.000923205 0 0 0 0 1 0 0 0 0 0 0 0 0 0 0 0 45 0.002 
505 2 0.0031132 0.0726217 0.0288101 0 0 0 -0.029049 -0.0737962 -0.0359744 0 -0.000164368 0 0 0 0 0 0 0 0 0 0 0 0 0 0 0 0 0 48 0.002 
972 3 0.00947502 0.0727892 0.029282 0 0 0 0.0587632 0.0865872 -0.0295652 -0.000388363 -0.000663672 -7.02475e-05 0 0 0 0 0 0 0 0 0 0 0 0 0 0 0 0 26 0.002 
104 1 0.00370125 0.060134 0.032342 0 0 0 -0.475989 0.422623 0.226213 0 -0.000164368 0 0 0 0 0 0 0 0 0 0 0 0 0 0 0 0 0 23 0.002 
989 4 0.00734385 0.062891 0.0312824 0 0 0 -0.152523 0.16623 0.0257578 0 -0.000164368 0 0 0 0 0 0 0 0 0 0 0 0 0 0 0 0 0 12 0.002 
644 7 0.013499 0.0621308 0.0307143 0 0 0 0.134852 -0.183545 -0.124986 0 -0.000164368 0 0 0 0 0 0 0 0 0 0 0 0 0 0 0 0 0 44 0.002 
1159 4 0.0102566 0.0655494 0.0304896 0 0 0 0.164618 0.0259876 -0.0153114 0 -0.000164368 0 0 0 0 0 0 0 0 0 0 0 0 0 0 0 0 0 13 0.002 
677 9 0.0111901 0.0569386 0.0327985 0 0 0 0.15912 -0.504323 -0.0130112 0 -0.000164368 0 0 0 0 0 0 0 0 0 0 0 0 0 0 0 0 0 65 0.002 
1080 4 0.0165619 0.0640263 0.0329686 0 0 0 0.188666 -0.157983 -0.0250626 0 -0.000164368 0 0 0 0 0 0 0 0 0 0 0 0 0 0 0 0 0 12 0.002 
931 4 0.00340058 0.0666874 0.0327066 0 0 0 0.0933597 -0.0594464 -0.0115425 0 -0.000164368 0 0 0 0 0 0 0 0 0 0 0 0 0 0 0 0 0 20 0.002 
511 2 0.0136694 0.0668203 0.0329476 0 0 0 0.162707 -0.151776 -0.0396216 0 -0.000164368 0 0 0 0 0 0 0 0 0 0 0 0 0 0 0 0 0 25 0.002 
1068 4 0.0182641 0.0677262 0.0329984 0 0 0 0.00339091 -0.221353 0.0256736 0 -0.000164368 0 0 0 0 0 0 0 0 0 0 0 0 0 0 0 0 0 14 0.002 
1008 4 0.00702256 0.068662 0.0328827 0 0 0 -0.0840687 0.187477 -0.0520485 0 -0.000164368 0 0 0 0 0 0 0 0 0 0 0 0 0 0 0 0 0 12 0.002 
343 2 0.0106883 0.070273 0.0329708 0 0 0 0.00236964 -0.019397 -0.0099415 0 -0.000164368 0 0 0 0 0 0 0 0 0 0 0 0 0 0 0 0 0 43 0.002 
603 7 0.00722801 0.0727521 0.0329609 0 0 0 0.0571193 0.259536 0.0432817 0 -0.000164368 0 0 0 0 0 0 0 0 0 0 0 0 0 0 0 0 0 36 0.002 
995 2 0.0153527 0.0704432 0.0325853 0 0 0 0.0838818 -0.085662 -0.0563124 0 -0.000164368 0 0 0 0 0 0 0 0 0 0 0 0 0 0 0 0 0 21 0.002 
499 2 0.00339789 0.0740382 0.0329389 0 0 0 0.132463 0.0194101 0.0149753 0.00220506 -0.00830699 -0.000991681 0 1 0 0 0 0 0 0 0 0 0 0 0 0 0 0 39 0.002 
883 2 0.0112802 0.0742485 0.0327987 0 0 0 -0.0283492 0.0458711 -0.0368694 0 -0.000164368 0 0 0 0 0 0 0 0 0 0 0 0 0 0 0 0 0 20 0.002 
636 8 0.0155065 0.0744384 0.0329381 0 0 0 -0.0793703 -0.0432421 -0.0506422 0 -0.000164368 0 0 0 0 0 0 0 0 0 0 0 0 0 0 0 0 0 17 0.002 
1261 5 0.00927527 0.0490222 0.0273218 0 0 0 7.23835 13.0641 -17.8922 0 -0.000164368 0 0 0 0 0 0 0 0 0 0 0 0 0 0 0 0 0 0 0.002 
814 13 0.00340209 0.107533 -0.0327833 0 0 0 0.0564717 -0.110343 0.0557755 0 -0.000164368 0 0 0 0 0 0 0 0 0 0 0 0 0 0 0 0 0 39 0.002 
517 2 0.00817507 0.106621 -0.0330191 0 0 0 0.3302 0.115653 0.0729464 0.0019943 0.0192721 0.0151051 0 1 0 0 0 0 0 0 0 0 0 0 0 0 0 0 24 0.002 
479 9 0.0157552 0.0945909 -0.0316498 0 0 0 -0.549063 -1.22749 -1.5349 0 -0.000164368 0 0 0 0 0 0 0 0 0 0 0 0 0 0 0 0 0 34 0.002 
744 1 0.00398328 0.0999702 -0.029859 0 0 0 0.430778 0.0395958 1.00705 0 -0.000164368 0 0 0 0 0 0 0 0 0 0 0 0 0 0 0 0 0 18 0.002 
729 9 0.0147264 0.10181 -0.0303172 0 0 0 0.37458 -0.429717 0.236236 0 -0.000164368 0 0 0 0 0 0 0 0 0 0 0 0 0 0 0 0 0 29 0.002 
1250 6 0.00671801 0.107662 -0.0294682 0 0 0 0.230945 0.215393 0.070998 -0.00490475 -0.00355622 0.0175079 0 1 0 0 0 0 0 0 0 0 0 0 0 0 0 0 1 0.002 
945 9 0.0129693 0.0901891 -0.0274662 0 0 0 1.13662 0.830378 1.0702 0 -0.000164368 0 0 0 0 0 0 0 0 0 0 0 0 0 0 0 0 0 13 0.002 
964 2 0.0110884 0.0997096 -0.0283644 0 0 0 -1.96514 -0.224561 -1.22068 0 -0.000164368 0 0 0 0 0 0 0 0 0 0 0 0 0 0 0 0 0 14 0.002 
1114 1 0.00372659 0.105634 -0.02701 0 0 0 0.177194 0.0907357 0.110928 0 -0.000164368 0 0 0 0 0 0 0 0 0 0 0 0 0 0 0 0 0 9 0.002 
53 3 0.0143375 0.0951787 -0.0264483 0 0 0 -1.06907 -0.789303 -0.92756 0 -0.000164368 0 0 0 0 0 0 0 0 0 0 0 0 0 0 0 0 0 52 0.002 
905 3 0.0149069 0.105899 -0.0249159 0 0 0 0.238845 -0.400909 0.276048 0 -0.000164368 0 0 0 0 0 0 0 0 0 0 0 0 0 0 0 0 0 13 0.002 
188 6 0.00319446 0.102601 -0.0232298 0 0 0 0.460567 0.386675 1.46994 0 -0.000164368 0 0 0 0 0 0 0 0 0 0 0 0 0 0 0 0 0 48 0.002 
1218 8 0.00368836 0.106543 -0.0226302 0 0 0 0.00318843 -0.157347 0.24698 0 -0.000164368 0 0 0 0 0 0 0 0 0 0 0 0 0 0 0 0 0 1 0.002 
1084 2 0.00366307 0.100272 -0.0192246 0 0 0 1.45889 0.330719 1.28946 0 -0.000164368 0 0 0 0 0 0 0 0 0 0 0 0 0 0 0 0 0 7 0.002 
433 9 0.0126897 0.105163 -0.0170328 0 0 0 0.623296 3.65354 1.47472 0 -0.000164368 0 0 0 0 0 0 0 0 0 0 0 0 0 0 0 0 0 33 0.002 
1101 3 0.00334649 0.106716 -0.0178405 0 0 0 0.0586337 0.0551788 0.398567 0 -0.000164368 0 0 0 0 0 0 0 0 0 0 0 0 0 0 0 0 0 7 0.002 
508 9 0.0079958 0.106813 -0.0182332 0 0 0 0.149136 0.185262 0.774274 0 -0.000164368 0 0 0 0 0 0 0 0 0 0 0 0 0 0 0 0 0 40 0.002 
775 2 0.0154645 0.0806146 -0.0225587 0 0 0 -4.94581 2.38935 -11.6367 0 -0.000164368 0 0 0 0 0 0 0 0 0 0 0 0 0 0 0 0 0 29 0.002 
229 6 0.0182415 0.0944987 -0.0191037 0 0 0 0.105928 2.05511 -2.90665 0 -0.000164368 0 0 0 0 0 0 0 0 0 0 0 0 0 0 0 0 0 46 0.002 
544 2 0.00698844 0.104569 -0.0140962 0 0 0 -1.13102 0.316254 2.556 -0.243894 -0.64232 -0.0770266 0 2 0 0 0 0 0 0 0 0 0 0 0 0 0 0 47 0.002 
658 8 0.00394969 0.0980055 -0.0112064 0 0 0 2.03964 -3.26446 5.1468 0 -0.000164368 0 0 0 0 0 0 0 0 0 0 0 0 0 0 0 0 0 30 0.002 
952 3 0.00315923 0.103559 -0.0146386 0 0 0 -1.97903 0.080247 1.66838 0.0392353 -0.025204 -0.00610455 0 1 0 0 0 0 0 0 0 0 0 0 0 0 0 0 11 0.002 
755 2 0.00420405 0.107872 -0.0134433 0 0 0 0.373482 1.5734 0.996816 -0.0706751 -0.0356213 0.0222777 0 1 0 0 0 0 0 0 0 0 0 0 0 0 0 0 12 0.002 
1063 3 0.00816543 0.108116 -0.0135864 0 0 0 -0.270718 -0.985299 2.04987 0.146163 0.269193 0.0289462 0 2 0 0 0 0 0 0 0 0 0 0 0 0 0 0 12 0.002 
1249 3 0.00457201 0.0821534 -0.0122433 0 0 0 0.699592 0.463283 -1.49126 0 -0.000164368 0 0 0 0 0 0 0 0 0 0 0 0 0 0 0 0 0 0 0.002 
96 2 0.00577423 0.0865146 -0.0105401 0 0 0 0.0926919 -0.466803 -0.853131 0 -0.000164368 0 0 0 0 0 0 0 0 0 0 0 0 0 0 0 0 0 48 0.002 
430 4 0.00482861 0.0910506 -0.0100039 0 0 0 -0.521651 -0.116577 -1.0164 0 -0.000164368 0 0 0 0 0 0 0 0 0 0 0 0 0 0 0 0 0 39 0.002 
550 10 0.0048592 0.101891 -0.0100567 0 0 0 0.6386 0.58343 1.22352 0 -0.000164368 0 0 0 0 0 0 0 0 0 0 0 0 0 0 0 0 0 35 0.002 
310 2 0.00837812 0.104022 -0.0101375 0 0 0 0.278754 0.0828974 0.586571 0 -0.000164368 0 0 0 0 0 0 0 0 0 0 0 0 0 0 0 0 0 33 0.002 
253 2 0.0120179 0.0971442 -0.00859238 0 0 0 0.464918 0.159383 -0.573576 0 -0.000164368 0 0 0 0 0 0 0 0 0 0 0 0 0 0 0 0 0 38 0.002 
1174 9 0.00446791 0.107401 -0.00600655 0 0 0 -0.239895 0.786915 0.90756 0 -0.000164368 0 0 0 0 0 0 0 0 0 0 0 0 0 0 0 0 0 1 0.002 
869 7 0.00802176 0.107491 -0.00792257 0 0 0 -0.0631135 0.0874862 0.978992 0 -0.000164368 0 0 0 0 0 0 0 0 0 0 0 0 0 0 0 0 0 20 0.002 
633 6 0.0034389 0.0904831 -0.00480033 0 0 0 0.067499 -0.0463411 -0.268137 0 -0.000164368 0 0 0 0 0 0 0 0 0 0 0 0 0 0 0 0 0 35 0.002 
1242 4 0.0170476 0.0978941 -0.00554886 0 0 0 0.841864 0.196961 -0.824969 0 -0.000164368 0 0 0 0 0 0 0 0 0 0 0 0 0 0 0 0 0 0 0.002 
1066 1 0.00316124 0.0813379 -0.00170851 0 0 0 0.0485759 0.0709107 -0.203372 0 -0.000164368 0 0 0 0 0 0 0 0 0 0 0 0 0 0 0 0 0 22 0.002 
301 5 0.0182776 0.0870866 -0.00272004 0 0 0 0.903245 1.31552 -1.23558 0 -0.000164368 0 0 0 0 0 0 0 0 0 0 0 0 0 0 0 0 0 48 0.002 
792 2 0.00601884 0.0958875 -0.00370013 0 0 0 -0.428253 0.681793 -0.984394 0 -0.000164368 0 0 0 0 0 0 0 0 0 0 0 0 0 0 0 0 0 17 0.002 
463 9 0.0119166 0.106243 -0.00151424 0 0 0 0.399622 0.371178 1.2602 0 -0.000164368 0 0 0 0 0 0 0 0 0 0 0 0 0 0 0 0 0 38 0.002 
1155 5 0.00746133 0.107845 -0.00031608 0 0 0 -0.349525 -0.16326 0.592007 0 -0.000164368 0 0 0 0 0 0 0 0 0 0 0 0 0 0 0 0 0 9 0.002 
920 3 0.00968222 0.0979687 0.000977705 0 0 0 0.731613 0.332065 -0.227336 0 -0.000164368 0 0 0 0 0 0 0 0 0 0 0 0 0 0 0 0 0 23 0.002 
960 3 0.00338425 0.102687 0.0027667 0 0 0 -0.108613 -0.282973 0.0342336 0 -0.000164368 0 0 0 0 0 0 0 0 0 0 0 0 0 0 0 0 0 15 0.002 
546 1 0.0133187 0.104674 0.00287408 0 0 0 -0.0186363 -0.790316 -0.237295 0 -0.000164368 0 0 0 0 0 0 0 0 0 0 0 0 0 0 0 0 0 31 0.002 
1169 3 0.00582854 0.106115 0.00297123 0 0 0 -0.219835 -0.0610413 0.183348 0 -0.000164368 0 0 0 0 0 0 0 0 0 0 0 0 0 0 0 0 0 1 0.002 
1090 12 0.00445565 0.084186 0.00330862 0 0 0 -0.617257 0.464701 -0.977751 0 -0.000164368 0 0 0 0 0 0 0 0 0 0 0 0 0 0 0 0 0 7 0.002 
625 3 0.0134804 0.0949874 0.00521003 0 0 0 0.608171 0.729532 -0.179825 0 -0.000164368 0 0 0 0 0 0 0 0 0 0 0 0 0 0 0 0 0 23 0.002 
359 3 0.00300333 0.0978922 0.00379035 0 0 0 0.0411435 -0.304757 0.162779 0 -0.000164368 0 0 0 0 0 0 0 0 0 0 0 0 0 0 0 0 0 39 0.002 
317 11 0.00301953 0.107872 0.00523244 0 0 0 0.0643227 -0.0304624 0.0805143 0 -0.000164368 0 0 0 0 0 0 0 0 0 0 0 0 0 0 0 0 0 34 0.002 
583 1 0.00671936 0.100855 0.00565162 0 0 0 0.0630035 0.0827012 0.016988 0 -0.000164368 0 0 0 0 0 0 0 0 0 0 0 0 0 0 0 0 0 40 0.002 
331 7 0.00311608 0.103723 0.00664037 0 0 0 0.070987 0.0455438 0.00397102 0 -0.000164368 0 0 0 0 0 0 0 0 0 0 0 0 0 0 0 0 0 47 0.002 
121 2 0.0093575 0.105493 0.00604527 0 0 0 0.0138935 -0.346765 0.38124 0 -0.000164368 0 0 0 0 0 0 0 0 0 0 0 0 0 0 0 0 0 44 0.002 
352 4 0.017122 0.0795708 0.00838451 0 0 0 0.244443 0.815069 -0.912813 0 -0.000164368 0 0 0 0 0 0 0 0 0 0 0 0 0 0 0 0 0 35 0.002 
979 4 0.0152926 0.083978 0.00912776 0 0 0 0.504033 -0.51003 -0.117491 0 -0.000164368 0 0 0 0 0 0 0 0 0 0 0 0 0 0 0 0 0 26 0.002 
601 8 0.0119356 0.0905819 0.00824942 0 0 0 -0.0879484 0.406717 -0.2888 0 -0.000164368 0 0 0 0 0 0 0 0 0 0 0 0 0 0 0 0 0 33 0.002 
1098 3 0.00427647 0.0917712 0.00942032 0 0 0 0.109359 0.054574 -0.199991 0 -0.000164368 0 0 0 0 0 0 0 0 0 0 0 0 0 0 0 0 0 14 0.002 
362 1 0.00706315 0.0955391 0.00832912 0 0 0 -0.323025 -0.166829 0.107195 0 -0.000164368 0 0 0 0 0 0 0 0 0 0 0 0 0 0 0 0 0 20 0.002 
58 1 0.00302049 0.096761 0.00850217 0 0 0 0.0257684 -0.292131 0.493912 0 -0.000164368 0 0 0 0 0 0 0 0 0 0 0 0 0 0 0 0 0 43 0.002 
1004 3 0.0138842 0.0977704 0.00827632 0 0 0 0.375939 0.14882 -0.009696 0 -0.000164368 0 0 0 0 0 0 0 0 0 0 0 0 0 0 0 0 0 17 0.002 
584 8 0.00301599 0.100925 0.00983016 0 0 0 -0.000808793 -0.0948848 0.0265241 0 -0.000164368 0 0 0 0 0 0 0 0 0 0 0 0 0 0 0 0 0 48 0.002 
811 5 0.00932835 0.100808 0.00875015 0 0 0 -0.15016 0.0304504 -0.428397 0 -0.000164368 0 0 0 0 0 0 0 0 0 0 0 0 0 0 0 0 0 31 0.002 
703 3 0.00994258 0.104715 0.00995346 0 0 0 0.0138564 -0.0167669 0.0285276 0 -0.000164368 0 0 0 0 0 0 0 0 0 0 0 0 0 0 0 0 0 28 0.002 
1091 5 0.00435201 0.107725 0.00900729 0 0 0 0.0364321 0.053616 0.1354 -0.000572333 3.78816e-05 -0.00485002 0 0 0 0 0 0 0 0 0 0 0 0 0 0 0 0 8 0.002 
404 6 0.0048624 0.0856254 0.0103054 0 0 0 0.0653147 0.246124 -0.408182 0 -0.000164368 0 0 0 0 0 0 0 0 0 0 0 0 0 0 0 0 0 26 0.002 
602 6 0.0086021 0.0894856 0.0102732 0 0 0 -0.279171 -0.0328934 -0.156776 0 -0.000164368 0 0 0 0 0 0 0 0 0 0 0 0 0 0 0 0 0 28 0.002 
903 8 0.0150806 0.0911925 0.0120521 0 0 0 0.078889 -0.070764 0.0306036 0 -0.000164368 0 0 0 0 0 0 0 0 0 0 0 0 0 0 0 0 0 49 0.002 
1032 4 0.012094 0.0939665 0.0107396 0 0 0 -0.272223 -0.0560614 0.363635 0 -0.000164368 0 0 0 0 0 0 0 0 0 0 0 0 0 0 0 0 0 15 0.002 
927 3 0.0103007 0.0977243 0.0111614 0 0 0 0.0936156 0.188596 0.0154737 0.0135619 -0.00176286 0.00544319 0 0 1 0 0 0 0 0 0 0 0 0 0 0 0 0 14 0.002 
753 6 0.00642291 0.0985882 0.0114539 0 0 0 0.0924209 -0.00744056 0.177605 -0.0135619 0.00143413 -0.00544319 0 0 1 0 0 0 0 0 0 0 0 0 0 0 0 0 55 0.002 
407 4 0.0185376 0.0990191 0.0113204 0 0 0 0.212989 -0.179724 -0.175692 0 -0.000164368 0 0 0 0 0 0 0 0 0 0 0 0 0 0 0 0 0 30 0.002 
836 4 0.00684492 0.106361 0.0119199 0 0 0 0.00435444 -0.0288611 0.125227 7.26958e-05 -0.000157398 3.97641e-05 0 0 0 1 0 0 0 0 0 0 0 0 0 0 0 0 29 0.002 
303 3 0.0130962 0.108009 0.0121778 0 0 0 -0.0792144 -0.19917 0.115798 0.00283985 0.00626005 -0.00150117 0 0 0 0 0 0 0 0 0 0 0 0 0 0 0 0 30 0.002 
380 3 0.00360668 0.0808514 0.0136 0 0 0 0.137579 -0.0609182 -0.0433302 0 -0.000164368 0 0 0 0 0 0 0 0 0 0 0 0 0 0 0 0 0 28 0.002 
723 5 0.0111044 0.080986 0.0125734 0 0 0 -0.0861344 -0.138711 -0.121933 0 -0.000164368 0 0 0 0 0 0 0 0 0 0 0 0 0 0 0 0 0 32 0.002 
769 5 0.00719661 0.0834442 0.0131475 0 0 0 -0.120795 0.0503263 -0.142508 0 -0.000164368 0 0 0 0 0 0 0 0 0 0 0 0 0 0 0 0 0 29 0.002 
1111 4 0.00302035 0.0887644 0.0122372 0 0 0 0.00862141 0.074581 -0.127684 0 -0.000164368 0 0 0 0 0 0 0 0 0 0 0 0 0 0 0 0 0 12 0.002 
243 5 0.011101 0.087682 0.0133182 0 0 0 -0.463312 -0.175517 0.187733 0 -0.000164368 0 0 0 0 0 0 0 0 0 0 0 0 0 0 0 0 0 19 0.002 
481 2 0.00739279 0.0935894 0.0139372 0 0 0 0.109123 -0.0612722 -0.0673378 0 -0.000164368 0 0 0 0 0 0 0 0 0 0 0 0 0 0 0 0 0 23 0.002 
1215 2 0.00312497 0.0944293 0.0128353 0 0 0 0.060286 -0.111976 -0.0340787 0 -0.000164368 0 0 0 0 0 0 0 0 0 0 0 0 0 0 0 0 0 0 0.002 
1147 9 0.0143168 0.096629 0.0129236 0 0 0 -0.0390737 0.102718 0.226315 0 -0.000164368 0 0 0 0 0 0 0 0 0 0 0 0 0 0 0 0 0 6 0.002 
1223 2 0.00299785 0.0991491 0.0135759 0 0 0 -0.0069161 -0.142426 0.0345818 0.00173995 0.00135619 -0.000979989 0 0 0 0 0 0 0 0 0 0 0 0 0 0 0 0 1 0.002 
661 2 0.00605824 0.102418 0.0128089 0 0 0 0.0645671 0.0420912 0.00834079 0 -0.000164368 0 0 0 0 0 0 0 0 0 0 0 0 0 0 0 0 0 14 0.002 
954 5 0.0137246 0.101286 0.0137692 0 0 0 0.185473 0.0540598 0.0143218 0 -0.000164368 0 0 0 0 0 0 0 0 0 0 0 0 0 0 0 0 0 21 0.002 
1154 12 0.0111298 0.104443 0.0142521 0 0 0 0.0678035 0.00628135 0.0844443 0 -0.000164368 0 0 0 0 0 0 0 0 0 0 0 0 0 0 0 0 0 3 0.002 
767 5 0.0030808 0.107572 0.0127904 0 0 0 0.0293139 0.0583897 0.0834375 0.000146751 -0.000337925 0.00274395 0 0 0 0 1 0 0 0 0 0 0 0 0 0 0 0 31 0.002 
1221 1 0.00317549 0.0838289 0.0163778 0 0 0 0.0391429 0.0144219 -0.136376 0 -0.000164368 0 0 0 0 0 0 0 0 0 0 0 0 0 0 0 0 0 0 0.002 
179 1 0.0151134 0.0853561 0.0147129 0 0 0 -0.0768919 -0.0651523 -0.155276 0 -0.000164368 0 0 0 0 0 0 0 0 0 0 0 0 0 0 0 0 0 35 0.002 
1238 1 0.0140726 0.0894212 0.0155735 0 0 0 -0.152623 -0.299283 -0.0575793 0.00486751 0.00811795 -0.0056998 2 0 0 0 0 0 0 0 0 0 0 0 0 0 0 0 2 0.002 
827 2 0.00303973 0.0915249 0.0156332 0 0 0 0.0113078 -0.112961 -0.00282566 0 -0.000164368 0 0 0 0 0 0 0 0 0 0 0 0 0 0 0 0 0 23 0.002 
698 6 0.0115525 0.0923905 0.014727 0 0 0 0.0125289 0.0758046 0.0868619 -0.000413788 0.00227118 -0.00084592 1 0 0 0 0 1 0 0 0 0 0 0 0 0 0 0 34 0.002 
263 2 0.0178835 0.0941704 0.0146793 0 0 0 0.162514 0.178954 0.116775 0 -0.000164368 0 0 0 0 0 0 0 0 0 0 0 0 0 0 0 0 0 31 0.002 
126 2 0.00513718 0.0964798 0.0156418 0 0 0 0.00209088 -0.166174 0.0141274 0.00107812 0.000612044 -0.000311941 0 1 0 0 0 0 0 0 0 0 0 0 0 0 0 0 26 0.002 
1225 1 0.009446 0.0974243 0.0150757 0 0 0 -0.0680136 0.0226393 -0.115227 0 -0.000164368 0 0 0 0 0 0 0 0 0 0 0 0 0 0 0 0 0 1 0.002 
961 1 0.016146 0.0973512 0.0165213 0 0 0 -0.0716959 -0.169388 -0.0669379 0.00103517 0.000141917 0.000359518 1 0 0 0 0 0 0 0 0 0 0 0 0 0 0 0 14 0.002 
299 1 0.0101237 0.101165 0.0163712 0 0 0 0.164815 -0.0806086 0.0780844 -5.77908e-05 7.12059e-05 8.39446e-05 0 0 0 0 0 0 0 0 0 0 0 0 0 0 0 0 33 0.002 
1062 4 0.0177866 0.101024 0.0162131 0 0 0 0.0546123 -0.177496 0.108543 0 -0.000164368 0 0 0 0 0 0 0 0 0 0 0 0 0 0 0 0 0 14 0.002 
296 2 0.00318359 0.103295 0.015637 0 0 0 0.0646764 -0.0359106 0.100086 0 -0.000164368 0 0 0 0 0 0 0 0 0 0 0 0 0 0 0 0 0 21 0.002 
957 4 0.00684207 0.105338 0.0164631 0 0 0 0.0107066 0.0434557 -0.00521196 0 -0.000164368 0 0 0 0 0 0 0 0 0 0 0 0 0 0 0 0 0 13 0.002 
966 3 0.014438 0.103943 0.0167253 0 0 0 0.215954 -0.0249583 0.177063 0 -0.000164368 0 0 0 0 0 0 0 0 0 0 0 0 0 0 0 0 0 22 0.002 
713 7 0.00300553 0.107174 0.016765 0 0 0 -0.0250732 0.00266657 0.0699367 0.000425582 -0.000193061 0.00210607 0 0 0 0 1 0 0 0 0 0 0 0 0 0 0 0 36 0.002 
1231 3 0.0130277 0.107666 0.0161904 0 0 0 0.00368343 -0.167308 0.402819 0 -0.000164368 0 0 0 0 0 0 0 0 0 0 0 0 0 0 0 0 0 0 0.002 
214 8 0.0093033 0.107992 0.0146211 0 0 0 0.00478175 -0.0127081 0.123939 -7.26958e-05 -0.000171338 -3.97641e-05 0 0 0 1 0 0 0 0 0 0 0 0 0 0 0 0 11 0.002 
797 6 0.0105258 0.0795241 0.0171443 0 0 0 0.00147344 -0.171102 -0.150579 0 -0.000164368 0 0 0 0 0 0 0 0 0 0 0 0 0 0 0 0 0 32 0.002 
262 3 0.00701463 0.0838409 0.0179231 0 0 0 -0.0182321 -0.19861 -0.203979 0 -0.000164368 0 0 0 0 0 0 0 0 0 0 0 0 0 0 0 0 0 32 0.002 
1188 4 0.0128988 0.0827556 0.0179432 0 0 0 0.0892451 -0.21535 -0.0863993 0 -0.000164368 0 0 0 0 0 0 0 0 0 0 0 0 0 0 0 0 0 5 0.002 
1060 2 0.0100617 0.0862673 0.0188462 0 0 0 -0.0118692 -0.194974 -0.117184 -0.00134516 -0.00105708 0.000703823 0 2 0 0 0 0 0 0 0 0 0 0 0 0 0 0 12 0.002 
370 4 0.00680887 0.0881898 0.017284 0 0 0 -0.0169916 -0.0881377 -0.05413 0 -0.000164368 0 0 0 0 0 0 0 0 0 0 0 0 0 0 0 0 0 41 0.002 
534 13 0.0140165 0.0867512 0.0185272 0 0 0 -0.0184852 -0.227991 0.0469636 -0.00490101 -0.0105195 0.00133608 1 1 0 0 0 0 0 0 0 0 0 0 1 0 0 0 41 0.002 
560 4 0.0177168 0.0874474 0.0171745 0 0 0 -0.0753274 0.0774067 -0.148217 0 -0.000164368 0 0 0 0 0 0 0 0 0 0 0 0 0 0 0 0 0 28 0.002 
650 3 0.0106339 0.0934983 0.0184501 0 0 0 0.0410408 -0.126377 0.238251 0.0113098 -0.0186518 -0.00167411 0 0 1 0 0 1 0 0 0 0 0 0 0 0 0 0 37 0.002 
377 4 0.0146797 0.0934744 0.0169765 0 0 0 0.135721 -0.0171225 0.0223953 0 -0.000164368 0 0 0 0 0 0 0 0 0 0 0 0 0 0 0 0 0 48 0.002 
674 10 0.00314246 0.0944439 0.018441 0 0 0 0.0228391 -0.129412 0.0589847 -0.000782232 -0.00144628 0.00121564 0 1 0 0 0 0 0 0 0 0 0 0 0 0 0 0 28 0.002 
446 9 0.0084595 0.0967874 0.0189461 0 0 0 0.057337 -0.0608148 -0.0167664 -0.0119634 0.0188701 0.00216946 0 0 1 0 0 0 0 0 1 0 0 0 0 0 0 0 50 0.002 
832 8 0.0125601 0.0973344 0.0183786 0 0 0 -0.0284695 -0.101855 -0.0272688 3.46963e-05 -0.000181814 -3.96769e-05 0 0 0 0 0 0 0 1 0 0 0 0 0 0 0 0 33 0.002 
582 7 0.00300093 0.0996384 0.017644 0 0 0 0.00147423 -0.0710895 0.101373 0 -0.000164368 0 0 0 0 0 0 0 0 0 0 0 0 0 0 0 0 0 24 0.002 
510 9 0.00595759 0.102102 0.0189321 0 0 0 0.0346792 -0.0233402 0.0108286 -0.000648035 -0.000904809 -0.000944904 0 0 0 0 0 0 0 0 1 0 0 0 0 0 0 0 64 0.002 
288 1 0.0107394 0.104411 0.0186269 0 0 0 0.0126826 -0.0337017 0.0798049 0.000515766 -0.00145808 -0.000848742 2 0 0 0 0 0 0 0 0 0 0 0 0 0 0 0 36 0.002 
572 3 0.00321469 0.0785248 0.0192007 0 0 0 0.0241207 0.146476 -0.246915 0 -0.000164368 0 0 0 0 0 0 0 0 0 0 0 0 0 0 0 0 0 35 0.002 
199 4 0.0163381 0.0781175 0.0191525 0 0 0 -0.0415342 -0.109364 -0.207094 0.00399756 0.00524603 -0.000848502 0 0 0 1 0 0 0 0 0 0 0 0 0 0 0 0 48 0.002 
1001 4 0.0072483 0.080794 0.0210171 0 0 0 0.0660763 -0.00975241 -0.144814 0 -0.000164368 0 0 0 0 0 0 0 0 0 0 0 0 0 0 0 0 0 26 0.002 
308 1 0.00333244 0.0825264 0.0201647 0 0 0 0.0382126 -0.0157446 -0.134155 0 -0.000164368 0 0 0 0 0 0 0 0 0 0 0 0 0 0 0 0 0 55 0.002 
570 1 0.00315934 0.0869029 0.0190071 0 0 0 0.0288857 -0.0592889 -0.0351936 0 -0.000164368 0 0 0 0 0 0 0 0 0 0 0 0 0 0 0 0 0 35 0.002 
297 3 0.00300528 0.090769 0.0200359 0 0 0 0.00998399 -0.144593 0.0153571 0 -0.000164368 0 0 0 0 0 0 0 0 0 0 0 0 0 0 0 0 0 42 0.002 
1212 1 0.00977702 0.0901529 0.0206338 0 0 0 0.00878346 -0.164969 -0.0412203 0.000621514 -1.69279e-05 0.000137328 1 0 0 0 0 0 0 0 0 0 0 0 0 0 0 0 8 0.002 
492 4 0.0156478 0.0903378 0.0195123 0 0 0 -0.0468042 -0.1533 -0.065225 0.000657197 -0.0010691 -0.000111602 0 0 0 1 0 0 0 0 0 0 0 0 0 0 0 0 26 0.002 
245 1 0.00660226 0.0922111 0.019033 0 0 0 0.00984954 -0.146422 -0.00594209 0 -0.000164368 0 0 0 0 0 0 0 0 0 0 0 0 0 0 0 0 0 28 0.002 
451 1 0.0137461 0.0944793 0.020968 0 0 0 0.142686 -0.0870687 -0.00635484 0 -0.000164368 0 0 0 0 0 0 0 0 0 0 0 0 0 0 0 0 0 35 0.002 
906 5 0.0178579 0.0941298 0.0197958 0 0 0 0.00944366 -0.100601 -0.00688865 0 -0.000164368 0 0 0 0 0 0 0 0 0 0 0 0 0 0 0 0 0 30 0.002 
1116 4 0.00301494 0.0974683 0.0210621 0 0 0 -0.0172472 -0.0943385 0.0237153 0 -0.000164368 0 0 0 0 0 0 0 0 0 0 0 0 0 0 0 0 0 16 0.002 
823 9 0.00954628 0.100506 0.020287 0 0 0 0.00632515 -0.130108 0.0681847 -0.000496288 0.000400717 -7.76768e-05 0 0 0 0 0 0 0 0 1 0 0 0 0 0 0 0 11 0.002 
1064 5 0.0134186 0.101216 0.0195397 0 0 0 0.0236732 -0.0531045 0.101894 0 -0.000164368 0 0 0 0 0 0 0 0 0 0 0 0 0 0 0 0 0 18 0.002 
1176 6 0.0159748 0.103754 0.0213062 0 0 0 -0.0451685 -0.0315227 0.212686 0 -0.000164368 0 0 0 0 0 0 0 0 0 0 0 0 0 0 0 0 0 1 0.002 
760 3 0.00552767 0.106998 0.0198652 0 0 0 0.0573301 0.0261787 0.0101805 -0.00073025 3.81539e-05 -0.00138689 0 0 2 0 0 0 0 0 0 0 0 0 0 0 0 0 26 0.002 
1189 5 0.0094206 0.107847 0.020192 0 0 0 0.0549963 -0.0490745 0.0646702 0.000554264 0.000693204 0.000526492 1 0 1 0 0 0 0 0 0 0 0 0 0 0 0 0 3 0.002 
261 1 0.00300058 0.076142 0.0224316 0 0 0 0.00771626 0.0888112 -0.221712 0 -0.000164368 0 0 0 0 0 0 0 0 0 0 0 0 0 0 0 0 0 36 0.002 
399 3 0.0105521 0.075339 0.0223203 0 0 0 0.00194955 0.198594 -0.236549 -0.0010511 -0.000479497 0.000174832 0 0 3 0 0 0 0 0 0 0 0 0 0 0 0 0 42 0.002 
873 6 0.0144304 0.0753998 0.0213688 0 0 0 0.0405081 -0.0373662 -0.145123 -0.00198931 -0.00462486 -0.000308049 0 0 1 1 0 0 0 0 0 0 0 0 0 0 0 0 16 0.002 
192 7 0.00407404 0.0799117 0.0233279 0 0 0 0.0173749 0.0489595 -0.144327 0 -0.000164368 0 0 0 0 0 0 0 0 0 0 0 0 0 0 0 0 0 49 0.002 
926 2 0.0142436 0.0807853 0.0214464 0 0 0 -0.0495336 -0.287607 0.0620338 -0.0110662 -0.0062108 -0.00106755 0 1 0 0 0 0 0 0 0 0 0 0 0 0 0 0 18 0.002 
128 4 0.0107231 0.0832941 0.021439 0 0 0 -0.00110941 -0.155071 -0.0566222 -0.00122366 -0.000790425 -0.00496387 0 1 0 1 0 0 0 0 0 0 0 0 0 0 0 0 40 0.002 
924 7 0.0176949 0.0827526 0.0217192 0 0 0 -0.137009 -0.108639 0.125144 0.0110662 0.00588207 0.00106755 0 1 0 0 0 0 0 0 0 0 0 0 0 0 0 0 18 0.002 
1229 6 0.00307402 0.0857367 0.022869 0 0 0 -0.0226777 -0.107936 -0.0661954 0 -0.000164368 0 0 0 0 0 0 0 0 0 0 0 0 0 0 0 0 0 1 0.002 
364 3 0.00693315 0.0847569 0.021856 0 0 0 -0.0249233 -0.0720232 -0.195093 0 -0.000164368 0 0 0 0 0 0 0 0 0 0 0 0 0 0 0 0 0 35 0.002 