ITEM: TIMESTEP
8900000
ITEM: NUMBER OF ENTRIES
295
ITEM: BOX BOUNDS ff ff ff
-0.01 0.45
-0.15 0.15
-0.08 0.1
ITEM: ENTRIES c_pwc[1] c_pwc[2] c_pwc[3] 
0 956 63 
0 850 41 
0 885 41 
0 912 1105 
0 894 902 
0 894 92 
0 894 1012 
0 894 638 
0 894 705 
0 894 297 
0 855 813 
0 938 732 
0 944 986 
0 950 545 
1 1889 146 
1 529 146 
1 530 146 
1 1842 146 
1 1827 146 
1 1831 146 
1 1828 146 
1 1830 146 
1 1861 146 
1 1874 146 
1 1873 146 
1 1883 146 
1 526 146 
1 541 146 
1 527 146 
1 1869 146 
1 1871 146 
1 1868 146 
1 1893 146 
1 1892 146 
1 1885 146 
0 885 270 
0 885 969 
0 885 48 
0 885 127 
0 885 52 
0 885 908 
0 885 276 
0 885 6 
0 885 79 
0 885 351 
0 885 45 
0 885 39 
0 885 393 
0 850 270 
0 850 969 
0 850 48 
0 850 127 
0 850 52 
0 850 908 
0 850 276 
0 850 6 
0 850 79 
0 850 351 
0 850 45 
0 851 39 
0 851 393 
1 2698 752 
1 2717 752 
1 2703 752 
1 2723 752 
0 895 640 
0 895 507 
0 895 531 
0 895 118 
0 895 789 
0 885 573 
0 894 272 
0 894 14 
0 894 1059 
0 894 727 
0 894 333 
0 894 897 
0 894 606 
0 895 702 
0 895 717 
0 895 1002 
0 935 1108 
0 931 992 
0 913 1113 
0 913 1054 
0 431 1054 
0 961 1029 
0 961 40 
0 753 1029 
0 753 40 
0 911 369 
0 886 15 
0 885 15 
0 850 15 
0 966 722 
0 893 722 
0 893 690 
0 888 352 
0 891 823 
0 887 955 
0 892 852 
0 888 668 
0 381 454 
0 379 622 
0 375 1097 
0 378 1104 
0 371 114 
0 397 35 
0 400 914 
0 409 243 
0 415 559 
0 411 215 
0 382 200 
0 380 91 
0 376 256 
0 374 615 
0 379 884 
0 379 443 
0 377 894 
0 372 504 
0 373 107 
0 373 754 
0 369 542 
0 369 942 
0 367 656 
0 374 982 
0 402 191 
0 402 180 
0 398 1083 
0 434 994 
0 365 228 
0 409 733 
0 411 804 
0 430 208 
0 420 479 
0 429 208 
0 427 202 
0 535 269 
0 533 609 
0 527 401 
0 384 295 
0 384 743 
0 380 148 
0 378 398 
0 376 637 
0 390 366 
0 388 214 
0 523 346 
0 523 885 
0 519 532 
0 518 736 
0 549 298 
0 402 1079 
0 402 528 
0 400 389 
0 589 217 
0 434 47 
0 559 59 
0 577 691 
0 420 478 
0 535 132 
0 533 227 
0 531 424 
0 534 569 
0 534 936 
0 545 1102 
0 546 950 
0 540 785 
0 525 88 
0 521 98 
0 519 1087 
0 520 365 
0 553 220 
0 551 757 
0 549 939 
0 547 328 
0 554 89 
0 589 232 
0 587 168 
0 561 17 
0 562 944 
0 573 977 
0 573 853 
0 578 484 
0 576 135 
0 569 57 
0 565 943 
0 563 694 
0 570 386 
0 536 302 
0 546 153 
0 524 5 
0 520 875 
0 516 367 
0 516 858 
0 516 578 
0 554 880 
0 552 770 
0 547 568 
1 2175 880 
0 591 129 
0 584 90 
0 584 470 
0 562 487 
0 555 822 
0 578 28 
0 574 247 
0 583 612 
0 583 169 
0 581 218 
0 573 412 
0 571 687 
0 584 169 
0 568 509 
0 569 219 
0 1061 771 
0 1061 725 
0 1061 649 
0 1059 223 
0 1055 251 
0 1055 31 
1 1369 223 
0 1069 177 
0 1067 83 
0 1067 697 
0 520 259 
0 1079 87 
0 1077 85 
0 1111 913 
0 1043 556 
0 591 174 
1 1790 485 
0 1085 319 
0 1083 558 
0 560 312 
0 558 66 
0 1107 617 
0 1107 477 
0 1103 106 
0 574 537 
0 584 255 
0 1095 327 
0 1095 376 
0 1093 780 
0 1063 864 
0 1059 212 
0 1057 682 
0 1056 97 
0 1054 421 
0 1053 476 
0 1071 71 
0 1070 152 
0 1066 238 
0 1066 335 
0 1051 596 
0 1047 36 
0 1045 599 
0 1044 746 
0 1077 201 
0 1116 315 
0 1110 162 
0 1084 280 
0 1104 445 
0 1103 506 
0 1101 241 
0 1099 646 
0 1098 500 
0 1098 793 
0 1097 275 
0 1093 643 
0 1097 642 
0 1064 197 
0 1060 774 
0 1066 349 
0 1270 86 
0 1046 248 
0 1042 24 
0 1052 82 
0 1341 379 
0 1116 277 
0 1112 461 
0 1084 117 
0 1082 670 
0 1098 142 
0 1096 363 
0 1285 23 
0 1275 613 
0 1273 93 
0 1299 304 
0 1333 246 
0 1333 205 
0 119 67 
0 133 667 
0 116 32 
0 154 30 
