ITEM: TIMESTEP
9400000
ITEM: NUMBER OF ENTRIES
311
ITEM: BOX BOUNDS ff ff ff
-0.01 0.45
-0.15 0.15
-0.08 0.1
ITEM: ENTRIES c_pwc[1] c_pwc[2] c_pwc[3] 
0 850 41 
0 885 41 
0 894 1065 
0 894 126 
0 854 923 
0 852 553 
0 852 845 
0 894 953 
0 894 1021 
0 894 662 
0 894 934 
0 894 964 
0 894 404 
0 852 314 
0 852 1146 
0 855 306 
0 855 718 
0 855 903 
0 855 455 
0 855 499 
0 854 65 
0 854 931 
1 2698 752 
1 2717 752 
1 2703 752 
1 2723 752 
1 2724 752 
1 2725 752 
1 1861 146 
1 1874 146 
1 1873 146 
1 1883 146 
1 529 146 
1 1889 146 
1 530 146 
1 1842 146 
1 1828 146 
1 1831 146 
1 1830 146 
1 1827 146 
1 526 146 
1 541 146 
1 527 146 
1 1871 146 
1 1869 146 
1 1868 146 
1 1892 146 
1 1893 146 
1 1885 146 
0 885 270 
0 885 969 
0 885 48 
0 885 127 
0 885 52 
0 885 908 
0 885 276 
0 885 6 
0 885 79 
0 885 351 
0 885 45 
0 885 39 
0 885 393 
0 850 270 
0 850 969 
0 850 48 
0 850 127 
0 850 52 
0 850 908 
0 850 276 
0 850 6 
0 850 79 
0 850 351 
0 850 45 
0 851 39 
0 851 393 
0 895 635 
0 895 663 
0 894 924 
0 894 940 
0 852 738 
0 852 357 
0 852 1139 
0 895 959 
0 926 1174 
0 915 529 
0 915 1167 
0 961 1029 
0 961 40 
0 955 900 
0 753 1029 
0 753 40 
0 911 1165 
0 886 15 
0 885 15 
0 850 15 
0 898 681 
0 892 1057 
0 892 145 
0 415 1091 
0 892 113 
0 895 203 
0 888 502 
0 383 1106 
0 381 115 
0 377 431 
0 387 791 
0 373 498 
0 369 1079 
0 435 1154 
0 435 705 
0 435 1137 
0 431 1038 
0 429 1030 
0 423 64 
0 417 88 
0 382 537 
0 383 365 
0 381 622 
0 394 371 
0 390 884 
0 390 1085 
0 389 600 
0 387 914 
0 372 616 
0 364 256 
0 369 504 
0 436 330 
0 437 1157 
0 365 614 
0 404 243 
0 404 22 
0 407 387 
0 405 298 
1 1716 389 
0 428 59 
0 422 320 
0 431 33 
0 429 226 
0 425 464 
0 421 320 
0 419 1145 
0 529 435 
0 386 171 
0 541 202 
0 372 208 
0 370 722 
0 368 269 
0 364 656 
0 551 559 
0 396 401 
0 396 795 
0 587 358 
0 438 609 
0 436 295 
0 432 542 
0 557 255 
0 555 571 
0 555 1087 
0 410 700 
0 408 325 
0 406 227 
0 573 733 
0 430 687 
0 428 134 
0 424 1054 
0 569 1128 
0 414 443 
0 571 284 
0 537 327 
0 537 870 
0 537 725 
0 533 71 
0 543 158 
0 541 35 
0 539 282 
0 523 411 
0 521 936 
0 519 31 
0 524 85 
0 553 386 
0 587 569 
0 587 143 
0 557 444 
0 555 615 
0 562 218 
0 560 148 
0 558 447 
0 581 424 
0 581 737 
0 581 217 
0 577 89 
0 577 754 
0 575 57 
0 569 328 
0 569 1 
0 567 851 
0 563 398 
0 571 412 
0 534 376 
0 532 691 
0 529 132 
0 544 372 
0 542 136 
0 545 664 
0 524 341 
0 520 319 
0 516 630 
0 554 840 
0 554 837 
0 552 152 
0 550 247 
0 551 152 
0 590 219 
0 590 587 
0 584 190 
0 585 91 
0 562 409 
0 560 549 
0 577 944 
0 584 312 
0 566 46 
0 1057 220 
0 1055 736 
0 1053 578 
0 1053 307 
0 1067 670 
0 1065 1010 
0 1049 585 
0 522 817 
0 1079 117 
0 1079 28 
0 1077 124 
0 1075 169 
0 1113 101 
0 1113 864 
0 1112 280 
0 1111 405 
0 1111 528 
0 1111 50 
0 1085 822 
0 562 913 
0 1109 418 
0 1103 100 
0 1101 259 
0 1093 478 
0 1093 770 
0 1091 853 
0 1089 558 
0 1064 939 
0 1063 178 
0 1061 80 
0 1059 205 
0 1059 649 
0 1057 87 
0 1055 25 
0 1055 90 
0 1069 83 
0 1051 349 
0 1050 646 
0 1049 429 
0 1047 408 
0 1042 99 
0 1078 153 
0 1075 683 
0 1074 120 
0 1109 162 
0 1109 858 
0 1087 223 
0 1087 441 
0 1086 129 
0 1085 129 
0 1103 476 
0 1098 177 
0 1094 36 
0 1090 62 
0 1279 66 
0 1064 197 
0 1054 147 
0 1054 518 
0 1070 93 
0 1070 78 
0 1068 643 
0 1068 848 
0 1066 785 
0 1270 421 
0 1050 428 
0 1046 596 
0 1042 697 
0 1052 248 
0 1080 81 
0 1078 241 
0 1076 109 
0 1076 212 
0 1074 445 
0 1104 67 
0 1098 617 
0 1321 265 
0 1090 97 
0 1090 86 
0 1287 27 
0 1283 119 
0 1283 363 
0 1291 500 
0 1270 530 
0 1314 94 
0 1307 599 
0 1332 32 
0 1329 774 
0 101 174 
0 159 24 
0 1272 246 
