ITEM: TIMESTEP
9000000
ITEM: NUMBER OF ENTRIES
269
ITEM: BOX BOUNDS ff ff ff
-0.01 0.45
-0.15 0.15
-0.08 0.1
ITEM: ENTRIES c_pwc[1] c_pwc[2] c_pwc[3] 
0 932 801 
0 954 624 
0 850 41 
0 885 41 
0 855 483 
0 894 748 
0 894 380 
0 894 707 
0 854 505 
0 854 1011 
0 853 634 
0 894 131 
0 894 519 
0 894 488 
0 894 790 
0 894 648 
1 529 146 
1 530 146 
1 1842 146 
1 1828 146 
1 1831 146 
1 1827 146 
1 1830 146 
1 1861 146 
1 1874 146 
1 1873 146 
1 1883 146 
1 1889 146 
1 526 146 
1 541 146 
1 527 146 
1 1871 146 
1 1868 146 
1 1869 146 
1 1892 146 
1 1885 146 
1 1893 146 
0 956 800 
0 885 270 
0 885 969 
0 885 48 
0 885 127 
0 885 52 
0 885 908 
0 885 276 
0 885 6 
0 885 79 
0 885 351 
0 885 45 
0 885 39 
0 885 393 
0 850 270 
0 850 969 
0 850 48 
0 850 127 
0 850 52 
0 850 908 
0 850 276 
0 850 6 
0 850 79 
0 850 351 
0 850 45 
0 851 39 
0 851 393 
0 895 272 
1 2706 752 
1 2684 752 
1 2698 752 
1 2717 752 
1 2705 752 
1 2704 752 
1 2722 752 
0 853 448 
0 894 128 
0 894 533 
0 894 289 
0 894 333 
0 852 955 
0 895 845 
0 895 384 
0 937 1107 
0 961 1029 
0 961 40 
0 753 1029 
0 753 40 
0 886 15 
0 885 15 
0 850 15 
0 898 3 
0 892 355 
0 853 810 
0 885 1109 
0 885 1020 
0 379 791 
0 375 622 
0 375 447 
0 429 982 
0 413 1108 
0 376 1079 
0 383 191 
0 375 1079 
0 392 870 
0 390 894 
0 371 479 
0 438 925 
0 438 615 
0 435 504 
0 433 187 
0 407 325 
0 405 148 
0 422 754 
0 431 366 
0 431 616 
0 429 1097 
0 417 542 
0 415 733 
0 535 822 
0 386 328 
0 384 208 
0 384 822 
0 374 1 
0 394 950 
0 390 115 
0 374 609 
0 553 532 
0 547 691 
0 547 977 
0 402 217 
0 398 171 
0 587 614 
0 517 136 
0 581 298 
0 577 398 
0 428 851 
0 426 1030 
0 424 295 
0 414 935 
0 537 346 
0 527 88 
0 534 812 
0 528 158 
0 545 155 
0 541 89 
0 525 687 
0 525 843 
0 523 694 
0 523 444 
0 520 153 
0 551 320 
0 551 91 
0 549 528 
0 547 1072 
0 547 401 
1 2153 1072 
0 587 35 
0 587 365 
0 581 330 
0 579 22 
0 577 944 
0 575 33 
0 573 424 
0 576 219 
0 569 994 
0 569 608 
0 565 782 
0 563 90 
0 538 388 
0 530 737 
0 544 135 
0 540 28 
0 524 376 
0 522 571 
0 522 319 
0 520 312 
0 552 38 
0 550 484 
0 590 494 
0 588 101 
0 586 785 
0 517 367 
0 517 220 
0 556 87 
0 561 106 
0 574 251 
0 584 31 
0 570 302 
0 570 307 
0 1063 643 
0 1057 672 
0 1053 743 
0 538 558 
0 1071 549 
0 1067 605 
0 1047 1010 
0 1047 816 
0 1077 418 
0 1075 864 
0 1115 238 
0 588 585 
0 1085 840 
0 1081 664 
0 1107 335 
0 1101 411 
0 1099 578 
0 1099 277 
0 1097 847 
0 1093 259 
0 1089 485 
0 1063 117 
0 1062 441 
0 1056 212 
0 1055 124 
0 1053 642 
0 1070 241 
0 1050 71 
0 1050 341 
0 1047 327 
0 1116 349 
0 1086 599 
0 1082 13 
0 1081 913 
0 1107 682 
0 1107 50 
0 1106 421 
0 1103 83 
0 1100 27 
0 1110 36 
0 1095 746 
0 1092 75 
0 1091 409 
0 1089 428 
0 1089 500 
0 1285 160 
0 1063 275 
0 1058 81 
0 1058 162 
0 1056 80 
0 1070 142 
0 1068 37 
0 1042 518 
0 1042 670 
0 1078 281 
0 1078 78 
0 1078 24 
0 1077 78 
0 1112 774 
0 1224 408 
0 1311 461 
0 1088 86 
0 1088 408 
0 1086 363 
0 1082 848 
0 1108 97 
0 1104 201 
0 1110 163 
0 1317 667 
0 1094 197 
0 1281 205 
0 1293 279 
0 1277 23 
0 1270 10 
0 1278 315 
0 1338 11 
0 1329 32 
0 1321 19 
0 1323 379 
0 147 94 
0 1332 246 
0 129 761 
