ITEM: TIMESTEP
8700000
ITEM: NUMBER OF ENTRIES
276
ITEM: BOX BOUNDS ff ff ff
-0.01 0.45
-0.15 0.15
-0.08 0.1
ITEM: ENTRIES c_pwc[1] c_pwc[2] c_pwc[3] 
0 944 383 
0 942 1060 
0 920 603 
0 948 491 
0 850 41 
0 885 41 
0 855 900 
0 855 164 
0 894 906 
0 894 874 
0 854 773 
0 894 469 
0 894 301 
0 894 820 
0 894 888 
0 894 707 
0 855 314 
0 855 420 
0 855 242 
0 855 1039 
0 936 1069 
1 1831 146 
1 529 146 
1 530 146 
1 1826 146 
1 1828 146 
1 1842 146 
1 1827 146 
1 1830 146 
1 526 146 
1 541 146 
1 527 146 
1 523 146 
1 1871 146 
1 1869 146 
1 1868 146 
1 1892 146 
1 1893 146 
1 1885 146 
1 1861 146 
1 1874 146 
1 1873 146 
1 1883 146 
1 2703 752 
1 2724 752 
1 2723 752 
1 2698 752 
1 2717 752 
1 2725 752 
0 885 270 
0 885 48 
0 885 127 
0 885 52 
0 885 908 
0 885 276 
0 885 6 
0 885 79 
0 885 351 
0 885 45 
0 885 39 
0 885 393 
0 850 270 
0 850 48 
0 850 127 
0 850 52 
0 850 908 
0 850 276 
0 850 6 
0 850 79 
0 850 351 
0 850 45 
0 851 39 
0 851 393 
0 884 704 
0 894 790 
0 894 2 
0 894 824 
0 894 299 
0 895 971 
0 945 1086 
0 953 104 
0 918 1078 
0 916 554 
0 961 1029 
0 961 40 
0 753 1029 
0 753 40 
0 886 15 
0 885 721 
0 885 15 
0 850 15 
0 888 516 
0 892 995 
0 385 200 
0 383 914 
0 383 191 
0 379 528 
0 367 1085 
0 367 1038 
0 395 70 
0 395 1028 
0 365 435 
0 409 576 
0 409 501 
0 405 1030 
0 405 559 
0 427 431 
0 382 542 
0 377 3 
0 387 765 
0 370 804 
0 367 791 
0 366 791 
0 401 171 
0 399 870 
0 438 35 
0 436 1072 
0 435 942 
0 365 115 
0 406 107 
0 406 38 
0 404 600 
0 405 107 
0 411 943 
0 425 269 
0 418 494 
0 411 282 
0 535 47 
0 529 484 
0 384 241 
0 384 47 
0 378 757 
0 378 894 
0 543 148 
0 541 228 
0 392 921 
0 523 614 
0 521 637 
0 364 1007 
0 398 256 
0 585 612 
0 438 867 
0 436 615 
0 428 982 
0 426 302 
0 420 478 
0 567 694 
0 563 1 
0 418 366 
0 537 520 
0 529 1048 
0 527 328 
0 536 358 
0 536 411 
0 545 837 
0 521 5 
0 519 226 
0 551 737 
0 549 57 
0 549 822 
0 547 153 
0 589 330 
0 585 325 
0 585 424 
0 591 885 
0 555 944 
0 563 85 
0 581 858 
0 577 428 
0 573 232 
0 578 398 
0 569 565 
0 569 622 
0 567 106 
0 565 401 
0 563 178 
0 532 444 
0 537 89 
0 521 319 
0 526 770 
0 548 409 
0 547 816 
0 590 687 
0 586 587 
0 584 780 
0 587 599 
0 562 691 
0 560 743 
0 556 307 
0 580 28 
0 580 585 
0 576 227 
0 574 608 
0 570 298 
0 568 31 
0 568 880 
0 566 793 
0 566 255 
0 564 689 
0 569 98 
0 1061 578 
0 536 509 
0 1071 135 
0 1071 66 
0 1071 774 
0 1067 617 
0 1049 132 
0 1047 25 
0 1045 251 
0 1045 304 
0 1079 477 
0 1085 22 
0 1083 537 
0 1081 864 
0 1081 87 
0 1081 372 
0 556 642 
0 1103 376 
0 1101 913 
0 1101 90 
0 572 485 
0 1089 487 
0 1064 174 
0 1054 335 
0 1071 267 
0 1069 292 
0 1052 142 
0 1073 166 
1 1387 166 
0 1114 143 
0 1086 646 
0 1085 124 
0 1103 259 
0 1103 83 
0 1103 81 
0 1102 201 
0 1099 177 
0 1092 120 
0 1097 418 
0 1281 19 
0 1279 27 
0 1062 817 
0 1068 10 
0 1068 682 
0 1277 613 
0 1051 530 
0 1305 363 
0 1080 643 
0 1078 476 
0 1117 461 
0 1043 461 
0 1042 461 
0 1086 725 
0 1107 238 
0 1106 212 
0 1102 94 
0 1100 119 
0 1315 571 
0 1280 50 
0 1277 667 
0 1305 445 
0 1341 341 
0 1337 197 
0 1308 500 
0 1335 761 
0 1329 109 
0 1327 246 
0 1321 78 
0 1319 11 
0 76 67 
0 112 265 
0 1336 277 
0 103 279 
0 153 32 
1 1599 32 
0 121 408 
