ITEM: TIMESTEP
8450000
ITEM: NUMBER OF ENTRIES
286
ITEM: BOX BOUNDS ff ff ff
-0.01 0.45
-0.15 0.15
-0.08 0.1
ITEM: ENTRIES c_pwc[1] c_pwc[2] c_pwc[3] 
0 952 1055 
0 850 41 
0 885 41 
0 852 1003 
0 894 748 
0 894 410 
0 894 874 
0 894 144 
0 855 164 
0 854 242 
0 926 187 
1 2706 752 
1 2704 752 
1 2705 752 
1 2722 752 
1 2698 752 
1 2717 752 
0 952 1053 
1 529 146 
1 530 146 
1 1842 146 
1 1826 146 
1 1828 146 
1 1830 146 
1 1831 146 
1 1827 146 
1 1861 146 
1 1874 146 
1 1883 146 
1 1873 146 
1 526 146 
1 541 146 
1 527 146 
1 523 146 
1 1871 146 
1 1868 146 
1 1869 146 
1 1893 146 
1 1892 146 
1 1885 146 
0 885 270 
0 885 48 
0 885 127 
0 885 52 
0 885 908 
0 885 276 
0 885 6 
0 885 79 
0 885 351 
0 885 45 
0 885 39 
0 885 393 
0 850 270 
0 850 48 
0 850 127 
0 850 52 
0 850 908 
0 850 276 
0 850 6 
0 850 79 
0 850 351 
0 850 45 
0 851 39 
0 851 393 
0 895 704 
0 853 77 
0 894 370 
0 894 971 
0 894 923 
0 894 949 
0 852 580 
0 852 962 
0 895 718 
0 895 96 
0 895 789 
0 895 1016 
0 933 498 
0 951 1028 
0 961 1029 
0 961 40 
0 753 1029 
0 753 40 
0 901 61 
0 886 15 
0 885 15 
0 850 15 
0 965 757 
0 963 754 
0 888 137 
0 891 645 
0 893 193 
0 895 626 
0 888 995 
0 888 636 
0 888 654 
0 888 598 
0 377 443 
0 437 666 
0 435 241 
0 407 202 
0 405 38 
0 403 501 
0 406 38 
0 429 942 
0 421 1030 
0 415 765 
0 413 302 
0 411 867 
0 382 616 
0 383 454 
0 383 837 
0 381 614 
0 379 428 
0 377 1 
0 390 134 
0 393 622 
0 373 115 
0 402 576 
0 395 609 
0 432 532 
0 410 656 
0 410 914 
0 423 736 
0 423 431 
0 418 612 
0 388 600 
0 525 136 
0 519 107 
0 518 107 
0 551 771 
0 549 791 
0 547 484 
0 547 559 
0 398 59 
0 585 57 
0 585 3 
0 517 840 
0 436 542 
0 436 689 
0 434 171 
0 432 822 
0 432 35 
0 410 504 
0 410 921 
0 410 853 
0 424 346 
0 418 154 
0 416 148 
0 414 175 
0 412 851 
0 535 858 
0 533 280 
0 531 320 
0 529 218 
0 536 585 
0 543 282 
0 546 885 
0 525 100 
0 549 5 
0 547 307 
0 548 599 
0 589 737 
0 589 569 
0 517 64 
0 584 691 
0 559 89 
0 555 99 
0 560 256 
0 577 129 
0 577 743 
0 577 358 
0 573 153 
0 571 1048 
0 576 367 
0 569 694 
0 569 913 
0 567 994 
0 565 494 
0 565 232 
0 532 28 
0 532 418 
0 532 587 
0 535 98 
0 546 687 
0 544 135 
0 545 936 
0 526 106 
0 554 485 
0 550 168 
0 591 255 
0 590 25 
0 584 444 
0 589 214 
0 556 565 
0 559 605 
0 559 413 
0 578 1010 
0 578 155 
0 575 615 
0 570 672 
0 568 780 
0 1059 611 
0 1069 376 
0 1069 670 
0 546 319 
0 1047 864 
0 1047 227 
0 1045 201 
0 1042 24 
0 522 864 
0 1075 87 
0 1113 37 
0 1111 422 
0 1111 169 
0 1087 170 
0 1085 190 
0 1083 642 
0 1081 117 
0 1109 476 
0 1107 81 
0 1105 83 
0 1105 409 
0 1105 421 
0 1103 630 
0 1103 537 
0 1095 401 
0 570 509 
0 1057 556 
0 1056 120 
1 2590 80 
0 1069 143 
0 1068 27 
0 1045 219 
0 1079 71 
0 1078 238 
0 1078 124 
0 1076 774 
0 1114 304 
0 1114 31 
0 1112 363 
0 1043 682 
0 1083 327 
0 1083 247 
0 1109 649 
0 1101 646 
0 1098 558 
0 1096 212 
0 1095 13 
0 1093 374 
0 1089 142 
0 1064 119 
0 1055 506 
0 1054 571 
0 1071 162 
0 1070 82 
0 1070 33 
0 1068 97 
0 1068 279 
0 1275 205 
0 1050 259 
0 1046 349 
0 1042 78 
0 1052 66 
0 1117 174 
0 1110 379 
0 1087 36 
0 1084 847 
0 1082 62 
0 1104 429 
0 1289 725 
0 1275 746 
0 1271 817 
0 1271 518 
0 1270 67 
0 1303 341 
0 1301 408 
0 1333 17 
0 1333 109 
0 1325 461 
0 1315 281 
0 157 30 
0 1292 248 
0 151 32 
0 129 152 
0 101 613 
0 143 500 
