ITEM: TIMESTEP
9350000
ITEM: NUMBER OF ENTRIES
303
ITEM: BOX BOUNDS ff ff ff
-0.01 0.45
-0.15 0.15
-0.08 0.1
ITEM: ENTRIES c_pwc[1] c_pwc[2] c_pwc[3] 
0 920 1053 
0 916 1165 
0 850 41 
0 885 41 
0 855 221 
0 855 922 
0 855 540 
0 894 131 
0 894 1012 
0 884 167 
0 852 240 
0 894 796 
0 894 1021 
0 894 662 
0 894 934 
0 894 577 
0 894 1052 
0 894 874 
0 852 1008 
0 855 1105 
0 855 123 
0 855 639 
0 855 263 
0 855 895 
0 855 455 
0 855 499 
0 932 313 
1 2717 752 
1 2698 752 
1 2685 752 
1 1861 146 
1 1874 146 
1 1873 146 
1 1883 146 
1 529 146 
1 1889 146 
1 530 146 
1 1828 146 
1 1842 146 
1 1831 146 
1 1830 146 
1 1827 146 
1 526 146 
1 541 146 
1 527 146 
1 1871 146 
1 1869 146 
1 1868 146 
1 1892 146 
1 1893 146 
1 1885 146 
0 885 270 
0 885 969 
0 885 48 
0 885 127 
0 885 52 
0 885 908 
0 885 276 
0 885 6 
0 885 79 
0 885 351 
0 885 45 
0 885 39 
0 885 393 
0 850 270 
0 850 969 
0 850 48 
0 850 127 
0 850 52 
0 850 908 
0 850 276 
0 850 6 
0 850 79 
0 850 351 
0 850 45 
0 851 39 
0 851 393 
0 895 727 
0 895 805 
0 895 462 
0 894 821 
0 894 404 
0 894 924 
0 894 708 
0 894 857 
0 894 850 
0 852 95 
0 895 1094 
0 895 486 
0 895 1016 
0 895 959 
0 895 583 
0 895 1070 
0 935 1149 
0 938 1091 
0 925 1162 
0 915 900 
0 961 1029 
0 961 40 
0 957 954 
0 753 1029 
0 753 40 
0 886 15 
0 885 15 
0 850 15 
0 898 640 
0 895 675 
0 888 777 
0 853 991 
0 891 779 
0 892 145 
0 892 4 
0 895 203 
0 895 829 
0 888 1061 
0 385 88 
0 379 187 
0 391 1123 
0 391 893 
0 389 1106 
0 389 791 
0 367 782 
0 366 1038 
0 405 1167 
0 429 1137 
0 427 435 
0 411 1164 
0 384 226 
0 378 884 
0 394 1054 
0 393 757 
0 391 191 
0 371 389 
0 402 656 
0 399 170 
0 397 464 
0 438 106 
0 408 1145 
0 408 1007 
0 408 571 
0 408 295 
0 403 477 
1 1719 387 
0 425 479 
0 421 614 
0 412 1151 
0 417 622 
0 415 33 
0 531 255 
0 384 443 
0 394 600 
0 390 134 
0 525 35 
0 521 700 
0 553 935 
0 551 232 
0 551 284 
0 549 85 
0 549 47 
0 547 950 
0 400 243 
0 400 994 
0 517 325 
0 438 208 
0 364 687 
0 561 612 
0 559 1087 
0 406 358 
0 404 504 
0 571 454 
0 428 269 
0 424 982 
0 567 851 
0 531 282 
0 530 31 
0 528 689 
0 545 190 
0 539 611 
0 540 46 
0 525 943 
0 525 664 
0 519 136 
0 524 867 
0 522 242 
0 547 412 
0 554 38 
0 585 227 
0 561 936 
0 557 520 
0 557 215 
0 555 754 
0 558 520 
0 583 569 
0 581 894 
0 577 1072 
0 575 725 
0 573 542 
0 573 155 
0 569 376 
0 565 234 
0 565 89 
0 564 424 
0 538 532 
0 530 944 
0 530 346 
0 528 746 
0 528 565 
0 529 746 
0 529 219 
0 527 840 
0 542 148 
0 545 737 
0 524 691 
0 516 537 
0 551 302 
0 562 478 
0 562 98 
1 1771 630 
0 576 817 
0 576 743 
0 583 444 
0 584 444 
0 570 528 
0 569 587 
0 1067 771 
0 1067 556 
0 1065 853 
0 1065 212 
0 544 549 
0 1051 152 
0 1051 25 
0 1049 307 
0 1045 837 
0 1045 83 
0 1045 162 
0 554 780 
0 1115 13 
0 1111 1010 
0 1087 280 
0 1085 858 
0 1107 770 
0 1103 135 
0 1103 90 
0 1099 585 
0 1097 5 
0 580 132 
0 1095 608 
0 1095 101 
0 1093 50 
0 1091 374 
0 1091 129 
0 1089 341 
0 1063 28 
0 1069 259 
0 1067 201 
0 1051 147 
0 1049 66 
0 1076 177 
0 1117 642 
0 1117 617 
0 1112 461 
0 1110 785 
0 1082 223 
0 1108 153 
0 1103 205 
0 1097 822 
0 1096 939 
0 1095 649 
0 1093 697 
0 1091 248 
0 1064 120 
0 1054 445 
0 1295 93 
0 1072 315 
0 1068 97 
0 1068 109 
0 1068 62 
0 1301 613 
0 1078 672 
0 1076 36 
0 1074 774 
0 1116 82 
0 1112 596 
0 1088 23 
0 1087 292 
0 1105 379 
0 1104 421 
0 1090 349 
0 1297 682 
0 1297 599 
0 1295 279 
0 1293 32 
0 1291 304 
0 1312 500 
0 1311 500 
0 1307 86 
0 1325 19 
0 1325 27 
0 149 174 
0 145 246 
0 118 24 
0 24 761 
0 120 37 
