ITEM: TIMESTEP
9050000
ITEM: NUMBER OF ENTRIES
2773
ITEM: BOX BOUNDS ff ff ff
-0.01 0.45
-0.15 0.15
-0.08 0.1
ITEM: ENTRIES c_pwc[1] c_pwc[2] c_pwc[3] c_pwc[4] c_pwc[5] c_pwc[6] c_pwc[7] c_pwc[8] c_pwc[9] c_pwc[10] c_pwc[11] c_pwc[12] c_pwc[13] c_pwc[14] 
0 0 0 -1.8368e-08 0.0200057 -0.0516409 0 837 13923 4.54776e-06 1.42436e-06 -1.77249e-06 3.00068e-10 5.96989e-08 
0 0 0 -0.356167 -0.317159 0.0835292 0 922 14539 1.04381e-05 1.93687e-05 2.65669e-05 5.79223e-10 1.15241e-07 
0 0 0 -0.000377543 -0.293797 0.146294 0 788 5801 -2.33133e-12 4.18876e-06 3.15237e-06 3.06252e-10 6.09293e-08 
0 0 0 0.0913533 -0.298743 0.2256 0 786 16057 0.00123674 0.000585575 -0.000434262 3.74446e-10 7.44972e-08 
0 0 0 -0.0489969 -0.112862 0.182279 0 782 16821 -1.61467e-18 8.43728e-06 3.363e-06 4.71018e-10 9.37115e-08 
0 0 0 0.0495132 0.077996 -0.125968 0 782 10441 8.54199e-19 8.43728e-06 3.363e-06 4.71018e-10 9.37115e-08 
0 0 0 -1.8368e-08 0.0200057 -0.0516409 0 780 13923 -0.0091639 -0.000240967 0.000647257 4.77218e-10 9.49452e-08 
0 0 0 0.154203 -0.0107188 0.0276685 0 780 13645 1.58536e-18 9.53905e-06 2.53098e-06 5.00925e-10 9.96621e-08 
0 0 0 0.0282974 0.0068026 -0.0175595 0 780 8467 1.39869e-18 9.53905e-06 2.53098e-06 5.00925e-10 9.96621e-08 
0 0 0 0.000681677 -0.00016276 0.000964849 0 778 3129 -1.06061e-10 1.02158e-05 1.3292e-06 5.20789e-10 1.03614e-07 
0 0 0 -3.59071e-06 -0.000216695 0.00106752 0 778 7649 -8.6274e-10 1.03471e-05 1.4029e-06 5.18148e-10 1.03089e-07 
0 0 0 -0.00336026 -0.000401373 0.00197118 0 778 12757 7.28775e-06 1.42721e-05 3.60523e-06 6.49104e-10 1.29145e-07 
0 0 0 -7.13306e-05 -0.000317456 0.0014316 0 778 8040 2.88385e-07 1.18375e-05 -1.00156e-06 5.44937e-10 1.08419e-07 
0 0 0 -0.0400347 -0.00535174 0.0286292 0 778 15555 8.52418e-19 1.02659e-05 1.35713e-06 5.18851e-10 1.03229e-07 
0 0 0 -0.00109676 -0.000396856 0.00176168 0 778 7654 -6.45514e-06 7.30747e-06 -4.2629e-06 3.61209e-10 7.18635e-08 
0 0 0 0.0403748 0.00706983 -0.0378202 0 778 15694 -2.54122e-18 1.02659e-05 1.35713e-06 5.18851e-10 1.03229e-07 
0 0 0 0.000440196 -2.27233e-05 8.56791e-05 0 778 14580 7.85881e-09 9.27312e-06 1.04928e-06 4.82259e-10 9.59481e-08 
0 0 0 0.00159453 -1.74228e-05 9.44503e-05 0 778 4413 2.82877e-09 1.09898e-05 3.53316e-07 5.36386e-10 1.06718e-07 
0 0 0 0.000321554 -0.000534932 0.00379045 0 778 15381 -5.47475e-07 7.42819e-06 1.74982e-07 4.51856e-10 8.9899e-08 
0 0 0 -0.000582113 -0.000587083 0.00273295 0 778 15828 -1.21317e-07 1.18284e-05 1.44583e-06 5.53669e-10 1.10156e-07 
0 0 0 0.000962997 -0.00044006 0.00251637 0 778 14360 -1.94577e-07 8.64269e-06 8.00371e-07 4.67047e-10 9.29215e-08 
0 0 0 0.00108672 -0.000683311 0.0030159 0 778 3837 3.2547e-06 1.52732e-05 -3.65522e-06 6.21119e-10 1.23577e-07 
0 0 0 0.00383148 -0.000902684 0.00467773 0 778 12332 -4.51567e-09 1.06307e-05 1.4318e-06 5.25236e-10 1.04499e-07 
0 0 0 0.0155534 -0.00266247 0.0151288 0 778 4306 4.63816e-07 6.44109e-06 2.12653e-06 4.27315e-10 8.50161e-08 
0 0 0 -0.000295586 -0.00117183 0.00626858 0 778 2611 -2.34841e-12 1.01321e-05 1.33105e-06 5.14277e-10 1.02319e-07 
0 0 0 0.0525541 -0.0218468 0.11687 0 778 17336 1.11467e-17 1.02659e-05 1.35713e-06 5.18851e-10 1.03229e-07 
0 0 0 0.0107721 -0.0036671 0.0145959 0 778 12917 3.22541e-09 1.23275e-05 5.38329e-07 3.86717e-10 7.69387e-08 
0 0 0 0.0255787 -0.00655754 0.0350797 0 778 11996 2.67754e-18 1.02659e-05 1.35713e-06 5.18851e-10 1.03229e-07 
0 0 0 0.0265981 -0.00296278 0.0158493 0 778 255 -2.15081e-13 1.02661e-05 1.35717e-06 5.18852e-10 1.03229e-07 
0 0 0 0.00992095 -0.00392842 0.021028 0 778 2015 5.29424e-10 1.01955e-05 1.34388e-06 5.16966e-10 1.02854e-07 
0 0 0 0.0146775 -0.00397441 0.0212606 0 778 4848 7.37297e-12 1.03071e-05 1.36518e-06 5.2023e-10 1.03503e-07 
0 0 0 0.0114909 -0.00363323 0.0194575 0 778 6949 1.46926e-11 1.01747e-05 1.33959e-06 5.16599e-10 1.02781e-07 
0 0 0 0.0181274 -0.00420289 0.0224835 0 778 15272 2.2376e-18 1.02659e-05 1.35713e-06 5.18851e-10 1.03229e-07 
0 0 0 0.0946601 -0.00764146 0.0408782 0 778 14749 -8.31933e-18 1.02659e-05 1.35713e-06 5.18851e-10 1.03229e-07 
0 0 0 -0.0347724 -0.00444102 0.0237573 0 778 16330 -1.61967e-17 1.02659e-05 1.35713e-06 5.18851e-10 1.03229e-07 
0 0 0 0.0670095 -0.00769901 0.041186 0 778 7764 2.43766e-18 1.02659e-05 1.35713e-06 5.18851e-10 1.03229e-07 
0 0 0 0.123377 -0.0126418 0.0676252 0 778 1637 -1.1869e-11 1.02129e-05 1.34675e-06 5.16956e-10 1.02852e-07 
0 0 0 -0.0199887 -0.0104855 0.0560925 0 778 5892 4.00321e-19 1.02659e-05 1.35713e-06 5.18851e-10 1.03229e-07 
0 0 0 0.0155789 0.00123696 -0.00661713 0 778 13527 1.27616e-18 1.02659e-05 1.35713e-06 5.18851e-10 1.03229e-07 
0 0 0 0.14249 0.00290428 -0.0155366 0 778 15517 -6.76131e-13 1.02659e-05 1.35713e-06 5.18847e-10 1.03228e-07 
0 0 0 -0.0144714 0.00194549 -0.0104075 0 778 5399 1.13426e-07 1.02013e-05 2.04099e-06 5.20925e-10 1.03641e-07 
0 0 0 -0.0973315 -0.00832232 0.0445204 0 778 13175 1.57135e-17 1.02659e-05 1.35713e-06 5.18851e-10 1.03229e-07 
0 0 0 0.00286504 6.95802e-06 0.00104493 0 776 7937 -5.86128e-09 1.04568e-05 -1.86311e-07 5.24243e-10 1.04302e-07 
0 0 0 -0.00040894 2.01307e-06 0.000398657 0 776 5540 -4.45778e-11 1.05359e-05 -1.52027e-10 5.25804e-10 1.04612e-07 
0 0 0 0.000525279 -2.01337e-06 0.000822173 0 776 1200 4.58158e-11 1.05055e-05 4.815e-11 5.23922e-10 1.04238e-07 
0 0 0 -0.00129828 -1.974e-09 -0.000166652 0 776 1871 7.16319e-16 1.05196e-05 9.19466e-17 5.24824e-10 1.04417e-07 
0 0 0 0.00498519 4.30412e-08 -0.000656868 0 776 206 5.9709e-14 1.05196e-05 -7.86822e-15 5.24836e-10 1.0442e-07 
0 0 0 0.000219483 4.24905e-08 -0.000864992 0 776 1972 -1.15659e-12 1.05205e-05 -3.99074e-13 5.24867e-10 1.04426e-07 
0 0 0 -5.15093e-05 0.00013768 -0.00212221 0 776 733 -1.50094e-07 1.39309e-05 1.56402e-06 6.61325e-10 1.31577e-07 
0 0 0 0.00253975 2.60392e-05 0.0014742 0 776 10595 -1.86727e-08 1.13078e-05 -1.06116e-06 5.5629e-10 1.10678e-07 
0 0 0 0.00253251 1.61434e-05 0.00168964 0 776 894 4.4271e-08 1.00995e-05 -2.16243e-08 5.14276e-10 1.02318e-07 
0 0 0 7.16281e-05 -3.37753e-05 0.00189075 0 776 9680 -1.29251e-07 1.10933e-05 -5.72687e-07 5.36492e-10 1.06739e-07 
0 0 0 0.000346422 8.13883e-06 0.00215832 0 776 414 3.25822e-10 1.0517e-05 -1.17842e-09 5.26501e-10 1.04751e-07 
0 0 0 0.00295047 -6.9493e-10 -0.000525921 0 776 690 -5.96271e-16 1.05196e-05 1.06289e-16 5.24826e-10 1.04418e-07 
0 0 0 -0.000646148 2.79992e-06 -0.00286272 0 776 1894 1.36137e-08 1.06164e-05 3.18815e-07 5.28647e-10 1.05178e-07 
0 0 0 0.00761061 -2.68671e-06 -0.000660578 0 776 280 1.1236e-10 1.05515e-05 4.1038e-10 5.25306e-10 1.04513e-07 
0 0 0 -0.00180776 5.34559e-06 0.00031395 0 776 9977 -6.02628e-08 1.10662e-05 -1.17394e-06 5.43997e-10 1.08232e-07 
0 0 0 -0.000737852 1.24427e-05 0.000221263 0 776 1225 -5.86706e-08 1.07323e-05 -4.14675e-07 5.3456e-10 1.06354e-07 
0 0 0 0.00248949 -1.36324e-06 0.000124981 0 776 3512 -1.59527e-11 1.05418e-05 -1.12509e-11 5.2527e-10 1.04506e-07 
0 0 0 0.00324591 -1.30186e-07 0.000214725 0 776 101 6.20227e-13 1.05103e-05 1.75869e-12 5.24487e-10 1.0435e-07 
0 0 0 0.00323592 -7.66868e-06 0.000255692 0 776 317 -1.80895e-08 1.07531e-05 3.1563e-07 5.3091e-10 1.05628e-07 
0 0 0 0.00307938 4.21639e-06 0.000133015 0 776 1705 -2.27516e-07 1.12358e-05 1.14427e-06 5.49284e-10 1.09284e-07 
0 0 0 -0.000655753 -1.28307e-05 -0.000520371 0 776 2352 9.19342e-07 1.16139e-05 2.17262e-06 5.57884e-10 1.10995e-07 
0 0 0 0.000626265 8.987e-07 0.00222661 0 776 9269 1.10298e-13 1.05105e-05 5.67925e-13 5.24717e-10 1.04396e-07 
0 0 0 -0.00147621 6.14629e-05 0.00312864 0 776 6408 -6.4131e-07 9.83097e-06 -2.26667e-07 5.15119e-10 1.02486e-07 
0 0 0 0.00563427 2.01341e-09 1.85112e-05 0 776 585 3.23345e-15 1.05195e-05 8.52669e-18 5.24823e-10 1.04417e-07 
0 0 0 0.00271349 -6.56085e-06 -0.000164771 0 776 531 -2.29799e-07 1.12489e-05 1.04229e-06 5.47404e-10 1.0891e-07 
0 0 0 -0.00743848 4.45986e-07 0.000681165 0 776 8455 -6.35183e-13 1.05225e-05 9.09677e-13 5.25019e-10 1.04456e-07 
0 0 0 0.00701484 -6.11161e-05 6.72463e-05 0 776 553 2.02385e-07 1.12102e-05 -1.82138e-06 5.34461e-10 1.06335e-07 
0 0 0 0.0043264 4.28251e-07 0.000112648 0 776 2069 -4.99857e-08 1.07123e-05 2.47353e-07 5.31309e-10 1.05707e-07 
0 0 0 -0.00313932 -6.48569e-07 0.000543404 0 776 11208 3.84904e-12 1.05211e-05 -1.93868e-12 5.24736e-10 1.044e-07 
0 0 0 0.0128962 -4.42666e-12 -0.0014924 0 776 6702 -2.0503e-17 1.05196e-05 2.36747e-18 5.24825e-10 1.04417e-07 
0 0 0 0.00842806 1.31267e-05 -0.00106662 0 776 1002 -2.84114e-09 1.05184e-05 1.5487e-08 5.27629e-10 1.04975e-07 
0 0 0 0.00303084 -1.35969e-05 -0.00144918 0 776 1470 1.24321e-09 1.05209e-05 2.92403e-10 5.21928e-10 1.03841e-07 
0 0 0 0.00081208 -5.26769e-06 -0.00139979 0 776 154 1.44885e-08 1.03424e-05 4.26465e-09 5.17771e-10 1.03014e-07 
0 0 0 0.000668181 2.3442e-06 -0.00243739 0 776 1045 -1.07128e-07 1.08858e-05 3.7676e-07 5.37441e-10 1.06928e-07 
0 0 0 0.00377971 -9.60088e-06 0.0118076 0 776 10613 4.34927e-10 1.05647e-05 1.53808e-09 5.24248e-10 1.04303e-07 
0 0 0 0.0143296 9.34143e-06 0.00887211 0 776 4634 -2.08551e-10 1.04836e-05 -9.49841e-10 5.25651e-10 1.04582e-07 
0 0 0 0.00466171 4.16014e-05 -0.00581359 0 776 3087 -6.20868e-07 1.40802e-05 2.69274e-06 6.45982e-10 1.28524e-07 
0 0 0 0.00917197 -3.66912e-13 -0.00300516 0 776 72 -3.5151e-18 1.05196e-05 1.08249e-18 5.24825e-10 1.04417e-07 
0 0 0 0.010136 3.44111e-08 -0.00332879 0 776 4165 9.90939e-14 1.05188e-05 -3.25116e-14 5.24807e-10 1.04414e-07 
0 0 0 0.0068045 6.16966e-10 -0.00210369 0 776 1920 -3.98674e-16 1.05205e-05 6.06378e-17 5.24855e-10 1.04423e-07 
0 0 0 0.00342075 6.05226e-12 0.00930741 0 776 1063 -6.01676e-19 1.05196e-05 -1.19798e-18 5.24825e-10 1.04417e-07 
0 0 0 0.0172632 5.54832e-12 0.00468899 0 776 4185 -2.17514e-18 1.05196e-05 -5.98993e-19 5.24825e-10 1.04417e-07 
0 0 0 0.00875739 8.69209e-06 -0.00409163 0 776 18 -1.99295e-07 1.0813e-05 4.56083e-07 5.36413e-10 1.06723e-07 
0 0 0 0.0048188 -3.29357e-12 0.0084794 0 776 12691 -1.00551e-19 1.05196e-05 1.20854e-18 5.24825e-10 1.04417e-07 
0 0 0 0.0157175 5.08545e-12 0.00995894 0 776 9715 2.05659e-18 1.05196e-05 1.02369e-18 5.24825e-10 1.04417e-07 
0 0 0 0.0322751 2.82956e-12 0.00645423 0 776 4095 -4.7903e-18 1.05196e-05 -1.19794e-18 5.24825e-10 1.04417e-07 
0 0 0 0.023921 -6.51626e-12 0.00512202 0 776 4938 -2.39606e-18 1.05196e-05 5.99002e-19 5.24825e-10 1.04417e-07 
0 0 0 0.0130535 -2.70852e-12 -0.00271299 0 776 6544 2.39827e-18 1.05196e-05 -3.01132e-19 5.24825e-10 1.04417e-07 
0 0 0 0.00698488 0.000354476 -0.00807819 0 776 1367 1.23609e-07 1.0974e-05 5.06389e-08 6.15942e-10 1.22547e-07 
0 0 0 0.00620944 1.4679e-06 -0.00781074 0 776 1036 2.4803e-12 1.05403e-05 -3.19159e-12 5.25832e-10 1.04618e-07 
0 0 0 0.037808 5.89113e-12 0.00306366 0 776 8603 -3.27563e-19 1.05196e-05 -3.02153e-19 5.24825e-10 1.04417e-07 
0 0 0 0.00922485 -0.000237725 -0.00754165 0 776 9639 1.08387e-06 1.18317e-05 6.82822e-07 5.17175e-10 1.02895e-07 
0 0 0 0.00395218 -5.64725e-06 -0.00444713 0 776 7185 -6.78212e-07 1.25913e-05 1.31743e-06 5.90456e-10 1.17476e-07 
0 0 0 0.00325044 1.13041e-05 -0.00477925 0 776 4532 5.3509e-07 9.98879e-06 3.96813e-07 5.09488e-10 1.01366e-07 
0 0 0 0.00431933 -1.08355e-05 -0.00304579 0 776 3427 -1.35799e-06 1.06954e-05 -7.15333e-07 5.28317e-10 1.05112e-07 
0 0 0 0.00587101 0.000183922 -0.00605655 0 776 1118 1.0269e-06 1.08892e-05 1.36047e-06 5.76615e-10 1.14722e-07 
0 0 0 0.0200526 1.51263e-12 0.033054 0 776 3983 -1.16886e-18 1.05196e-05 -6.83255e-19 5.24825e-10 1.04417e-07 
0 0 0 0.00621262 2.92791e-07 -0.00532614 0 776 1366 5.30463e-13 1.05079e-05 -4.45409e-13 5.245e-10 1.04353e-07 
0 0 0 0.00259176 -5.1726e-11 0.0134445 0 776 9279 -3.779e-17 1.05196e-05 -1.96173e-16 5.24825e-10 1.04417e-07 
0 0 0 0.0199416 -5.54945e-12 0.0182933 0 776 7431 -5.29932e-19 1.05196e-05 -5.39062e-19 5.24825e-10 1.04417e-07 
0 0 0 0.00224189 -1.03604e-06 -0.00330955 0 776 4164 3.36549e-07 1.0937e-05 3.45798e-07 5.38394e-10 1.07117e-07 
0 0 0 0.0015196 1.74315e-11 0.0114453 0 776 7286 8.13866e-18 1.05196e-05 6.07746e-17 5.24825e-10 1.04417e-07 
0 0 0 0.000446712 4.05194e-08 -0.00432089 0 776 1887 5.08354e-15 1.0519e-05 -4.9375e-14 5.24814e-10 1.04415e-07 
0 0 0 0.0506701 0.00210846 -0.0112793 0 779 10802 4.44068e-18 1.02659e-05 1.35713e-06 5.18851e-10 1.03229e-07 
0 0 0 0.0596029 -0.00694565 0.0371559 0 779 15618 -7.39162e-18 1.02659e-05 1.35713e-06 5.18851e-10 1.03229e-07 
0 0 0 -0.000114266 -2.22038e-05 0.00140622 0 777 5611 -2.06751e-10 1.07151e-05 1.3485e-10 5.26516e-10 1.04754e-07 
0 0 0 -0.00240152 -9.96753e-06 0.0100259 0 777 12304 6.69227e-11 1.06703e-05 -9.55996e-11 5.27674e-10 1.04984e-07 
0 0 0 -0.00412328 1.20981e-06 0.0196367 0 777 10360 -1.7571e-12 1.05118e-05 7.33686e-12 5.24827e-10 1.04418e-07 
0 0 0 0.00701315 0.000270094 0.0298285 0 777 12116 -1.27635e-06 6.45136e-06 -2.42609e-07 4.42184e-10 8.79745e-08 
0 0 0 0.0054566 -0.000647953 0.0194851 0 777 10496 -9.73075e-06 5.88986e-06 8.72213e-07 2.04498e-10 4.06845e-08 
0 0 0 0.00911488 -6.62956e-06 0.0192441 0 777 14724 -5.72584e-10 1.05044e-05 -2.69706e-09 5.22886e-10 1.04032e-07 
0 0 0 0.0115569 -1.84335e-12 -0.0239977 0 777 9160 1.19803e-18 1.05196e-05 -1.07886e-18 5.24825e-10 1.04417e-07 
0 0 0 0.0200184 -2.24669e-05 0.000644631 0 777 5953 -4.02932e-08 1.04011e-05 -8.77323e-08 5.16006e-10 1.02663e-07 
0 0 0 -0.00197193 2.15216e-05 -0.00713456 0 777 14256 -8.98119e-09 1.10632e-05 -3.73314e-07 5.47371e-10 1.08903e-07 
0 0 0 -0.000464313 -0.00017269 -0.000996181 0 775 2116 7.57128e-07 1.10666e-05 3.27398e-07 5.3757e-10 1.06953e-07 
0 0 0 0.00318387 -0.00124602 -0.00570498 0 775 12 -1.38558e-07 5.32859e-06 -2.63756e-07 2.88933e-10 5.74834e-08 
0 0 0 0.00463594 -0.00115805 -0.00592519 0 775 4248 -3.66422e-07 1.1371e-05 -3.68757e-08 5.36079e-10 1.06657e-07 
0 0 0 -0.00141057 -0.000517683 -0.00429368 0 775 9210 -4.13803e-06 1.12407e-05 7.718e-06 5.56318e-10 1.10684e-07 
0 0 0 0.00226073 -0.000721351 -0.00393755 0 775 1890 -4.13391e-08 9.93831e-06 -1.24449e-06 5.10479e-10 1.01563e-07 
0 0 0 0.00233116 -0.00059176 -0.00295649 0 775 10907 3.54936e-06 1.15318e-05 2.08655e-06 5.30849e-10 1.05616e-07 
0 0 0 0.00750211 -0.000892266 -0.0047732 0 775 6574 3.61131e-19 1.02659e-05 -1.35713e-06 5.18851e-10 1.03229e-07 
0 0 0 0.00386844 -0.00078585 -0.00482532 0 775 1749 -1.86584e-06 4.51829e-06 -2.45384e-06 3.43106e-10 6.82618e-08 
0 0 0 0.00430154 -0.00104531 -0.0055727 0 775 3630 1.04462e-07 9.94685e-06 -1.343e-06 5.0745e-10 1.0096e-07 
0 0 0 0.000546721 -0.00035342 -0.000626537 0 775 11044 -6.82899e-06 1.28939e-05 -5.22852e-06 5.75774e-10 1.14555e-07 
0 0 0 -0.000120956 -0.000389426 -0.00157331 0 774 2641 -4.13752e-08 7.66931e-06 -6.32272e-07 4.03221e-10 8.02223e-08 
0 0 0 -0.00188471 -0.000458362 -0.00266419 0 774 210 4.68432e-07 1.07484e-05 -1.53528e-06 5.44069e-10 1.08246e-07 
0 0 0 -0.000322663 -0.000477084 -0.00221431 0 774 3865 -9.04341e-10 1.0094e-05 -1.29507e-06 4.99286e-10 9.9336e-08 
0 0 0 -0.0118175 -0.00327978 -0.0175681 0 774 4325 5.55769e-08 1.01432e-05 -1.4781e-06 5.16469e-10 1.02755e-07 
0 0 0 -0.000438075 -0.000152102 -0.000733768 0 774 1165 -2.21273e-07 9.56016e-06 -9.10567e-07 4.89338e-10 9.73566e-08 
0 0 0 2.79357e-05 -0.000122467 -0.000636375 0 774 3869 8.22948e-07 1.08789e-05 1.24293e-07 5.291e-10 1.05268e-07 
0 0 0 0.000140036 -0.000182932 -0.00110734 0 774 9441 2.01971e-06 1.15682e-05 6.05579e-07 5.5423e-10 1.10268e-07 
0 0 0 2.18223e-05 -0.000296448 -0.0012124 0 774 8682 1.26031e-07 9.65352e-06 -1.07034e-06 4.81659e-10 9.58288e-08 
0 0 0 0.000289713 -0.000477922 -0.00246869 0 774 6076 6.8408e-08 9.34977e-06 -1.11459e-06 4.83172e-10 9.61298e-08 
0 0 0 0.00135854 -0.000676496 -0.00250083 0 774 4050 1.79504e-07 9.29521e-06 -6.84098e-07 4.36746e-10 8.68925e-08 
0 0 0 -0.000738846 -0.000808302 -0.00592952 0 774 3081 -4.92208e-06 1.46047e-05 2.28733e-06 6.93935e-10 1.38066e-07 
0 0 0 0.00189722 -0.00122307 -0.0067816 0 774 1541 3.81195e-09 9.2963e-06 -1.0579e-06 4.94245e-10 9.8333e-08 
0 0 0 0.000627919 -0.00649004 -0.0347186 0 774 3877 2.12543e-20 1.02659e-05 -1.35713e-06 5.18851e-10 1.03229e-07 
0 0 0 -0.00326021 -0.00160923 -0.00703408 0 774 3998 -2.45527e-09 1.25569e-05 -1.86051e-06 5.33918e-10 1.06227e-07 
0 0 0 0.0131864 -0.00399757 -0.0213851 0 774 9650 -1.60091e-19 1.02659e-05 -1.35713e-06 5.18851e-10 1.03229e-07 
0 0 0 0.00385219 -0.00232708 -0.0124487 0 774 5900 -5.08188e-16 1.02659e-05 -1.35713e-06 5.18851e-10 1.03229e-07 
0 0 0 0.00561121 -0.00463869 -0.0248148 0 774 7843 -2.61446e-19 1.02659e-05 -1.35713e-06 5.18851e-10 1.03229e-07 
0 0 0 0.0117839 -0.00129129 -0.00690779 0 774 2966 -8.11501e-19 1.02659e-05 -1.35713e-06 5.18851e-10 1.03229e-07 
0 0 0 0.8262 6.10083 5.87404 0 944 6842 0.000583814 -0.00140821 0.00270491 4.33746e-08 8.67616e-06 
0 0 0 -0.00699328 -0.000104293 -0.00030681 0 774 10425 -1.38968e-06 1.1587e-05 2.70895e-06 5.27208e-10 1.04892e-07 
0 0 0 0.00139044 -0.000624622 -0.00337985 0 774 7315 1.45244e-06 1.13433e-05 3.25948e-06 5.27406e-10 1.04931e-07 
0 0 0 0.000701884 -0.000797719 -0.00510079 0 774 2953 -7.54495e-08 8.75293e-06 2.84234e-07 4.91442e-10 9.77752e-08 
0 0 0 -0.0128849 -0.00356969 -0.0191261 0 774 2858 3.33248e-08 1.0346e-05 -1.39215e-06 5.22888e-10 1.04032e-07 
0 0 0 0.0144986 -0.00369453 -0.019764 0 774 5016 2.63369e-18 1.02659e-05 -1.35713e-06 5.18851e-10 1.03229e-07 
0 0 0 0.00577731 -0.00799009 -0.0327859 0 774 13272 -7.04072e-06 2.10621e-05 3.34994e-06 4.58124e-10 9.11462e-08 
0 0 0 0.00713524 0.000755095 0.0040394 0 774 13605 5.01694e-19 1.02659e-05 -1.35713e-06 5.18851e-10 1.03229e-07 
0 0 0 0.0100861 -0.00106892 -0.00614553 0 774 13823 -5.28375e-08 1.08449e-05 -1.56556e-06 5.55855e-10 1.10591e-07 
0 0 0 -0.00535856 -0.00619599 -0.0331456 0 774 3484 6.1752e-19 1.02659e-05 -1.35713e-06 5.18851e-10 1.03229e-07 
0 0 0 -0.00182086 -0.00658212 -0.0352112 0 774 5875 1.64887e-20 1.02659e-05 -1.35713e-06 5.18851e-10 1.03229e-07 
0 0 0 0.00458871 -0.00611455 -0.0327099 0 774 11158 8.09945e-19 1.02659e-05 -1.35713e-06 5.18851e-10 1.03229e-07 
0 0 0 -0.013285 -0.00263147 -0.0140771 0 774 8267 2.12107e-18 1.02659e-05 -1.35713e-06 5.18851e-10 1.03229e-07 
0 0 0 0.00434107 -0.000509927 -0.00272787 0 774 2150 3.70061e-19 1.02659e-05 -1.35713e-06 5.18851e-10 1.03229e-07 
0 0 0 -0.0982605 0.00226862 0.0318028 0 774 6057 -7.05614e-07 9.12494e-06 -4.3662e-07 4.7751e-10 9.50032e-08 
0 0 0 0.0253931 -0.00755269 -0.0404033 0 774 14998 5.61035e-18 1.02659e-05 -1.35713e-06 5.18851e-10 1.03229e-07 
0 0 0 0.0117147 -0.0101688 -0.054398 0 774 7002 -3.53983e-19 1.02659e-05 -1.35713e-06 5.18851e-10 1.03229e-07 
0 0 0 0.0161972 -0.00754495 -0.0403619 0 774 13214 -1.28383e-18 1.02659e-05 -1.35713e-06 5.18851e-10 1.03229e-07 
0 0 0 -0.0522267 -0.00423894 -0.0226763 0 774 16108 -5.24007e-14 1.02658e-05 -1.35712e-06 5.1885e-10 1.03229e-07 
0 0 0 0.00291648 -0.00280344 -0.014997 0 774 3491 -2.50699e-15 1.02659e-05 -1.35714e-06 5.18851e-10 1.03229e-07 
0 0 0 -0.0160506 -0.00405029 -0.0216671 0 774 11656 1.33027e-18 1.02659e-05 -1.35713e-06 5.18851e-10 1.03229e-07 
0 0 0 0.050558 -0.0108167 -0.0578641 0 774 10569 1.32425e-18 1.02659e-05 -1.35713e-06 5.18851e-10 1.03229e-07 
0 0 0 0.0152415 -0.00386933 -0.0206991 0 774 6493 1.23416e-18 1.02659e-05 -1.35713e-06 5.18851e-10 1.03229e-07 
0 0 0 0.045732 0.000764596 0.00409022 0 774 6053 7.47124e-18 1.02659e-05 -1.35713e-06 5.18851e-10 1.03229e-07 
0 0 0 -0.0423182 -0.00458846 -0.0245461 0 774 9854 -0.000667236 1.08731e-05 1.89152e-06 5.18851e-10 1.03229e-07 
0 0 0 0.0208817 -0.00172142 -0.00920878 0 774 10974 -4.92931e-18 1.02659e-05 -1.35713e-06 5.18851e-10 1.03229e-07 
0 0 0 -0.20066 0.453381 0.302606 0 884 10306 -0.00564968 0.0028392 0.03884 1.3952e-07 2.82556e-05 
0 0 0 -0.149057 0.685856 -0.0951407 0 884 4511 0.00114168 -0.00575999 0.0117441 4.97826e-08 9.96601e-06 
0 0 0 0.00032596 -0.0170944 -0.00463759 0 884 12317 -5.45951e-06 3.13135e-05 0.000273816 4.02524e-09 8.01197e-07 
0 0 0 0.000721614 -0.0311537 0.00601011 0 884 3353 -7.45808e-05 0.000268362 2.15515e-05 1.95967e-09 3.89958e-07 
0 0 0 0.00327086 -0.0245073 -0.002657 0 884 2873 3.32235e-07 5.14216e-06 1.03058e-05 5.70645e-11 1.13527e-08 
0 0 0 0.00263808 -0.0144158 0.00340339 0 884 11395 -5.93247e-06 -0.000159584 0.000319389 5.52123e-09 1.09917e-06 
0 0 0 4.77645e-73 9.40091e-21 -5.89791e-12 0 884 5230 -4.19827e-74 5.25978e-06 -1.62002 1.22522e-06 0.0003 
0 0 0 0.0351597 -0.0129629 0.00032889 0 884 13505 -3.48429e-05 7.16905e-05 0.000159418 3.25811e-09 6.48443e-07 
0 0 0 0.00664852 -0.0197391 0.000490326 0 884 13868 -1.88588e-05 1.13391e-05 0.000208905 3.91155e-09 7.78557e-07 
0 0 0 0.0109457 0.0265219 0.0030722 0 884 15085 6.20484e-06 -5.89683e-06 1.71199e-05 1.3277e-09 2.64182e-07 
0 0 0 -1.49357e-88 -8.3842e-20 2.26857e-15 0 884 3064 1.83158e-90 5.25978e-06 -1.62002 1.22522e-06 0.0003 
0 0 0 -0.000324521 -0.00312406 0.00212388 0 884 10179 9.60305e-06 3.1867e-06 2.36672e-05 1.29979e-09 2.58627e-07 
0 0 0 -2.75834e-69 8.48626e-20 5.89789e-12 0 884 871 -4.08119e-70 5.25978e-06 -1.62002 1.22522e-06 0.0003 
0 0 0 -1.61302e-49 1.89148e-20 -1.18143e-12 0 884 1962 3.59476e-51 5.25978e-06 -1.62002 1.22522e-06 0.0003 
0 0 0 0.0176406 -0.00793618 0.00515096 0 884 5717 -1.14687e-05 -1.60103e-06 -2.31597e-05 5.13285e-10 1.02121e-07 
0 0 0 0.726939 0.183814 0.103093 0 884 14850 9.68025e-05 -0.000304875 -0.000276612 1.51796e-11 3.0199e-09 
0 0 0 0.378684 0.504833 0.0569322 0 884 8819 -8.91251e-05 -1.71843e-05 -0.000181533 7.15887e-09 1.42548e-06 
0 0 0 -0.0158315 -0.00585646 0.00716401 0 884 12293 -2.58277e-06 -1.2023e-06 -3.21973e-05 7.90657e-10 1.57312e-07 
0 0 0 -4.46918e-18 -4.55847e-17 -4.72335e-12 0 884 2565 -0.000366504 -0.00331085 -1.61968 1.22509e-06 0.000299958 
0 0 0 1.16088e-121 6.59407e-20 -5.89788e-12 0 884 2145 9.15949e-124 5.25978e-06 -1.62002 1.22522e-06 0.0003 
0 0 0 0.0670081 0.0484968 0.0151393 0 884 12797 -1.02918e-05 3.89463e-05 -8.05663e-05 1.38121e-09 2.7483e-07 
0 0 0 4.26344 0.260948 -0.552092 0 884 17463 0.015854 -0.0519002 0.299381 4.40431e-07 9.30301e-05 
0 0 0 -1.5866e-302 -4.70708e-20 5.8979e-12 0 884 7394 1.01582e-306 5.25978e-06 -1.62002 1.22522e-06 0.0003 
0 0 0 0.354306 0.248318 0.016859 0 884 17327 -1.48309e-05 -1.48277e-05 4.19437e-05 4.03844e-09 8.03826e-07 
0 0 0 0.0362892 0.0414882 0.0111092 0 884 16569 8.25724e-08 -1.66676e-06 -3.3376e-06 2.39022e-09 4.7566e-07 
0 0 0 0.00447849 0.00780065 0.000816345 0 884 1860 -2.23121e-05 -6.52763e-05 4.77933e-06 5.09143e-10 1.01297e-07 
0 0 0 1.23711e-87 4.78111e-20 2.3171e-15 0 884 3089 2.04436e-87 5.25978e-06 -1.62002 1.22522e-06 0.0003 
0 0 0 -2.85816e-302 8.48143e-20 3.53506e-12 0 884 1269 4.54846e-308 5.25978e-06 -1.62002 1.22522e-06 0.0003 
0 0 0 -0.00250766 -0.0171801 0.002042 0 884 9778 6.57656e-07 1.67905e-06 8.64808e-06 9.06523e-10 1.80367e-07 
0 0 0 -0.0137322 -0.00793344 0.000445051 0 884 10778 3.6771e-05 -9.09791e-06 0.000186904 3.63173e-09 7.22836e-07 
0 0 0 0.000509379 -0.00467062 0.00140468 0 884 1651 6.17686e-06 1.38182e-05 3.02718e-05 1.31598e-09 2.61849e-07 
0 0 0 -2.01865e-302 -5.67957e-20 -3.53501e-12 0 884 7839 7.55161e-307 5.25978e-06 -1.62002 1.22522e-06 0.0003 
0 0 0 -0.638154 0.673144 0.188563 0 884 6314 -0.000600416 -0.000569397 -0.000458963 2.07163e-08 4.13205e-06 
0 0 0 0.172734 0.0731328 -0.00792477 0 884 2425 -0.000232369 -0.00030471 0.000766403 8.30795e-09 1.65453e-06 
0 0 0 -0.00239814 -0.00659003 -0.00018401 0 884 11619 -3.73484e-05 -2.05862e-05 0.000102228 2.36219e-09 4.7008e-07 
0 0 0 0.00152629 -0.0090567 -0.000917553 0 884 9388 -2.42429e-05 5.12553e-05 6.01155e-05 1.52889e-09 3.04221e-07 
0 0 0 -0.00635869 -0.0191642 0.00198245 0 884 6883 -0.000162221 -4.81199e-06 0.000623966 8.19165e-09 1.63134e-06 
0 0 0 1.42384e-72 -7.53113e-20 -1.18141e-12 0 884 5274 -1.74189e-73 5.25978e-06 -1.62002 1.22522e-06 0.0003 
0 0 0 -0.00640344 -0.0362327 0.000796902 0 884 65 -0.000107185 0.000224215 2.19919e-07 3.09531e-10 6.15816e-08 
0 0 0 -0.00681208 -0.00344921 0.000931693 0 884 677 7.12062e-05 3.12425e-05 1.21812e-05 7.74626e-10 1.54122e-07 
0 0 0 4.42742e-16 7.86203e-17 -4.71681e-12 0 884 2130 0.0554091 0.00301634 -1.61638 1.22381e-06 0.000299551 
0 0 0 0.271768 0.368929 0.0110241 0 884 15492 -9.38701e-05 -7.05232e-05 0.00023482 5.57292e-09 1.10947e-06 
0 0 0 0.0070708 -0.0104884 -0.00234282 0 884 2011 -8.17117e-05 1.5908e-05 0.000166492 2.98758e-09 5.94581e-07 
0 0 0 0.0023122 -0.0110738 -0.00200432 0 884 14297 3.34213e-05 8.65578e-06 6.90481e-05 1.52321e-09 3.0309e-07 
0 0 0 -0.00164666 -0.0107878 0.00128246 0 884 10526 1.28579e-06 1.64209e-06 -4.1712e-06 4.03992e-11 8.0372e-09 
0 0 0 0.00917818 -0.0100319 -0.00113834 0 884 52 0.000456252 -0.000155065 0.000158517 3.04414e-09 6.05842e-07 
0 0 0 0.0279371 -0.000455949 0.00461134 0 884 12435 -1.51933e-05 -4.63031e-05 0.000276468 5.21461e-09 1.03809e-06 
0 0 0 -0.00334121 0.0104424 -0.00210914 0 884 6257 2.21912e-05 -7.50812e-06 0.000364876 5.32592e-09 1.06026e-06 
0 0 0 -3.46402e-16 -7.7924e-17 -4.71613e-12 0 884 4708 -0.0637232 -0.00345764 -1.62366 1.22663e-06 0.000300449 
0 0 0 0.0337997 0.0093948 0.0217724 0 884 16818 -9.49522e-06 6.42021e-06 -0.000120943 3.3029e-10 6.57118e-08 
0 0 0 0.0138393 0.0370443 -0.000357304 0 884 10062 -5.81565e-06 -3.59321e-06 1.36723e-05 5.51073e-10 1.0964e-07 
0 0 0 -0.0181568 -0.00224429 0.00357019 0 884 7884 2.32282e-06 -4.31643e-07 0.000173908 3.88795e-09 7.73858e-07 
0 0 0 -2.30196e-15 3.09109e-17 -2.73215e-19 0 863 2723 -1.61852 0.00940676 2.20624e-05 1.22464e-06 0.000299814 
0 0 0 -2.15293e-15 3.8371e-17 -2.57586e-19 0 863 4560 -1.62152 -0.013102 -2.92936e-05 1.2258e-06 0.000300186 
0 0 0 2.33011e-15 4.62991e-20 -2.06418e-302 0 862 444 -1.62002 5.25978e-06 2.62452e-307 1.22522e-06 0.0003 
0 0 0 -2.36833e-15 5.11535e-19 2.21232e-20 0 862 927 -1.62002 9.33398e-05 -8.54159e-07 1.22522e-06 0.0003 
0 0 0 -0.20066 0.453381 0.302606 0 854 10306 0.0204923 -0.00877825 0.00528448 6.89904e-08 1.3845e-05 
0 0 0 -0.198054 0.55268 -0.00938103 0 854 4162 0.0114285 0.000315179 -0.00193179 4.19279e-08 8.38524e-06 
0 0 0 -0.149057 0.685856 -0.0951407 0 854 4511 0.00449583 -0.0206512 0.000446809 1.81301e-08 3.61503e-06 
0 0 0 0.00205387 -0.0383944 -0.000623479 0 854 3888 1.51322e-05 7.55777e-06 -3.5508e-07 1.08212e-09 2.15311e-07 
0 0 0 0.148701 0.00367217 -0.014756 0 854 13754 0.00137799 -0.000949485 0.000671299 2.73641e-08 5.46257e-06 
0 0 0 0.007149 -0.0291425 -0.00657808 0 854 14553 -2.6303e-05 3.36906e-05 -5.45002e-05 5.67463e-11 1.12894e-08 
0 0 0 0.0111182 0.0474548 -0.0120418 0 854 9600 0.000714443 9.81478e-05 -2.86995e-05 9.91506e-09 1.97498e-06 
0 0 0 0.0342821 0.0904702 -0.123571 0 854 13909 0.000182367 -0.00187357 0.00118617 7.96484e-09 1.58613e-06 
0 0 0 -0.00912666 -0.0407042 0.0147946 0 854 12718 4.3647e-05 0.00022283 -4.55828e-05 1.34768e-10 2.68118e-08 
0 0 0 -0.469196 0.056535 -0.763577 0 854 15632 0.00674708 0.00217515 0.0170406 8.28082e-09 1.64912e-06 
0 0 0 0.00748517 0.00463996 0.0459091 0 854 3538 0.000141835 -9.57872e-06 -7.02678e-05 4.01652e-09 7.99461e-07 
0 0 0 -0.000930901 0.0246682 0.0460257 0 854 4220 0.00017205 -1.03779e-05 -8.53965e-05 3.25401e-09 6.47626e-07 
0 0 0 -0.00493642 0.0988528 -0.00976568 0 854 6592 0.000117451 -5.87049e-05 1.54835e-06 1.91042e-09 3.80156e-07 
0 0 0 0.00779156 0.0237786 0.034244 0 854 8633 2.54461e-05 1.51681e-05 1.08908e-06 2.34104e-09 4.6587e-07 
0 0 0 0.00501613 -0.00437418 0.0169106 0 854 1435 9.44886e-05 2.77249e-05 -3.82538e-05 3.0167e-09 6.00378e-07 
0 0 0 -0.0118596 0.0108528 0.0220502 0 854 7526 0.000405507 -0.000158625 -0.000126282 4.59503e-09 9.14676e-07 
0 0 0 0.00327086 -0.0245073 -0.002657 0 854 2873 9.45684e-05 0.000106912 -5.01443e-05 2.75828e-09 5.48931e-07 
0 0 0 -0.00294372 0.010833 0.0389063 0 854 11220 0.000263101 -0.000113927 -6.57731e-05 4.11419e-09 8.18911e-07 
0 0 0 0.00215678 0.0236629 0.0533467 0 854 7102 0.000373293 4.26848e-05 -0.000122243 5.9209e-09 1.17879e-06 
0 0 0 -0.00255205 -0.000819509 0.0668125 0 854 16308 0.000811822 7.77119e-05 -0.000176025 9.2354e-09 1.83944e-06 
0 0 0 0.00581568 0.00181304 -0.00556187 0 854 5370 8.69147e-05 -4.31347e-05 5.28608e-06 3.02387e-09 6.01807e-07 
0 0 0 -0.000484947 0.00451286 0.0466986 0 854 14366 2.77918e-05 1.28308e-05 -5.33542e-06 9.13707e-10 1.81797e-07 
0 0 0 0.0215656 -0.0106837 -0.0114531 0 854 13281 0.00123662 0.00011021 5.43194e-05 1.46747e-08 2.92478e-06 
0 0 0 0.0035968 -0.0075509 0.0730407 0 854 4247 1.37803e-05 5.95424e-06 3.87489e-06 1.35042e-09 2.68703e-07 
0 0 0 0.00250559 0.0115437 0.00156237 0 854 3989 0.000152978 -2.14917e-05 -2.91026e-05 3.47246e-09 6.91122e-07 
0 0 0 0.00041277 -0.000793766 0.0276051 0 854 2510 0.000127073 -5.34211e-05 -3.43956e-05 2.82119e-09 5.61456e-07 
0 0 0 -0.00135673 0.0283603 0.168125 0 854 5352 0.000135889 -3.6985e-05 -5.17142e-05 2.69699e-09 5.36729e-07 
0 0 0 -0.00689768 -0.0004206 0.0959995 0 854 2948 2.39458e-05 0.000109145 -6.05746e-05 4.09067e-11 8.13818e-09 
0 0 0 -0.0646251 0.0171164 -0.0441307 0 854 5474 0.00292884 -0.000213221 0.00144882 1.68914e-08 3.36752e-06 
0 0 0 0.00205823 0.0316676 0.0265697 0 854 4773 -5.08093e-06 -1.19854e-06 -2.23996e-06 4.22913e-10 8.41403e-08 
0 0 0 0.00256612 0.0136824 0.0373862 0 854 6681 4.14706e-06 -1.64209e-06 -1.26613e-06 8.8915e-10 1.7691e-07 
0 0 0 0.007229 0.0230062 0.0292145 0 854 8525 8.82738e-05 -4.31038e-05 9.49358e-06 3.25435e-09 6.47694e-07 
0 0 0 0.00313345 0.00151856 0.00973389 0 854 6984 6.45706e-06 1.04733e-05 -8.58422e-06 1.07528e-09 2.13949e-07 
0 0 0 0.000872999 0.00240202 0.0134506 0 854 4354 6.30337e-05 -2.89085e-05 -1.21304e-06 1.87125e-09 3.7236e-07 
0 0 0 4.77645e-73 9.40091e-21 -5.89791e-12 0 850 5230 -4.19827e-74 5.25978e-06 1.62002 1.22522e-06 0.0003 
0 0 0 -1.49357e-88 -8.3842e-20 2.26857e-15 0 850 3064 1.83158e-90 5.25978e-06 1.62002 1.22522e-06 0.0003 
0 0 0 -2.47382e-34 -1.89326e-20 -3.53499e-12 0 850 478 2.14212e-35 5.25978e-06 1.62002 1.22522e-06 0.0003 
0 0 0 -2.75834e-69 8.48626e-20 5.89789e-12 0 850 871 -4.08119e-70 5.25978e-06 1.62002 1.22522e-06 0.0003 
0 0 0 -1.61302e-49 1.89148e-20 -1.18143e-12 0 850 1962 3.59476e-51 5.25978e-06 1.62002 1.22522e-06 0.0003 