ITEM: TIMESTEP
9250000
ITEM: NUMBER OF ENTRIES
296
ITEM: BOX BOUNDS ff ff ff
-0.01 0.45
-0.15 0.15
-0.08 0.1
ITEM: ENTRIES c_pwc[1] c_pwc[2] c_pwc[3] 
0 850 41 
0 885 41 
0 855 681 
0 855 522 
0 894 131 
0 894 928 
0 854 410 
0 894 796 
0 894 953 
0 894 540 
0 894 1021 
0 894 1046 
0 894 463 
0 894 1012 
0 894 945 
0 894 989 
0 894 126 
0 894 1052 
0 855 510 
0 855 674 
0 855 639 
0 855 625 
0 854 1036 
0 854 931 
0 854 1104 
0 948 1153 
1 2698 752 
1 2717 752 
0 885 270 
0 885 969 
0 885 48 
0 885 127 
0 885 52 
0 885 908 
0 885 276 
0 885 6 
0 885 79 
0 885 351 
0 885 45 
0 885 39 
0 885 393 
0 850 270 
0 850 969 
0 850 48 
0 850 127 
0 850 52 
0 850 908 
0 850 276 
0 850 6 
0 850 79 
0 850 351 
0 850 45 
0 851 39 
0 851 393 
0 962 309 
0 895 727 
0 895 553 
1 1861 146 
1 1873 146 
1 1874 146 
1 1889 146 
1 1883 146 
1 530 146 
1 529 146 
1 1828 146 
1 1842 146 
1 1831 146 
1 1830 146 
1 1827 146 
1 1871 146 
1 1869 146 
1 1868 146 
1 1893 146 
1 1892 146 
1 1885 146 
1 527 146 
1 526 146 
1 541 146 
0 894 102 
0 894 821 
0 894 1022 
0 894 959 
0 895 159 
0 895 462 
0 895 607 
0 895 1095 
0 961 1029 
0 961 40 
0 753 1029 
0 753 40 
0 890 912 
0 886 15 
0 885 15 
0 850 15 
0 895 852 
0 891 957 
0 891 879 
0 892 273 
0 895 998 
0 888 623 
0 383 757 
0 381 236 
0 379 1079 
0 373 665 
0 397 1069 
0 395 700 
0 437 138 
0 403 1038 
0 431 1085 
0 429 180 
0 421 1148 
0 424 187 
0 417 256 
0 380 1109 
0 376 366 
0 376 559 
0 381 431 
0 381 413 
0 379 443 
0 377 479 
1 2135 443 
0 393 22 
0 373 1054 
0 374 782 
0 401 470 
0 401 295 
0 395 1106 
0 432 722 
0 432 243 
0 408 64 
0 408 202 
0 406 371 
0 405 371 
0 424 694 
0 429 504 
0 427 1083 
0 419 622 
0 412 609 
0 415 35 
0 529 982 
0 527 247 
0 378 1128 
0 376 1097 
0 545 226 
0 543 89 
0 541 134 
0 539 520 
0 392 232 
0 390 977 
0 525 454 
0 551 1072 
0 549 17 
0 396 215 
0 396 325 
0 589 838 
0 589 600 
0 585 136 
0 559 330 
0 557 477 
0 581 894 
0 428 389 
0 414 687 
0 414 447 
0 533 754 
0 538 691 
0 528 556 
0 543 424 
0 539 936 
0 539 158 
0 525 171 
0 525 569 
0 526 569 
0 589 444 
0 587 822 
0 585 365 
0 517 542 
0 590 615 
0 559 106 
0 557 46 
0 581 200 
0 581 234 
0 581 837 
0 577 656 
0 571 943 
0 569 944 
0 567 935 
0 565 59 
0 563 269 
0 534 219 
0 530 376 
0 526 725 
0 537 478 
1 2175 549 
1 2179 549 
0 546 578 
0 522 386 
0 520 169 
0 516 282 
0 519 637 
0 519 816 
0 552 587 
0 548 168 
0 584 38 
0 584 737 
0 562 608 
0 560 71 
0 556 585 
0 561 405 
0 572 47 
0 566 785 
0 566 565 
0 566 1102 
0 564 411 
0 1063 476 
0 1061 143 
0 1057 817 
0 1057 251 
0 1055 5 
0 1053 736 
0 1053 153 
0 1069 212 
0 1067 205 
0 1051 1010 
0 1051 50 
0 1049 90 
0 1047 494 
0 1045 630 
0 1044 840 
0 524 372 
0 554 91 
0 1115 307 
0 1113 853 
0 1109 858 
0 1087 921 
0 1083 770 
0 562 689 
0 1107 327 
0 1107 87 
0 1103 670 
0 1103 793 
0 1101 1048 
0 1097 643 
0 1093 83 
0 1089 367 
0 1089 117 
0 1089 771 
0 1058 445 
0 1057 461 
0 1055 617 
0 1055 147 
0 1052 939 
0 1067 129 
0 1067 646 
0 1066 649 
0 1051 78 
0 1047 66 
0 1052 162 
0 1111 848 
0 1111 613 
0 1110 120 
0 1109 277 
0 1105 124 
0 1104 315 
0 1103 428 
0 1095 80 
0 1056 62 
0 1293 281 
0 1293 379 
0 1291 500 
0 1068 10 
0 1066 86 
0 1275 166 
0 1050 36 
0 1078 408 
0 1116 109 
0 1112 27 
0 1110 19 
0 1108 163 
0 1108 487 
0 1284 363 
0 1281 23 
0 1295 11 
0 1295 304 
0 1293 599 
0 1275 24 
0 1271 265 
0 1271 422 
0 1305 682 
0 1336 82 
0 1335 197 
0 1329 672 
0 103 93 
0 1284 774 
0 1281 32 
0 1334 142 
0 119 94 
