ITEM: TIMESTEP
10650000
ITEM: NUMBER OF ENTRIES
294
ITEM: BOX BOUNDS ff ff ff
-0.01 0.45
-0.15 0.15
-0.08 0.1
ITEM: ENTRIES c_pwc[1] c_pwc[2] c_pwc[3] 
0 928 1279 
0 850 41 
0 885 41 
0 854 1200 
0 855 12 
0 855 378 
0 855 923 
0 894 1122 
0 884 451 
0 854 1236 
0 854 961 
0 894 1169 
0 894 690 
0 894 214 
0 894 1073 
0 855 1169 
0 931 213 
1 2706 752 
1 2698 752 
1 2717 752 
1 2704 752 
1 2705 752 
1 2722 752 
0 953 959 
1 1828 146 
1 1830 146 
1 1827 146 
1 1842 146 
1 1831 146 
1 1893 146 
1 1868 146 
1 1885 146 
1 1871 146 
1 1892 146 
1 1869 146 
1 1861 146 
1 1873 146 
1 1874 146 
1 1883 146 
1 1889 146 
1 529 146 
1 530 146 
1 526 146 
1 527 146 
1 541 146 
0 956 1328 
0 885 270 
0 885 969 
0 885 48 
0 885 127 
0 885 52 
0 885 908 
0 885 276 
0 885 6 
0 885 79 
0 885 351 
0 885 45 
0 885 39 
0 885 393 
0 850 270 
0 850 969 
0 850 48 
0 850 127 
0 850 52 
0 850 908 
0 850 276 
0 850 6 
0 850 79 
0 850 351 
0 850 45 
0 851 39 
0 851 393 
0 895 634 
0 895 469 
0 894 359 
0 894 919 
0 894 415 
0 894 347 
0 894 1210 
0 894 1249 
0 895 513 
0 895 113 
0 895 619 
0 931 709 
0 375 1331 
0 941 1321 
1 2275 1329 
1 2276 1329 
0 913 984 
0 961 1029 
0 961 40 
0 753 1029 
0 753 40 
0 907 298 
0 897 298 
0 886 15 
0 885 15 
0 850 15 
0 892 334 
0 895 1134 
0 895 16 
0 888 462 
0 381 1307 
0 379 1262 
0 387 944 
0 401 1095 
0 401 226 
0 399 112 
0 425 694 
0 423 1195 
0 417 622 
0 415 914 
0 415 1158 
0 381 439 
0 381 1069 
0 375 1308 
0 389 386 
0 399 843 
0 395 1165 
0 432 850 
0 435 885 
0 435 168 
0 410 413 
0 406 170 
0 409 1085 
0 405 420 
0 428 571 
0 431 1177 
0 427 521 
0 417 852 
0 415 452 
0 529 1030 
0 384 1102 
0 382 36 
0 382 1067 
0 394 1179 
0 519 34 
0 372 312 
0 370 1164 
0 551 504 
0 438 549 
0 559 33 
0 408 148 
0 404 754 
0 579 201 
0 575 880 
0 430 38 
0 569 840 
0 416 1246 
0 416 28 
0 414 1114 
0 535 307 
0 530 212 
0 545 1145 
0 543 875 
0 523 1038 
0 518 349 
0 516 528 
0 551 223 
0 551 838 
0 549 180 
0 547 1112 
0 554 1010 
0 589 932 
0 588 500 
0 557 57 
0 555 95 
0 558 687 
0 579 363 
0 575 405 
0 578 913 
0 565 387 
0 565 464 
0 564 1257 
0 538 853 
0 535 642 
0 533 444 
0 546 82 
0 544 424 
0 540 470 
0 516 1013 
0 516 205 
0 516 812 
0 519 388 
0 519 171 
0 518 388 
0 517 205 
0 526 1 
0 554 177 
0 548 132 
0 548 682 
0 562 284 
0 556 587 
0 557 219 
0 576 330 
0 581 295 
0 570 502 
0 566 1007 
0 563 158 
0 1059 242 
0 1055 509 
0 1053 950 
0 1053 611 
0 1053 155 
0 1071 1157 
0 1071 46 
0 540 659 
0 1047 816 
0 1044 335 
0 516 817 
0 1079 187 
0 1077 774 
0 1075 454 
0 1073 578 
0 1043 780 
0 584 667 
0 1109 994 
0 1109 47 
0 1081 608 
1 1794 366 
0 1103 537 
0 1099 646 
0 1097 585 
0 1095 736 
0 1095 412 
0 1093 280 
0 1091 893 
0 570 302 
0 566 292 
0 1063 804 
0 1061 441 
0 1059 248 
0 1055 1022 
0 1054 1109 
0 1051 664 
0 1049 197 
0 1045 234 
0 1044 770 
0 1044 925 
0 1079 119 
0 1078 227 
0 1078 700 
0 1077 227 
0 1077 858 
0 1074 341 
0 1074 371 
0 1113 32 
0 1083 25 
0 1082 672 
0 1107 215 
0 1105 408 
0 1102 217 
0 1095 90 
0 1093 282 
0 1089 379 
0 1289 19 
0 1062 178 
0 1072 422 
0 1071 277 
0 1068 71 
0 1273 445 
0 1050 429 
0 1050 689 
0 1048 613 
0 1048 98 
0 1052 174 
0 1195 163 
0 1116 939 
0 1116 163 
0 1112 190 
0 1333 935 
0 1106 1048 
0 1104 62 
0 1100 921 
0 1098 11 
0 1110 13 
0 1319 23 
0 1096 246 
0 1092 78 
0 1287 864 
0 1280 532 
0 1277 617 
0 1275 259 
0 1275 374 
0 1303 67 
0 1341 279 
0 1337 241 
0 1337 129 
0 1311 346 
0 1309 725 
0 1335 487 
0 76 847 
0 1272 267 
0 139 683 
