ITEM: TIMESTEP
9450000
ITEM: NUMBER OF ENTRIES
331
ITEM: BOX BOUNDS ff ff ff
-0.01 0.45
-0.15 0.15
-0.08 0.1
ITEM: ENTRIES c_pwc[1] c_pwc[2] c_pwc[3] 
0 952 1181 
0 850 41 
0 885 41 
0 855 257 
0 894 519 
0 854 762 
0 852 762 
0 852 369 
0 894 953 
0 894 934 
0 894 29 
0 894 297 
0 894 964 
0 894 945 
0 894 352 
0 894 989 
0 894 121 
0 894 874 
0 894 734 
0 852 923 
0 855 792 
0 855 1111 
0 855 830 
0 855 903 
0 855 953 
0 854 1104 
0 928 1073 
1 2698 752 
1 2717 752 
1 2705 752 
1 2704 752 
1 2722 752 
1 2706 752 
0 958 681 
0 959 843 
1 1861 146 
1 1873 146 
1 1874 146 
1 529 146 
1 1883 146 
1 1889 146 
1 530 146 
1 1828 146 
1 1842 146 
1 1827 146 
1 1830 146 
1 1831 146 
1 526 146 
1 527 146 
1 541 146 
1 1871 146 
1 1869 146 
1 1868 146 
1 1893 146 
1 1892 146 
1 1885 146 
0 885 270 
0 885 969 
0 885 48 
0 885 127 
0 885 52 
0 885 908 
0 885 276 
0 885 6 
0 885 79 
0 885 351 
0 885 45 
0 885 39 
0 885 393 
0 850 270 
0 850 969 
0 850 48 
0 850 127 
0 850 52 
0 850 908 
0 850 276 
0 850 6 
0 850 79 
0 850 351 
0 850 45 
0 851 39 
0 851 393 
0 895 14 
0 895 159 
0 894 161 
0 894 821 
0 894 8 
0 894 940 
0 894 829 
0 895 708 
0 895 486 
0 895 583 
0 895 164 
0 933 813 
0 929 656 
0 929 1180 
1 2274 1167 
1 2275 1167 
0 915 894 
0 913 1171 
0 961 1029 
0 961 40 
0 753 1029 
0 753 40 
0 903 529 
0 886 15 
0 885 15 
0 850 15 
0 895 628 
0 888 582 
0 887 623 
0 892 1062 
0 892 980 
0 895 203 
0 895 172 
0 888 213 
0 888 420 
0 371 479 
0 367 115 
0 397 705 
0 437 1137 
0 435 1030 
0 431 88 
0 409 1165 
0 409 791 
0 405 320 
0 403 387 
0 408 783 
0 421 226 
0 411 191 
0 386 880 
0 384 47 
0 376 509 
0 391 498 
0 389 358 
0 389 1038 
0 387 228 
0 368 138 
0 364 1007 
0 367 616 
0 367 994 
0 365 1007 
0 400 365 
0 398 295 
0 396 431 
0 396 256 
0 397 371 
0 436 59 
0 432 232 
0 365 106 
0 410 236 
0 410 1164 
0 410 3 
0 406 1177 
0 409 1157 
0 428 454 
0 426 1145 
0 426 686 
0 424 851 
0 420 925 
0 417 443 
0 413 1109 
0 411 1148 
0 411 64 
0 531 612 
0 382 134 
0 380 208 
0 545 435 
0 543 401 
0 392 470 
0 523 935 
0 519 57 
0 518 700 
0 372 413 
0 364 398 
0 374 187 
0 551 31 
0 547 622 
0 404 982 
0 428 1128 
0 422 559 
0 422 600 
0 563 1097 
0 412 795 
0 412 694 
0 535 143 
0 531 875 
0 529 569 
0 529 266 
0 527 1087 
0 527 1083 
0 527 754 
0 539 614 
0 521 1085 
0 519 242 
0 518 242 
0 553 687 
0 551 17 
0 549 838 
0 549 737 
0 547 209 
0 548 870 
0 585 615 
0 590 689 
0 559 812 
0 559 35 
0 557 725 
0 579 158 
0 577 936 
0 575 219 
0 573 366 
0 573 1 
0 565 977 
0 568 411 
0 538 944 
0 534 913 
0 535 319 
0 522 605 
0 522 218 
0 526 412 
0 526 587 
0 554 743 
0 554 691 
0 553 217 
0 547 376 
0 547 190 
0 562 746 
0 560 168 
0 555 38 
0 580 817 
0 576 85 
0 572 532 
0 572 444 
0 573 169 
0 573 444 
0 570 494 
0 567 549 
0 1059 864 
0 1057 374 
0 1053 429 
0 532 46 
0 526 943 
0 1067 205 
0 546 341 
0 1051 50 
0 1049 556 
0 1045 267 
0 1044 75 
0 524 556 
0 1077 5 
0 1077 100 
0 1075 25 
0 1073 478 
0 554 71 
0 1115 13 
0 1113 837 
0 590 148 
0 1087 220 
0 560 335 
0 1107 409 
0 1103 201 
0 1097 485 
0 572 637 
0 1093 1102 
0 1092 372 
0 1091 736 
0 568 1048 
0 1064 853 
0 1063 405 
0 1061 162 
0 1054 646 
0 1053 135 
0 1072 80 
0 1069 649 
0 1069 683 
0 1051 585 
0 1049 281 
0 1047 771 
0 1078 643 
0 1075 858 
0 1074 277 
0 1113 770 
0 1113 793 
0 1088 822 
0 1088 500 
0 1108 599 
0 1107 223 
0 1104 178 
0 1100 90 
0 1096 670 
0 1095 238 
0 1093 93 
0 1092 642 
0 1063 422 
0 1060 248 
0 1058 198 
0 1072 251 
0 1070 36 
0 1048 177 
0 1052 197 
0 1076 119 
0 1074 939 
0 1341 613 
0 1112 441 
0 1224 78 
0 1313 78 
0 1086 120 
0 1084 617 
0 1082 785 
0 1106 83 
0 1100 212 
0 1110 160 
0 1094 97 
0 1323 445 
0 1281 82 
0 1281 32 
0 1293 363 
0 1273 697 
0 1273 667 
0 1339 86 
0 1339 484 
0 1311 672 
0 1309 163 
0 1317 265 
0 155 246 
0 155 37 
0 93 682 
0 1268 94 
0 127 11 
0 133 174 
0 144 24 
