ITEM: TIMESTEP
10800000
ITEM: NUMBER OF ENTRIES
320
ITEM: BOX BOUNDS ff ff ff
-0.01 0.45
-0.15 0.15
-0.08 0.1
ITEM: ENTRIES c_pwc[1] c_pwc[2] c_pwc[3] 
0 850 41 
0 850 480 
0 885 41 
0 885 480 
0 855 338 
0 855 1065 
0 894 375 
0 884 1012 
0 854 974 
0 854 1146 
0 854 971 
0 854 1032 
0 854 621 
0 853 972 
0 852 1043 
0 852 961 
0 852 554 
0 852 493 
0 852 1195 
0 894 767 
0 894 713 
0 894 765 
0 894 787 
0 894 904 
0 894 1290 
0 894 1156 
0 894 1238 
0 894 769 
0 894 1063 
0 855 1142 
0 855 519 
0 855 1188 
0 855 887 
0 855 650 
0 855 707 
0 854 140 
1 2698 752 
1 2717 752 
1 1889 146 
1 529 146 
1 530 146 
1 1842 146 
1 1828 146 
1 1827 146 
1 1831 146 
1 1830 146 
1 1861 146 
1 1874 146 
1 1883 146 
1 1873 146 
1 526 146 
1 541 146 
1 527 146 
1 1868 146 
1 1871 146 
1 1869 146 
1 1892 146 
1 1893 146 
1 1885 146 
0 960 89 
0 959 1159 
0 885 270 
0 885 969 
0 885 48 
0 885 127 
0 885 52 
0 885 908 
0 885 276 
0 885 1176 
0 885 6 
0 885 79 
0 885 351 
0 885 45 
0 885 39 
0 885 393 
0 850 270 
0 850 969 
0 850 48 
0 850 127 
0 850 52 
0 850 908 
0 850 276 
0 850 6 
0 850 79 
0 850 351 
0 850 45 
0 851 39 
0 851 393 
0 895 730 
0 853 820 
0 853 776 
0 884 156 
0 884 21 
0 894 29 
0 894 1093 
0 894 919 
0 894 415 
0 894 544 
0 894 136 
0 852 1198 
0 895 802 
0 895 1041 
0 895 1168 
0 895 648 
0 913 404 
0 961 1029 
0 961 40 
0 955 1078 
0 955 1200 
0 753 1029 
0 753 40 
0 886 15 
0 885 15 
0 850 15 
0 893 512 
0 888 715 
0 891 1015 
0 893 991 
0 893 16 
0 892 334 
0 393 1333 
0 391 914 
0 388 694 
0 369 64 
0 399 943 
0 399 746 
0 409 1315 
0 409 1285 
0 415 834 
0 386 81 
0 378 565 
0 378 1321 
0 385 630 
0 377 616 
0 391 1179 
0 391 226 
0 386 117 
0 370 558 
0 374 386 
0 400 1151 
0 395 600 
0 433 1182 
0 410 1095 
0 408 388 
0 426 791 
0 424 1170 
0 415 850 
0 537 615 
0 529 1037 
0 386 36 
0 380 34 
0 380 236 
0 380 1336 
0 539 867 
0 392 135 
0 388 1264 
0 388 880 
0 388 307 
0 370 884 
0 370 494 
0 553 38 
0 551 670 
0 402 852 
0 400 1030 
0 587 656 
0 585 1171 
0 559 148 
0 557 521 
0 408 28 
0 404 452 
0 571 220 
0 567 1013 
0 563 1277 
0 416 103 
0 416 691 
0 412 124 
0 412 33 
0 412 610 
1 1322 610 
0 535 367 
0 531 180 
0 529 1128 
0 536 1164 
0 534 1325 
0 532 17 
0 539 642 
0 544 284 
0 540 509 
0 523 549 
0 519 95 
0 551 1145 
0 589 812 
0 587 1038 
0 587 3 
0 560 810 
0 581 363 
0 579 22 
0 577 405 
0 571 266 
0 582 1102 
1 2155 1102 
1 2156 1102 
0 567 702 
0 567 316 
0 565 743 
0 565 158 
0 563 1296 
0 571 504 
0 536 295 
0 528 82 
0 527 556 
0 541 115 
0 525 202 
0 526 57 
0 554 537 
0 552 950 
0 550 32 
0 590 659 
0 590 47 
0 590 132 
0 584 599 
0 585 1 
0 555 733 
0 582 1216 
0 580 1087 
0 576 1209 
0 583 875 
0 584 875 
0 570 171 
0 563 1010 
0 1071 837 
0 1067 1157 
0 1067 608 
0 1065 174 
0 542 667 
0 540 605 
1 1791 837 
0 1047 649 
0 524 335 
0 1077 134 
0 1077 994 
0 1075 155 
0 548 585 
0 1115 282 
0 586 444 
0 1109 795 
0 1088 94 
0 1083 1022 
0 1081 389 
0 1081 611 
0 1107 160 
0 1107 771 
0 1105 219 
0 1097 682 
0 1097 412 
0 1093 470 
0 1093 242 
0 1091 506 
0 1089 528 
0 570 502 
0 1097 785 
0 1054 71 
0 1053 817 
0 1052 248 
0 1072 428 
0 1069 330 
0 1068 925 
0 1051 50 
0 1046 725 
0 1078 187 
0 1074 485 
0 1115 408 
0 1114 85 
0 1043 197 
0 1087 664 
0 1087 454 
0 1082 484 
0 1081 99 
0 1108 269 
0 1106 936 
0 1101 848 
0 1099 858 
0 1098 643 
0 1092 1054 
0 1283 91 
0 1058 374 
0 1054 246 
0 1054 379 
0 1070 11 
0 1068 864 
0 1048 736 
0 1301 78 
0 1117 518 
0 1116 19 
0 1112 1048 
0 1112 346 
0 1082 67 
0 1082 227 
0 1082 198 
0 1331 280 
0 1106 520 
0 1104 251 
0 1104 241 
0 1102 259 
0 1094 445 
0 1092 281 
0 1289 120 
0 1285 279 
0 1291 478 
0 1269 24 
0 1332 441 
0 1325 62 
0 1319 129 
0 1317 98 
0 111 617 
0 1328 238 
1 1599 487 
0 103 153 
0 1484 847 
0 145 267 
