ITEM: TIMESTEP
10400000
ITEM: NUMBER OF ENTRIES
323
ITEM: BOX BOUNDS ff ff ff
-0.01 0.45
-0.15 0.15
-0.08 0.1
ITEM: ENTRIES c_pwc[1] c_pwc[2] c_pwc[3] 
0 850 41 
0 885 41 
0 855 548 
0 855 1186 
0 854 125 
0 852 1290 
0 894 519 
0 894 693 
0 894 1172 
0 894 375 
0 894 1023 
0 894 1090 
0 894 114 
0 894 1189 
0 852 1228 
0 855 338 
0 855 531 
0 855 923 
0 855 278 
0 855 674 
0 854 713 
0 936 1076 
0 935 1293 
0 939 1303 
0 948 989 
0 948 1299 
1 2703 752 
1 2723 752 
1 2724 752 
1 2698 752 
1 2717 752 
1 2685 752 
1 2725 752 
1 2686 752 
0 885 270 
0 885 969 
0 885 48 
0 885 127 
0 885 52 
0 885 908 
0 885 276 
0 885 6 
0 885 79 
0 885 351 
0 885 45 
0 885 39 
0 885 393 
0 850 270 
0 850 969 
0 850 48 
0 850 127 
0 850 52 
0 850 908 
0 850 276 
0 850 6 
0 850 79 
0 850 351 
0 850 45 
0 851 39 
0 851 393 
0 895 103 
0 895 235 
1 1873 146 
1 1883 146 
1 1889 146 
1 1842 146 
1 1828 146 
1 1831 146 
1 1830 146 
1 1827 146 
1 1871 146 
1 1869 146 
1 1868 146 
1 1893 146 
1 1892 146 
1 1885 146 
1 530 146 
1 529 146 
1 1861 146 
1 1874 146 
1 526 146 
1 527 146 
1 541 146 
0 894 442 
0 894 955 
0 894 1052 
0 894 352 
0 894 551 
0 894 1210 
0 894 825 
0 852 543 
0 895 273 
0 895 647 
0 895 49 
0 895 512 
0 895 751 
0 853 455 
0 935 298 
0 929 1137 
0 945 616 
0 949 1117 
0 961 1029 
0 961 40 
0 753 1029 
0 753 40 
0 890 876 
0 886 15 
0 885 15 
0 850 15 
0 963 702 
0 888 699 
0 888 382 
0 886 790 
0 885 1181 
0 891 978 
0 887 865 
0 893 122 
0 892 949 
0 892 1124 
0 892 472 
0 892 1107 
0 895 1134 
0 888 701 
0 888 185 
0 888 74 
0 888 172 
0 387 435 
0 373 1195 
0 369 1097 
0 369 1165 
0 435 209 
0 433 117 
0 409 1069 
0 407 34 
0 427 1170 
0 421 937 
0 421 328 
0 386 439 
0 378 547 
0 385 168 
0 388 1217 
0 393 600 
0 370 558 
0 400 1262 
0 401 444 
0 399 581 
0 399 1262 
0 436 313 
0 434 420 
0 410 365 
0 407 687 
0 407 196 
0 426 411 
0 424 541 
0 427 743 
0 427 914 
0 419 542 
0 418 1177 
0 416 387 
0 412 386 
0 412 388 
0 419 226 
1 1714 612 
0 535 1216 
0 533 22 
0 545 875 
0 541 171 
0 388 615 
0 519 134 
0 372 500 
0 553 412 
0 551 170 
0 402 454 
0 400 220 
0 398 28 
0 396 452 
0 587 221 
0 438 236 
0 432 1264 
0 559 694 
0 555 1246 
0 408 901 
0 404 307 
0 424 256 
0 420 36 
0 563 1164 
0 418 409 
0 414 312 
0 412 885 
0 412 656 
0 537 201 
0 527 367 
0 543 884 
0 541 521 
0 539 1194 
0 525 1112 
0 523 812 
0 521 38 
0 519 33 
0 518 398 
0 553 132 
0 551 549 
0 554 330 
0 587 609 
0 587 1151 
0 585 840 
0 584 424 
0 561 320 
0 555 1157 
0 558 1190 
0 556 205 
0 577 851 
0 575 837 
0 575 255 
0 571 180 
0 569 17 
0 567 1085 
0 567 686 
0 565 913 
0 566 88 
0 532 943 
0 546 1013 
0 546 614 
0 544 389 
0 542 464 
0 542 335 
0 524 158 
0 524 3 
0 522 994 
0 519 31 
0 550 266 
0 548 780 
0 588 659 
0 584 35 
0 562 358 
0 562 1087 
0 562 1 
0 562 97 
0 560 363 
0 558 733 
0 556 66 
0 576 578 
0 570 893 
0 565 1010 
0 571 509 
0 1059 754 
0 1053 611 
0 1071 853 
0 1069 234 
0 1069 428 
0 1065 664 
0 540 936 
0 1051 556 
0 1079 371 
0 1077 302 
0 554 366 
0 550 1022 
0 548 155 
0 1115 269 
0 1111 537 
0 1043 608 
0 1083 1007 
0 560 197 
0 1105 822 
0 1105 637 
0 576 280 
0 564 649 
0 1071 372 
0 1048 349 
0 1045 215 
0 1079 292 
0 1079 530 
0 1078 94 
0 1077 1048 
0 1076 80 
0 1076 441 
0 1115 25 
0 1113 227 
0 1109 119 
0 1084 46 
0 1103 251 
0 1093 925 
0 1089 379 
0 1293 100 
0 1070 147 
0 1070 78 
0 1068 478 
0 1068 643 
0 1066 864 
0 1048 672 
0 1042 422 
0 1077 238 
0 1228 13 
0 1309 13 
0 1084 13 
0 1082 646 
0 1082 281 
0 1327 129 
0 1106 532 
0 1102 421 
0 1096 418 
0 1289 93 
0 1297 37 
0 1305 484 
0 1303 198 
0 1339 476 
0 1337 246 
0 1312 5 
0 1311 939 
0 1311 520 
0 1309 259 
0 1331 921 
0 1331 27 
0 1323 178 
0 1319 376 
0 92 461 
0 149 174 
0 1338 162 
0 1332 935 
0 102 518 
0 102 153 
0 98 24 
0 90 279 
