ITEM: TIMESTEP
9700000
ITEM: NUMBER OF ENTRIES
302
ITEM: BOX BOUNDS ff ff ff
-0.01 0.45
-0.15 0.15
-0.08 0.1
ITEM: ENTRIES c_pwc[1] c_pwc[2] c_pwc[3] 
0 944 303 
0 850 41 
0 885 41 
0 855 1060 
0 855 438 
0 855 625 
0 894 874 
0 854 678 
0 854 713 
0 894 903 
0 894 314 
0 894 104 
0 894 989 
0 894 995 
0 894 337 
0 894 1080 
0 855 65 
0 855 931 
0 855 669 
0 855 493 
0 855 548 
0 855 1104 
0 854 1115 
0 937 1200 
0 944 1106 
1 1861 146 
1 1874 146 
1 1873 146 
1 1883 146 
1 529 146 
1 530 146 
1 1826 146 
1 1831 146 
1 1842 146 
1 1828 146 
1 1827 146 
1 1830 146 
1 526 146 
1 527 146 
1 541 146 
1 1871 146 
1 1885 146 
1 1869 146 
1 523 146 
1 1868 146 
1 1892 146 
1 1893 146 
1 2698 752 
1 2717 752 
1 2685 752 
0 954 842 
0 885 270 
0 885 969 
0 885 48 
0 885 127 
0 885 52 
0 885 908 
0 885 276 
0 885 6 
0 885 79 
0 885 351 
0 885 45 
0 885 39 
0 885 393 
0 850 270 
0 850 969 
0 850 48 
0 850 127 
0 850 52 
0 850 908 
0 850 276 
0 850 6 
0 850 79 
0 850 351 
0 850 45 
0 851 39 
0 851 393 
0 895 193 
0 895 758 
0 895 920 
0 853 1175 
0 894 434 
0 894 778 
0 894 517 
0 894 1020 
0 894 940 
0 894 482 
0 894 384 
0 894 1139 
0 852 1158 
0 895 583 
0 895 772 
0 895 850 
0 895 829 
0 940 156 
0 949 1213 
0 961 1029 
0 961 40 
0 753 1029 
0 753 40 
0 911 208 
0 905 1210 
0 886 15 
0 885 15 
0 850 15 
0 892 818 
0 895 63 
0 892 502 
0 888 1152 
0 888 333 
0 853 1138 
0 381 1194 
0 379 757 
0 377 298 
0 389 1204 
0 389 592 
0 371 783 
0 401 994 
0 397 1124 
0 435 330 
0 409 1145 
0 403 221 
0 431 656 
0 417 691 
0 415 3 
0 411 1164 
0 386 389 
0 386 1083 
0 380 1030 
0 376 358 
0 381 365 
0 392 630 
0 388 228 
0 387 269 
0 370 136 
0 368 571 
0 369 914 
0 369 64 
0 366 31 
0 374 1182 
0 401 431 
0 434 867 
0 434 1190 
0 435 191 
0 406 1171 
0 428 106 
0 428 504 
0 424 371 
0 414 255 
0 411 1109 
0 411 700 
0 533 1013 
0 531 35 
0 529 444 
0 378 556 
0 376 932 
0 545 134 
0 543 327 
0 543 689 
0 390 313 
0 388 870 
0 519 295 
0 370 509 
0 364 443 
1 2546 509 
1 2547 509 
0 551 521 
0 398 743 
0 587 1179 
0 436 236 
0 432 464 
0 561 411 
0 557 366 
0 557 202 
0 410 498 
0 408 138 
0 406 609 
0 583 1097 
0 426 387 
0 424 398 
0 414 256 
0 537 880 
0 529 132 
0 529 780 
0 529 17 
0 538 520 
0 543 454 
0 541 266 
0 542 795 
0 521 754 
0 521 722 
0 521 875 
0 553 217 
0 551 804 
0 551 148 
0 549 977 
0 589 1128 
0 587 71 
0 587 587 
0 561 944 
0 557 1079 
0 573 376 
0 571 622 
0 565 201 
0 565 312 
0 563 38 
0 571 733 
0 534 943 
0 532 816 
0 530 5 
0 537 725 
0 546 605 
0 546 565 
0 544 585 
0 540 374 
0 545 1010 
0 524 117 
0 524 1 
0 524 549 
0 522 478 
0 516 424 
0 554 737 
0 590 101 
0 582 817 
0 570 935 
0 570 913 
0 564 280 
0 567 936 
0 1061 46 
0 1057 405 
0 1055 36 
0 1053 643 
0 1053 190 
0 1067 921 
0 1065 528 
0 1065 219 
0 546 97 
0 526 89 
0 1079 205 
0 1077 282 
0 1115 840 
0 1113 220 
0 1085 950 
0 1085 124 
0 1103 608 
0 1101 200 
0 1099 837 
0 1099 367 
0 1097 637 
0 582 81 
0 1089 736 
0 1089 223 
0 1055 649 
0 1054 238 
0 1053 90 
0 1071 281 
0 1046 13 
0 1045 530 
0 1115 162 
0 1111 774 
0 1087 307 
0 1107 242 
0 1106 215 
0 1105 99 
0 1103 75 
0 1103 23 
0 1102 177 
0 1101 277 
0 1101 494 
0 1100 178 
0 1091 853 
0 1090 372 
0 1064 119 
0 1064 248 
0 1060 487 
0 1054 672 
0 1070 32 
0 1051 212 
0 1045 91 
0 1044 91 
0 1042 697 
0 1076 25 
0 1074 667 
0 1074 363 
0 1116 646 
0 1114 476 
0 1111 153 
0 1110 1102 
0 1110 428 
0 1088 596 
0 1082 847 
0 1100 421 
0 1098 241 
0 1090 939 
0 1279 484 
0 1335 315 
0 1311 78 
0 1327 82 
0 1315 160 
0 1342 518 
0 1327 120 
0 123 174 
