ITEM: TIMESTEP
10000000
ITEM: NUMBER OF ENTRIES
311
ITEM: BOX BOUNDS ff ff ff
-0.01 0.45
-0.15 0.15
-0.08 0.1
ITEM: ENTRIES c_pwc[1] c_pwc[2] c_pwc[3] 
0 958 743 
0 850 41 
0 885 41 
0 855 455 
0 855 931 
0 855 65 
0 855 669 
0 855 576 
0 894 1008 
0 853 1218 
0 894 1104 
0 894 314 
0 894 1122 
0 894 1082 
0 855 417 
0 855 192 
0 855 321 
0 855 627 
0 855 519 
0 932 481 
0 933 179 
0 942 1246 
0 940 431 
1 1861 146 
1 1874 146 
1 1873 146 
1 529 146 
1 1883 146 
1 530 146 
1 1889 146 
1 1842 146 
1 1828 146 
1 1831 146 
1 1830 146 
1 1827 146 
1 526 146 
1 541 146 
1 527 146 
1 1871 146 
1 1869 146 
1 1868 146 
1 1892 146 
1 1893 146 
1 1885 146 
0 885 270 
0 885 969 
0 885 48 
0 885 127 
0 885 52 
0 885 908 
0 885 276 
0 885 6 
0 885 79 
0 885 351 
0 885 45 
0 885 39 
0 885 393 
0 850 270 
0 850 969 
0 850 48 
0 850 127 
0 850 52 
0 850 908 
0 850 276 
0 850 6 
0 850 79 
0 850 351 
0 850 45 
0 851 39 
0 851 393 
1 2706 752 
1 2705 752 
1 2704 752 
1 2722 752 
1 2698 752 
1 2698 541 
1 2717 752 
1 2717 541 
0 895 1020 
0 895 496 
0 895 772 
0 895 108 
0 894 896 
0 894 778 
0 894 958 
0 894 799 
0 894 1059 
0 894 1108 
0 895 440 
0 895 748 
0 945 567 
0 943 868 
0 949 851 
0 919 295 
0 961 1029 
0 961 40 
0 753 1029 
0 753 40 
0 907 1117 
0 901 113 
0 886 15 
0 885 15 
0 850 15 
0 898 386 
0 893 980 
0 891 758 
0 892 210 
0 895 95 
0 888 604 
0 385 885 
0 381 313 
0 377 791 
0 393 1251 
0 387 504 
0 373 686 
0 372 477 
0 399 1006 
0 397 138 
0 425 1137 
0 423 33 
0 415 1195 
0 382 209 
0 379 170 
0 392 1165 
0 372 298 
0 367 1128 
0 402 746 
0 436 1241 
0 434 316 
0 432 1083 
0 435 547 
0 433 412 
0 404 756 
0 409 615 
0 407 435 
0 428 3 
0 424 64 
0 425 221 
0 425 498 
0 412 327 
0 415 571 
0 411 1238 
0 537 38 
0 535 816 
0 529 700 
0 386 559 
0 382 101 
0 382 1194 
0 376 358 
0 543 689 
0 541 143 
0 394 269 
0 394 630 
0 525 1209 
0 589 312 
0 589 1151 
0 583 443 
0 408 733 
0 406 659 
0 577 444 
0 577 1097 
0 430 320 
0 426 22 
0 422 783 
0 412 389 
0 420 913 
0 537 549 
0 535 565 
0 533 330 
0 533 537 
0 531 542 
0 529 17 
0 527 424 
0 545 341 
0 543 587 
0 543 932 
0 539 191 
0 546 158 
0 544 387 
0 542 670 
0 525 611 
0 519 447 
0 516 893 
0 526 585 
0 549 328 
0 561 220 
0 557 134 
0 557 812 
0 562 804 
0 556 87 
0 556 388 
0 575 521 
0 567 152 
0 570 1007 
0 536 217 
0 536 35 
0 534 81 
0 530 132 
0 528 379 
0 546 223 
0 542 266 
0 540 500 
0 539 82 
0 524 135 
0 522 234 
0 523 28 
0 521 1079 
1 1767 234 
0 554 171 
0 548 454 
0 548 1190 
0 549 99 
0 591 578 
0 586 556 
0 585 280 
0 562 284 
0 560 977 
0 556 936 
0 555 884 
0 582 376 
0 580 982 
0 580 219 
0 574 737 
0 572 168 
0 572 642 
0 572 405 
0 571 208 
0 1061 93 
0 1057 528 
0 1053 227 
0 1053 1048 
0 532 599 
0 1071 190 
0 1069 667 
0 1051 596 
0 1051 187 
0 1045 422 
0 1075 1087 
0 1075 793 
0 1073 780 
0 1113 770 
0 588 97 
0 1085 155 
0 1083 242 
0 1105 200 
0 1103 98 
0 1103 277 
0 1101 367 
0 576 837 
0 1093 925 
0 1091 614 
0 1089 817 
0 564 88 
0 1063 62 
0 1061 147 
0 1059 774 
0 1059 129 
0 1059 429 
0 1059 197 
0 1068 643 
0 1067 11 
0 1065 682 
0 1050 532 
0 1049 608 
0 1047 950 
0 1042 248 
0 1042 349 
0 1078 119 
0 1114 853 
0 1114 13 
0 1084 935 
0 1083 935 
0 1081 47 
0 1106 649 
0 1104 771 
0 1103 530 
0 1098 785 
0 1098 292 
0 1093 848 
0 1089 282 
0 1061 646 
0 1056 506 
0 1054 90 
0 1072 46 
0 1051 215 
0 1050 169 
0 1076 478 
0 1074 212 
0 1339 697 
0 1116 5 
0 1114 372 
0 1098 445 
0 1098 238 
0 1098 91 
0 1092 178 
0 1287 241 
0 1298 153 
0 1273 83 
0 1303 94 
0 1301 27 
0 1299 19 
0 1341 418 
0 1340 120 
0 1269 86 
0 1269 484 
0 1311 461 
0 1335 267 
0 1278 162 
0 95 518 
0 119 24 
0 129 613 
