ITEM: TIMESTEP
10700000
ITEM: NUMBER OF ENTRIES
330
ITEM: BOX BOUNDS ff ff ff
-0.01 0.45
-0.15 0.15
-0.08 0.1
ITEM: ENTRIES c_pwc[1] c_pwc[2] c_pwc[3] 
0 920 524 
0 850 41 
0 885 41 
0 894 1023 
0 894 92 
0 852 920 
0 852 337 
0 852 552 
0 894 881 
0 894 693 
0 894 1239 
0 894 214 
0 894 767 
0 894 765 
0 894 769 
0 894 946 
0 894 1231 
0 894 1189 
0 894 1093 
0 852 626 
0 855 881 
0 855 1065 
0 855 693 
0 855 650 
0 854 327 
0 854 140 
0 854 339 
1 2706 752 
1 2684 752 
1 2698 752 
1 2717 752 
1 2705 752 
1 2704 752 
1 2722 752 
0 941 928 
0 950 833 
1 529 146 
1 530 146 
1 1842 146 
1 1828 146 
1 1831 146 
1 1827 146 
1 1830 146 
1 1861 146 
1 1874 146 
1 1883 146 
1 1873 146 
1 1889 146 
1 526 146 
1 541 146 
1 527 146 
1 1871 146 
1 1869 146 
1 1868 146 
1 1892 146 
1 1893 146 
1 1885 146 
0 918 973 
0 958 900 
0 959 900 
0 885 270 
0 885 969 
0 885 48 
0 885 127 
0 885 52 
0 885 908 
0 885 276 
0 885 6 
0 885 79 
0 885 351 
0 885 45 
0 885 39 
0 885 393 
0 850 270 
0 850 969 
0 850 48 
0 850 127 
0 850 52 
0 850 908 
0 850 276 
0 850 6 
0 850 79 
0 850 351 
0 850 45 
0 851 39 
0 851 393 
0 895 1234 
0 895 819 
0 853 706 
0 853 739 
0 884 1329 
0 894 434 
0 894 919 
0 894 1041 
0 894 1284 
0 894 402 
0 852 1141 
0 895 862 
0 895 704 
0 853 111 
0 853 1221 
0 929 609 
0 929 984 
0 929 1308 
0 961 1029 
0 961 40 
0 957 1333 
0 753 1029 
0 753 40 
0 902 1285 
0 901 168 
0 886 15 
0 885 15 
0 850 15 
0 888 701 
0 853 701 
0 887 727 
0 887 1121 
0 892 465 
0 888 1240 
0 888 1287 
0 393 600 
0 401 64 
0 397 1318 
0 397 365 
0 433 439 
0 431 89 
0 407 565 
0 403 1159 
0 427 630 
0 425 709 
0 413 425 
0 411 1069 
0 381 36 
0 390 616 
0 393 850 
0 391 1171 
0 387 943 
0 364 124 
0 371 81 
0 396 982 
0 396 791 
0 397 1151 
1 1721 101 
0 436 901 
0 437 1182 
0 435 452 
0 430 581 
0 430 1264 
0 429 103 
0 429 1264 
0 421 885 
0 432 1165 
0 412 1085 
0 386 1296 
0 382 489 
1 2546 1246 
0 394 1170 
0 388 34 
0 549 200 
0 398 88 
0 398 549 
0 589 443 
0 439 28 
0 436 413 
0 432 1241 
0 557 867 
0 555 312 
0 583 33 
0 583 1079 
0 577 622 
0 577 697 
0 573 170 
0 571 1179 
0 430 1067 
0 424 135 
0 567 612 
0 537 1037 
0 535 316 
0 533 691 
0 531 838 
0 528 387 
0 540 22 
0 525 702 
0 525 266 
0 521 932 
0 519 876 
0 553 913 
0 549 737 
0 549 3 
0 587 852 
0 585 295 
0 586 405 
0 584 587 
0 583 587 
0 559 494 
0 579 569 
0 579 1145 
0 577 1038 
0 577 75 
0 575 307 
0 573 686 
0 573 851 
0 573 875 
0 580 134 
0 567 87 
0 565 733 
0 563 1035 
0 563 180 
0 564 810 
0 538 642 
0 538 208 
0 536 115 
0 534 17 
0 534 205 
0 534 424 
0 527 1007 
0 544 66 
0 542 444 
0 542 556 
0 541 1209 
0 541 202 
0 524 502 
0 522 464 
0 516 132 
0 526 504 
0 526 1128 
0 526 605 
0 552 1190 
0 552 330 
0 551 509 
1 1770 509 
0 586 687 
0 587 793 
0 558 31 
0 556 389 
0 555 485 
0 578 82 
0 574 500 
0 579 284 
0 577 1277 
0 584 349 
0 568 804 
0 564 528 
0 564 659 
0 567 223 
0 1063 32 
0 536 780 
0 1071 667 
0 1049 169 
0 1045 585 
0 522 177 
0 1079 837 
0 1077 817 
0 1073 816 
0 550 893 
1 1794 242 
0 1115 219 
0 1115 234 
0 1113 160 
0 591 106 
0 1109 292 
0 1087 1157 
0 1081 936 
0 1081 99 
0 556 335 
0 1103 599 
0 1099 341 
0 1097 774 
0 576 614 
0 566 412 
0 1062 78 
0 1058 408 
0 1054 215 
0 1053 197 
0 1068 785 
0 1066 771 
0 1050 90 
0 1079 366 
0 1116 178 
0 1110 372 
0 1087 925 
0 1083 578 
0 1083 1072 
0 1083 166 
0 1082 461 
0 1081 664 
0 1106 281 
0 1103 672 
0 1093 46 
0 1091 848 
0 1090 858 
0 1289 98 
0 1064 238 
0 1070 376 
0 1066 1048 
0 1271 13 
0 1050 241 
0 1042 62 
0 1305 346 
0 1076 689 
0 1076 91 
0 1075 689 
0 1114 374 
0 1114 596 
0 1113 86 
0 1112 921 
0 1110 864 
0 1335 315 
0 1088 478 
0 1086 246 
0 1333 97 
0 1108 67 
0 1104 518 
0 1104 700 
0 1094 23 
0 1273 259 
0 1301 487 
0 1299 421 
0 1331 129 
0 1330 147 
0 1327 725 
0 1326 935 
0 1325 520 
0 1319 120 
0 1286 617 
0 1278 532 
0 1314 27 
0 133 267 
0 124 153 
