ITEM: TIMESTEP
10250000
ITEM: NUMBER OF ENTRIES
326
ITEM: BOX BOUNDS ff ff ff
-0.01 0.45
-0.15 0.15
-0.08 0.1
ITEM: ENTRIES c_pwc[1] c_pwc[2] c_pwc[3] 
0 850 41 
0 885 41 
0 854 996 
0 855 493 
0 884 873 
0 884 916 
0 854 140 
0 854 745 
0 854 814 
0 854 891 
0 853 430 
0 852 1101 
0 852 167 
0 894 923 
0 894 314 
0 894 928 
0 894 1073 
0 894 92 
0 894 946 
0 894 416 
0 894 1082 
0 894 102 
0 855 1071 
0 855 570 
0 855 988 
0 855 1223 
0 855 397 
0 855 881 
0 855 306 
0 928 1067 
0 931 723 
1 1692 228 
1 529 146 
1 530 146 
1 1842 146 
1 1830 146 
1 1831 146 
1 1828 146 
1 1827 146 
1 526 146 
1 541 146 
1 527 146 
1 1874 146 
1 1873 146 
1 1861 146 
1 1889 146 
1 1883 146 
1 1885 146 
1 1869 146 
1 1892 146 
1 1893 146 
1 1871 146 
1 1868 146 
1 2698 752 
1 2717 752 
1 2703 752 
1 2724 752 
1 2723 752 
1 2725 752 
0 885 270 
0 885 969 
0 885 48 
0 885 127 
0 885 52 
0 885 908 
0 885 276 
0 885 6 
0 885 79 
0 885 351 
0 885 45 
0 885 39 
0 885 393 
0 850 270 
0 850 969 
0 850 48 
0 850 127 
0 850 52 
0 850 908 
0 850 276 
0 850 6 
0 850 79 
0 850 351 
0 850 45 
0 851 39 
0 851 393 
0 895 151 
0 895 1003 
0 853 586 
0 884 1261 
0 894 1242 
0 894 958 
0 894 1059 
0 894 232 
0 894 551 
0 852 1210 
0 895 311 
0 895 385 
0 895 1105 
0 895 1173 
0 935 850 
0 929 209 
0 939 545 
0 943 702 
0 941 1061 
0 926 1118 
0 948 541 
0 961 1029 
0 961 40 
0 753 1029 
0 753 40 
0 897 1092 
0 886 15 
0 885 15 
0 850 15 
0 963 808 
0 888 1255 
0 887 391 
0 895 663 
0 888 620 
0 888 945 
0 888 1107 
0 853 172 
0 385 686 
0 375 412 
0 387 810 
0 371 134 
0 367 1241 
0 401 477 
0 397 327 
0 437 1216 
0 437 502 
0 435 1069 
0 409 1165 
1 2611 1165 
0 413 1164 
0 379 783 
0 377 1171 
0 392 1137 
0 390 737 
0 388 571 
0 389 1262 
0 389 1264 
0 372 791 
0 366 1151 
0 400 914 
0 437 616 
0 435 358 
0 410 1083 
0 408 255 
0 404 316 
0 428 691 
0 422 411 
0 418 218 
0 417 413 
0 413 226 
0 531 454 
0 527 549 
0 382 1112 
0 378 439 
0 378 630 
0 543 135 
0 392 851 
0 390 443 
0 390 1030 
0 525 191 
0 372 328 
0 553 489 
0 547 569 
0 396 670 
0 436 101 
0 561 982 
0 404 171 
0 583 365 
0 579 148 
0 430 387 
0 428 398 
0 426 1072 
1 1746 148 
1 1745 148 
0 567 1013 
0 565 89 
0 563 1145 
0 537 38 
0 535 694 
0 533 219 
0 527 401 
0 530 682 
0 541 1217 
0 539 994 
0 539 1209 
0 523 558 
0 521 893 
0 521 33 
0 522 405 
0 522 725 
0 516 932 
0 553 367 
0 553 464 
0 550 115 
0 589 470 
0 590 733 
0 586 307 
0 561 1079 
0 561 795 
0 561 565 
0 559 221 
0 581 409 
0 577 609 
0 567 223 
0 570 106 
0 571 36 
0 538 88 
0 538 341 
0 538 793 
0 528 75 
0 546 132 
0 544 266 
0 544 330 
0 524 31 
0 516 82 
0 552 913 
0 550 177 
0 548 28 
0 548 424 
0 548 1022 
0 549 269 
0 584 155 
0 587 200 
0 560 1102 
0 558 700 
0 578 335 
0 576 556 
0 572 3 
0 581 664 
0 577 689 
0 577 71 
0 570 1 
0 567 57 
0 567 284 
0 1063 46 
0 1061 754 
0 1057 848 
0 1057 667 
0 530 936 
0 530 346 
0 528 90 
0 1049 366 
0 1049 292 
0 524 780 
1 1369 366 
0 1080 242 
0 1075 35 
0 1075 374 
0 1115 528 
0 1111 822 
0 1085 520 
0 1083 1109 
0 1083 1190 
0 1105 587 
0 1097 280 
0 1097 585 
0 582 880 
0 1095 277 
0 1093 1087 
0 1089 578 
0 1089 1007 
0 568 429 
0 1063 234 
0 1063 259 
0 1061 227 
0 1058 279 
0 1057 11 
0 1053 646 
0 1053 372 
0 1071 147 
0 1069 785 
0 1066 736 
0 1051 939 
0 1049 190 
0 1077 119 
0 1075 608 
0 1073 212 
0 1115 97 
0 1114 363 
0 1112 840 
0 1111 864 
0 1085 66 
0 1107 617 
0 1105 950 
0 1105 215 
0 1103 315 
0 1097 537 
0 1093 217 
0 1093 187 
0 1091 408 
0 1062 85 
0 1060 93 
0 1054 487 
0 1052 62 
0 1291 5 
0 1070 248 
0 1068 246 
0 1277 91 
0 1048 422 
0 1078 532 
0 1078 86 
0 1341 935 
0 1112 613 
0 1110 349 
0 1085 169 
0 1335 858 
0 1108 476 
0 1315 10 
0 1290 1054 
0 1294 129 
0 1293 37 
0 1270 67 
0 1335 80 
0 1327 683 
0 1327 120 
0 1319 672 
0 1316 241 
0 1286 23 
0 112 484 
0 125 518 
0 121 83 
