ITEM: TIMESTEP
10150000
ITEM: NUMBER OF ENTRIES
325
ITEM: BOX BOUNDS ff ff ff
-0.01 0.45
-0.15 0.15
-0.08 0.1
ITEM: ENTRIES c_pwc[1] c_pwc[2] c_pwc[3] 
0 954 355 
0 850 41 
0 910 987 
0 885 41 
0 855 69 
0 855 669 
0 894 931 
0 894 499 
0 894 636 
0 854 293 
0 854 1169 
0 894 923 
0 894 1122 
0 894 324 
0 894 114 
0 894 416 
0 894 1082 
0 894 896 
0 855 570 
0 855 297 
0 855 674 
0 855 278 
0 855 531 
0 855 627 
0 855 1116 
0 855 397 
0 854 582 
0 854 713 
0 936 593 
0 937 702 
0 946 501 
1 530 146 
1 529 146 
1 1842 146 
1 1827 146 
1 1828 146 
1 1831 146 
1 1830 146 
1 1861 146 
1 1874 146 
1 1873 146 
1 1883 146 
1 1889 146 
1 526 146 
1 541 146 
1 527 146 
1 1871 146 
1 1869 146 
1 1868 146 
1 1893 146 
1 1892 146 
1 1885 146 
0 885 270 
0 885 969 
0 885 48 
0 885 127 
0 885 52 
0 885 908 
0 885 276 
0 885 6 
0 885 79 
0 885 351 
0 885 45 
0 885 39 
0 885 393 
0 850 270 
0 850 969 
0 850 48 
0 850 127 
0 850 52 
0 850 908 
0 850 276 
0 850 6 
0 850 79 
0 850 351 
0 850 45 
0 851 39 
0 851 393 
0 895 764 
1 2706 752 
1 2698 752 
1 2717 752 
1 2704 752 
1 2705 752 
1 2722 752 
0 853 633 
0 884 1166 
0 894 1059 
0 894 12 
0 894 634 
0 894 841 
0 852 955 
0 895 748 
0 895 235 
0 895 714 
0 943 226 
0 943 691 
0 941 475 
0 947 134 
0 961 1029 
0 961 40 
0 753 1029 
0 753 40 
0 886 15 
0 885 15 
0 850 15 
0 898 1267 
0 900 743 
0 888 465 
0 891 557 
0 893 871 
0 893 1138 
0 892 466 
0 892 122 
0 895 663 
0 895 244 
0 895 1138 
0 895 122 
0 383 1253 
0 383 386 
0 377 228 
0 375 1177 
0 375 175 
0 393 1213 
0 373 612 
0 367 692 
0 397 313 
0 397 686 
0 429 1067 
0 425 810 
0 415 34 
0 413 413 
0 413 1165 
0 384 1128 
0 376 320 
0 376 256 
0 383 885 
0 375 3 
0 375 320 
0 393 1083 
0 393 319 
0 372 547 
0 370 1072 
0 364 1216 
0 371 851 
0 374 365 
0 400 791 
0 398 504 
0 396 1246 
0 396 600 
0 399 914 
0 433 316 
0 431 411 
0 403 180 
0 428 477 
0 425 1257 
0 421 412 
0 412 1171 
0 417 431 
0 413 202 
0 535 943 
0 535 398 
0 531 33 
0 386 1112 
0 543 387 
0 392 388 
0 390 138 
0 388 609 
0 388 1030 
0 388 221 
0 370 630 
0 364 295 
0 374 489 
0 553 549 
0 553 168 
0 398 328 
0 438 615 
0 583 171 
0 583 1149 
0 559 1241 
0 557 1241 
0 410 1145 
0 406 152 
0 565 143 
0 537 82 
0 527 893 
0 534 556 
0 530 312 
0 530 409 
0 545 447 
0 545 269 
0 543 994 
0 543 81 
0 541 521 
0 523 22 
0 521 148 
0 549 982 
0 585 932 
0 517 218 
0 591 205 
0 561 401 
0 557 722 
0 575 783 
0 571 812 
0 569 1079 
0 569 208 
0 567 31 
0 565 444 
0 563 659 
0 568 208 
1 2625 31 
0 528 266 
0 544 115 
0 542 200 
0 524 124 
0 520 795 
0 523 670 
0 526 537 
0 552 605 
0 552 346 
0 548 341 
0 549 132 
0 547 1022 
0 586 642 
0 517 177 
0 516 177 
0 562 405 
0 561 1010 
0 582 155 
0 576 454 
0 574 500 
0 570 875 
0 570 754 
0 1063 424 
0 1055 242 
0 1053 379 
0 1067 50 
0 1047 578 
0 1047 1109 
0 1045 292 
0 1042 1190 
0 516 528 
0 1043 1190 
0 1079 35 
0 1115 217 
0 1115 793 
0 1113 585 
0 1111 771 
0 1083 936 
0 1103 25 
0 1103 75 
0 1101 429 
0 574 87 
0 1095 371 
0 1095 280 
0 1095 822 
0 570 587 
0 1097 520 
0 1063 197 
0 1063 617 
0 1062 1054 
0 1057 599 
0 1057 277 
0 1056 315 
0 1070 119 
0 1068 596 
0 1066 62 
0 1051 422 
0 1049 187 
0 1048 372 
0 1047 160 
0 1079 649 
0 1078 478 
0 1073 637 
0 1115 366 
0 1115 1 
0 1087 864 
0 1087 736 
0 1103 190 
0 1103 921 
0 1095 238 
0 1095 532 
0 1092 530 
0 1063 408 
0 1061 697 
0 1058 421 
0 1057 215 
0 1072 858 
0 1070 91 
0 1066 349 
0 1271 162 
0 1074 32 
0 1341 484 
0 1116 93 
0 1116 47 
0 1112 78 
0 1112 85 
1 1818 950 
1 1817 950 
0 1309 169 
0 1082 441 
0 1082 847 
0 1106 80 
0 1104 476 
0 1110 282 
0 1096 129 
0 1094 672 
0 1323 445 
0 1283 83 
0 1297 241 
0 1295 100 
0 1270 178 
0 1337 251 
0 1337 212 
0 1311 5 
0 1323 67 
0 1321 94 
0 1319 279 
0 1315 166 
0 113 120 
0 91 281 
0 131 153 
0 77 23 
0 74 24 
0 114 174 
