ITEM: TIMESTEP
10050000
ITEM: NUMBER OF ENTRIES
318
ITEM: BOX BOUNDS ff ff ff
-0.01 0.45
-0.15 0.15
-0.08 0.1
ITEM: ENTRIES c_pwc[1] c_pwc[2] c_pwc[3] 
0 956 501 
0 850 41 
0 885 41 
0 854 707 
0 884 905 
0 854 1114 
0 894 1172 
0 894 1074 
0 894 416 
0 894 102 
0 855 572 
0 855 1115 
0 855 278 
0 855 531 
0 855 923 
0 854 1223 
0 854 1142 
0 920 882 
1 1861 146 
1 1874 146 
1 1873 146 
1 529 146 
1 1883 146 
1 530 146 
1 1889 146 
1 1842 146 
1 1828 146 
1 1831 146 
1 1830 146 
1 1827 146 
1 526 146 
1 527 146 
1 541 146 
1 1871 146 
1 1869 146 
1 1868 146 
1 1892 146 
1 1893 146 
1 1885 146 
0 885 270 
0 885 969 
0 885 48 
0 885 127 
0 885 52 
0 885 908 
0 885 276 
0 885 6 
0 885 79 
0 885 351 
0 885 45 
0 885 39 
0 885 393 
0 850 270 
0 850 969 
0 850 48 
0 850 127 
0 850 52 
0 850 908 
0 850 276 
0 850 6 
0 850 79 
0 850 351 
0 850 45 
0 851 39 
0 851 393 
1 2698 752 
1 2717 752 
1 2703 752 
1 2724 752 
1 2723 752 
1 2685 752 
1 2725 752 
0 962 1239 
0 895 778 
0 895 496 
0 895 194 
0 895 440 
0 894 151 
0 894 764 
0 894 1059 
0 894 1110 
0 894 344 
0 894 311 
0 895 1003 
0 895 357 
0 895 962 
0 895 748 
0 895 981 
0 895 618 
0 943 34 
0 391 34 
0 919 313 
0 961 1029 
0 961 40 
0 959 1253 
0 957 431 
0 753 1029 
0 753 40 
0 886 15 
0 885 15 
0 850 15 
0 892 1056 
0 895 258 
0 891 513 
0 853 579 
0 893 1138 
0 892 249 
0 383 489 
0 383 1067 
0 383 630 
0 379 504 
1 1547 1112 
0 393 1207 
0 373 708 
0 367 1177 
0 397 138 
0 395 439 
0 405 180 
0 429 746 
0 415 498 
0 378 1179 
0 378 485 
0 379 298 
0 375 1137 
0 391 228 
0 387 175 
0 364 656 
0 364 316 
0 373 1083 
0 367 612 
0 395 327 
0 438 1128 
0 438 202 
0 431 101 
0 408 609 
0 406 464 
0 415 411 
0 415 571 
0 413 1013 
0 537 982 
0 378 117 
0 541 659 
0 392 547 
0 521 913 
0 519 328 
0 518 134 
0 368 1069 
0 517 134 
0 549 330 
0 398 1216 
0 396 398 
0 396 687 
0 587 783 
0 585 1164 
0 585 470 
0 517 1217 
0 432 615 
0 581 994 
0 577 236 
0 571 256 
0 422 358 
0 422 943 
0 420 64 
0 420 756 
0 567 1145 
0 418 1038 
0 412 1246 
0 537 1209 
0 527 218 
0 527 389 
0 541 409 
0 541 867 
0 539 737 
0 539 812 
0 525 542 
0 523 804 
0 521 1079 
0 519 733 
0 518 388 
0 553 864 
0 554 537 
0 585 1194 
0 585 87 
0 590 208 
0 583 444 
0 561 521 
0 559 28 
0 555 816 
0 562 1 
0 560 689 
0 560 893 
0 579 341 
0 579 670 
0 575 247 
0 569 191 
0 569 312 
0 565 622 
0 565 700 
0 563 143 
0 538 17 
0 536 35 
0 530 578 
0 528 376 
0 546 50 
0 545 205 
0 543 201 
0 516 1007 
0 516 71 
0 521 405 
0 517 1007 
0 554 234 
0 552 266 
0 550 454 
0 548 944 
0 591 168 
0 590 220 
0 588 614 
0 588 132 
0 556 585 
0 555 664 
1 2174 585 
1 2177 585 
0 580 158 
0 578 307 
0 572 822 
0 577 936 
0 570 36 
0 568 875 
0 566 1109 
0 564 1022 
0 567 89 
0 1057 771 
0 1053 649 
0 536 556 
0 530 848 
0 1051 596 
0 1044 25 
1 1792 25 
0 1075 200 
0 1075 379 
0 1073 1048 
0 554 528 
0 1111 280 
0 1043 88 
0 1087 884 
0 1085 793 
0 1083 1190 
0 1083 667 
0 1081 424 
0 1081 921 
0 1107 97 
0 1105 85 
0 1097 66 
0 1095 371 
0 1093 754 
0 1093 277 
0 1091 1054 
0 1089 840 
0 1097 171 
0 1058 37 
0 1057 682 
0 1069 302 
0 1047 853 
0 1045 67 
0 1045 785 
0 1045 408 
0 1044 408 
0 1052 284 
0 1075 223 
0 1075 422 
0 1075 169 
0 1116 80 
0 1115 292 
0 1115 46 
0 1113 363 
0 1086 977 
0 1086 93 
0 1085 977 
0 1085 93 
0 1081 248 
0 1089 47 
0 1107 98 
0 1099 736 
0 1099 366 
0 1098 78 
0 1097 282 
0 1095 939 
0 1095 858 
0 1093 90 
0 1091 1102 
0 1089 935 
0 1287 109 
0 1064 372 
0 1058 672 
0 1054 847 
0 1046 646 
0 1046 697 
0 1042 163 
0 1080 13 
0 1080 212 
0 1341 197 
0 1117 349 
0 1112 428 
0 1108 315 
0 1319 19 
0 1096 147 
0 1092 478 
0 1285 10 
0 1282 476 
0 1281 5 
0 1273 445 
0 1301 267 
0 1300 120 
0 1299 484 
0 1310 94 
0 97 24 
0 145 241 
0 141 153 
