ITEM: TIMESTEP
11000000
ITEM: NUMBER OF ENTRIES
335
ITEM: BOX BOUNDS ff ff ff
-0.01 0.45
-0.15 0.15
-0.08 0.1
ITEM: ENTRIES c_pwc[1] c_pwc[2] c_pwc[3] 
0 952 1347 
0 946 1375 
0 850 41 
0 850 480 
0 885 41 
0 885 480 
0 895 70 
0 894 1187 
0 852 477 
0 852 1212 
0 852 1016 
0 894 1051 
0 894 713 
0 894 1156 
0 894 681 
0 894 769 
0 894 927 
0 894 195 
0 894 688 
0 852 621 
0 855 149 
0 855 268 
0 855 726 
0 855 1101 
0 855 998 
0 855 125 
0 854 1056 
0 854 1310 
0 854 1292 
1 1861 146 
1 1874 146 
1 1873 146 
1 1889 146 
1 1883 146 
1 529 146 
1 530 146 
1 1828 146 
1 1831 146 
1 1842 146 
1 1830 146 
1 1827 146 
1 1871 146 
1 1869 146 
1 1868 146 
1 1892 146 
1 1893 146 
1 1885 146 
1 526 146 
1 527 146 
1 541 146 
0 923 194 
1 2690 1377 
1 71 1377 
1 2667 1377 
1 2710 1377 
1 2692 1377 
1 2693 1377 
1 2711 1377 
1 2705 752 
1 2704 752 
1 2706 752 
1 2722 752 
1 2698 752 
1 2717 752 
0 956 751 
0 885 270 
0 885 969 
0 885 48 
0 885 127 
0 885 52 
0 885 908 
0 885 276 
0 885 6 
0 885 79 
0 885 351 
0 885 45 
0 885 39 
0 885 393 
0 850 270 
0 850 969 
0 850 48 
0 850 127 
0 850 52 
0 850 908 
0 850 276 
0 850 6 
0 850 79 
0 850 351 
0 850 45 
0 851 39 
0 851 393 
0 853 1342 
0 894 434 
0 894 789 
0 894 1281 
0 894 287 
0 894 1295 
0 894 1224 
0 852 298 
0 852 490 
0 852 310 
0 852 1143 
0 895 964 
0 895 662 
0 895 350 
0 895 1284 
0 895 1326 
0 895 402 
0 895 1080 
0 853 538 
0 953 558 
0 433 200 
0 961 1029 
0 961 40 
0 753 1029 
0 753 40 
0 886 15 
0 885 15 
0 850 15 
0 899 843 
0 888 482 
0 888 406 
0 888 1142 
0 887 807 
0 887 716 
0 893 465 
0 893 980 
0 892 16 
0 892 496 
0 892 1221 
0 895 805 
0 888 1074 
0 888 525 
0 888 1083 
0 888 654 
0 888 235 
0 888 1211 
0 385 1374 
0 393 1097 
0 367 1308 
0 401 439 
0 395 1366 
0 433 34 
0 433 901 
0 434 1182 
1 2611 3 
0 409 196 
0 405 420 
0 427 103 
0 423 610 
0 419 737 
0 417 1079 
0 382 791 
0 378 1315 
0 385 36 
0 393 880 
0 387 226 
0 372 612 
0 372 850 
0 368 489 
0 371 743 
0 402 840 
0 402 388 
0 399 201 
0 397 1128 
0 436 191 
0 436 307 
0 428 1192 
0 426 1038 
0 429 943 
0 427 852 
0 415 549 
0 376 521 
0 543 38 
0 392 452 
0 388 670 
0 374 424 
0 398 17 
0 587 106 
0 583 722 
0 557 1069 
0 557 537 
0 478 834 
0 406 221 
0 404 834 
0 404 691 
0 579 816 
0 424 1336 
0 567 95 
0 412 220 
0 529 1296 
0 529 793 
0 528 810 
0 545 135 
0 539 1357 
0 539 292 
0 518 1241 
0 553 885 
0 551 733 
0 547 1 
0 548 99 
0 589 599 
0 585 702 
0 561 158 
0 561 122 
0 561 66 
0 561 205 
0 559 1194 
0 562 958 
0 562 349 
0 573 212 
0 573 132 
0 573 689 
0 582 31 
0 578 115 
0 569 1164 
0 567 509 
0 565 80 
0 565 642 
0 563 435 
0 570 686 
0 538 659 
0 538 771 
0 534 605 
0 532 795 
0 537 170 
0 535 35 
0 529 876 
0 546 171 
0 544 613 
0 540 780 
0 520 363 
0 520 160 
0 516 366 
0 554 28 
0 552 163 
0 553 697 
0 590 682 
0 590 247 
0 586 785 
0 586 155 
0 586 528 
0 584 330 
0 589 401 
0 585 649 
0 558 812 
0 558 1325 
0 582 1145 
0 574 504 
0 575 1114 
0 570 851 
0 566 875 
0 566 208 
0 566 217 
0 1061 470 
0 1061 804 
0 1055 428 
0 1071 1085 
0 1069 88 
0 1069 617 
0 1065 219 
0 1049 585 
0 1047 33 
0 1047 485 
0 1047 241 
0 1045 1109 
0 1044 1048 
0 516 295 
0 1075 398 
0 1073 464 
0 1073 936 
0 560 177 
0 1103 774 
0 1101 1157 
0 1099 672 
0 1095 71 
0 1091 614 
0 1057 215 
0 1056 166 
0 1055 46 
0 1071 454 
0 1069 596 
0 1045 174 
0 1079 921 
0 1077 817 
0 1076 242 
0 1075 242 
0 1115 13 
0 1114 725 
0 1112 62 
0 1111 147 
0 1110 187 
0 1043 858 
0 1088 198 
0 1086 320 
0 1085 5 
0 1081 11 
0 1102 94 
0 1095 646 
0 1094 848 
0 1279 269 
0 1279 190 
0 1060 608 
0 1058 178 
0 1056 93 
0 1072 197 
0 1066 86 
0 1271 10 
0 1051 1072 
0 1052 379 
0 1233 119 
0 1303 119 
0 1078 822 
0 1078 119 
0 1341 91 
0 1117 98 
0 1116 461 
0 1116 637 
0 1114 315 
0 1114 770 
0 1087 371 
0 1104 418 
0 1096 281 
0 1293 346 
0 1291 441 
0 1291 444 
0 1277 478 
0 1273 864 
0 1305 267 
0 1303 374 
0 1341 476 
0 1323 683 
0 1300 532 
0 123 129 
0 137 487 
