ITEM: TIMESTEP
10550000
ITEM: NUMBER OF ENTRIES
337
ITEM: BOX BOUNDS ff ff ff
-0.01 0.45
-0.15 0.15
-0.08 0.1
ITEM: ENTRIES c_pwc[1] c_pwc[2] c_pwc[3] 
0 930 1032 
0 850 41 
0 885 41 
0 855 1196 
0 855 531 
0 894 1071 
0 894 627 
0 853 514 
0 852 974 
0 855 493 
0 855 297 
0 894 519 
0 894 690 
0 894 1239 
0 894 713 
0 894 375 
0 894 214 
0 894 1073 
0 894 946 
0 894 1090 
0 894 294 
0 894 1189 
0 894 1242 
0 894 195 
0 852 468 
0 852 639 
0 852 846 
0 855 988 
0 855 1188 
0 855 519 
0 855 887 
0 855 1040 
0 855 317 
0 855 693 
0 855 268 
0 855 507 
0 854 650 
0 854 176 
0 854 707 
0 854 1101 
0 936 425 
1 2685 752 
1 2698 752 
1 2717 752 
1 1861 146 
1 1874 146 
1 1873 146 
1 529 146 
1 1883 146 
1 530 146 
1 1889 146 
1 1842 146 
1 1828 146 
1 1830 146 
1 1831 146 
1 1827 146 
1 526 146 
1 541 146 
1 527 146 
1 1871 146 
1 1869 146 
1 1868 146 
1 1892 146 
1 1893 146 
1 1885 146 
0 885 270 
0 885 969 
0 885 48 
0 885 127 
0 885 52 
0 885 908 
0 885 276 
0 885 6 
0 885 79 
0 885 351 
0 885 45 
0 885 39 
0 885 393 
0 850 270 
0 850 969 
0 850 48 
0 850 127 
0 850 52 
0 850 908 
0 850 276 
0 850 6 
0 850 79 
0 850 351 
0 850 45 
0 851 39 
0 851 393 
0 894 102 
0 894 463 
0 894 1093 
0 894 566 
0 894 1052 
0 894 802 
0 894 544 
0 894 347 
0 894 415 
0 894 513 
0 894 1041 
0 894 825 
0 852 1093 
0 852 855 
0 895 841 
0 895 1226 
0 895 469 
0 895 1252 
0 895 1113 
0 895 751 
0 937 1149 
0 930 1269 
0 926 1177 
0 949 1170 
0 919 1241 
0 917 117 
0 961 1029 
0 961 40 
0 753 1029 
0 753 40 
0 886 15 
0 885 15 
0 850 15 
0 890 1309 
0 891 161 
0 891 1028 
0 887 912 
0 895 122 
0 888 410 
0 888 1121 
0 853 1266 
0 379 1159 
0 375 1307 
0 393 1072 
0 391 34 
0 391 298 
0 389 737 
0 371 1097 
0 367 148 
0 433 1217 
0 425 112 
0 421 89 
0 421 101 
0 419 610 
0 415 600 
0 385 220 
0 394 386 
0 390 236 
0 388 810 
0 370 1038 
0 402 1069 
0 398 256 
0 395 439 
0 436 850 
0 434 616 
0 437 581 
0 433 328 
0 365 175 
0 409 630 
0 405 226 
0 424 388 
0 429 1182 
0 419 443 
0 418 168 
0 413 571 
0 413 901 
0 537 691 
0 529 558 
0 527 1257 
0 386 521 
0 384 452 
0 382 687 
0 543 200 
0 392 170 
0 525 549 
0 521 559 
0 521 221 
0 519 28 
0 553 1128 
0 547 33 
0 400 542 
0 398 435 
0 585 22 
0 559 316 
0 581 424 
0 579 612 
0 571 36 
0 424 1246 
0 422 694 
0 420 191 
0 432 840 
0 414 1164 
0 414 943 
0 535 1037 
0 534 795 
0 530 867 
0 528 320 
0 545 88 
0 541 733 
0 541 547 
0 541 223 
0 539 31 
0 544 1013 
0 538 31 
0 525 201 
0 523 3 
0 523 609 
0 521 349 
0 519 838 
0 519 134 
0 553 500 
0 549 504 
0 547 205 
0 550 494 
0 589 367 
0 583 247 
0 557 1102 
0 560 1112 
0 581 255 
0 581 1030 
0 573 743 
0 571 569 
0 569 1264 
0 563 202 
0 570 71 
0 538 1007 
0 538 341 
0 534 502 
0 534 936 
0 532 115 
0 535 932 
0 533 608 
0 546 17 
0 542 266 
0 522 893 
0 520 363 
0 520 277 
0 554 280 
0 554 155 
0 554 537 
0 552 401 
0 552 32 
0 548 1194 
0 586 485 
0 584 700 
0 587 1209 
0 585 335 
0 560 1010 
0 558 780 
0 555 444 
0 574 470 
0 568 670 
0 1063 642 
0 1059 82 
0 1070 366 
0 1067 1 
0 1049 599 
0 1078 346 
0 1077 822 
0 1115 187 
0 1113 302 
0 588 197 
0 586 793 
0 584 358 
0 1105 736 
0 1103 234 
0 578 106 
0 576 1157 
0 1093 50 
0 1093 556 
0 1063 169 
0 1053 611 
0 1072 422 
0 1069 664 
0 1065 90 
0 1050 771 
0 1078 371 
0 1077 454 
0 1075 770 
0 1074 10 
0 1073 99 
0 1073 11 
0 1116 242 
0 1115 441 
0 1113 614 
0 1112 119 
0 1112 62 
0 1085 281 
0 1082 160 
0 1089 646 
0 1106 379 
0 1105 817 
0 1097 977 
0 1096 725 
0 1064 532 
0 1062 408 
0 1058 91 
0 1056 25 
0 1297 617 
0 1072 190 
0 1070 613 
0 1066 939 
0 1050 282 
0 1047 217 
0 1303 530 
0 1078 251 
0 1076 376 
0 1075 19 
0 1114 98 
0 1112 418 
0 1112 259 
0 1307 596 
0 1082 637 
0 1108 429 
0 1100 1022 
0 1100 23 
0 1285 100 
0 1283 847 
0 1282 129 
0 1281 109 
0 1277 47 
0 1298 518 
0 1293 163 
0 1273 935 
0 1301 315 
0 1301 147 
0 1300 120 
0 1299 421 
0 1337 476 
0 1312 5 
0 1329 520 
0 1317 445 
0 111 153 
0 1334 487 
1 1598 487 
0 99 24 
