ITEM: TIMESTEP
8000000
ITEM: NUMBER OF ENTRIES
257
ITEM: BOX BOUNDS ff ff ff
-0.01 0.45
-0.15 0.15
-0.08 0.1
ITEM: ENTRIES c_pwc[1] c_pwc[2] c_pwc[3] 
0 850 41 
0 885 41 
0 895 989 
0 894 482 
0 894 863 
0 894 553 
0 894 373 
0 894 72 
0 852 655 
0 855 760 
0 855 932 
0 855 763 
1 2717 752 
1 2703 752 
1 2723 752 
1 2685 752 
1 2725 752 
1 2724 752 
1 2698 752 
0 885 270 
0 885 48 
0 885 127 
0 885 52 
0 885 908 
0 885 276 
0 885 6 
0 885 79 
0 885 351 
0 885 45 
0 885 39 
0 885 393 
0 850 270 
0 850 48 
0 850 127 
0 850 52 
0 850 908 
0 850 276 
0 850 6 
0 850 79 
0 850 351 
0 850 45 
0 851 39 
0 851 393 
1 529 146 
1 1861 146 
1 530 146 
1 1874 146 
1 1873 146 
1 1883 146 
1 1889 146 
1 1842 146 
1 1831 146 
1 1830 146 
1 1828 146 
1 1827 146 
1 526 146 
1 527 146 
1 541 146 
1 1871 146 
1 1869 146 
1 1868 146 
1 1892 146 
1 1893 146 
1 1885 146 
0 895 783 
0 895 618 
0 853 787 
0 894 73 
0 917 856 
0 961 40 
0 753 40 
0 886 15 
0 885 15 
0 850 15 
0 895 347 
0 891 126 
0 892 639 
0 895 639 
0 375 736 
0 393 754 
0 387 950 
0 371 733 
0 399 218 
0 397 942 
0 433 935 
0 386 936 
0 380 454 
0 392 154 
0 372 1 
0 364 622 
0 373 104 
0 371 609 
0 365 622 
0 398 220 
0 395 187 
0 436 202 
0 437 428 
0 408 215 
0 406 470 
0 405 269 
0 411 804 
0 420 132 
0 431 346 
0 421 925 
0 421 816 
0 411 743 
0 537 636 
0 533 251 
0 527 178 
0 386 646 
0 382 939 
0 543 136 
0 390 694 
0 388 542 
0 521 913 
0 370 504 
0 368 666 
0 551 328 
0 396 59 
0 396 921 
0 585 200 
0 432 914 
0 561 266 
0 567 98 
0 563 209 
0 535 761 
0 531 107 
0 531 228 
0 531 885 
0 529 148 
0 534 840 
0 528 57 
0 545 315 
0 525 153 
0 523 47 
0 519 365 
0 553 280 
0 551 175 
0 547 71 
0 554 88 
0 550 782 
1 2618 88 
1 2625 88 
0 589 838 
0 517 330 
0 588 217 
0 586 129 
0 560 424 
0 577 180 
0 575 363 
0 563 208 
0 534 366 
0 532 90 
0 530 445 
0 530 101 
0 528 190 
0 528 232 
0 526 5 
0 529 587 
0 527 672 
0 543 227 
0 538 520 
0 520 163 
0 516 166 
0 521 509 
0 548 617 
0 591 411 
0 590 401 
0 590 106 
0 562 847 
0 556 236 
0 556 791 
0 557 282 
0 580 664 
0 580 578 
0 574 770 
0 567 28 
0 563 613 
0 1061 478 
0 1053 223 
0 538 596 
0 528 124 
0 1067 643 
0 1047 168 
0 1073 537 
0 548 91 
0 1111 785 
0 1109 642 
0 1087 267 
0 1085 75 
0 1105 3 
0 1103 325 
0 1103 119 
0 1101 697 
0 1101 319 
0 1101 848 
0 578 143 
0 584 214 
0 1095 670 
0 1055 374 
0 1054 31 
0 1052 298 
0 1071 255 
0 1066 248 
0 1047 630 
0 1047 162 
0 1047 556 
0 1045 78 
0 1079 746 
0 1078 413 
0 1073 174 
0 1117 487 
0 1116 62 
0 1110 13 
0 1043 487 
0 1087 398 
0 1087 46 
0 1084 201 
0 1109 36 
0 1108 234 
0 1108 219 
0 1091 170 
0 1279 571 
0 1291 97 
0 1069 205 
0 1068 421 
0 1277 33 
0 1047 17 
0 1042 335 
0 1052 506 
0 1301 160 
0 1076 476 
0 1074 11 
0 1112 444 
0 1110 667 
0 1088 147 
0 1088 10 
0 1212 82 
0 1335 117 
0 1325 82 
0 1102 169 
0 1100 27 
0 1281 429 
0 1297 408 
0 1293 281 
0 1293 66 
0 1277 725 
0 1275 265 
0 1273 19 
0 1301 500 
0 1327 304 
0 1321 259 
0 159 461 
0 141 32 
0 1332 198 
0 1322 341 
0 130 152 
