ITEM: TIMESTEP
9150000
ITEM: NUMBER OF ENTRIES
2703
ITEM: BOX BOUNDS ff ff ff
-0.01 0.45
-0.15 0.15
-0.08 0.1
ITEM: ENTRIES c_pwc[1] c_pwc[2] c_pwc[3] c_pwc[4] c_pwc[5] c_pwc[6] c_pwc[7] c_pwc[8] c_pwc[9] c_pwc[10] c_pwc[11] c_pwc[12] c_pwc[13] c_pwc[14] 
0 0 0 0.0472031 -0.215317 0.1626 0 786 15203 -2.77765e-06 5.03896e-06 4.13875e-06 3.74448e-10 7.44976e-08 
0 0 0 -0.149615 -0.39897 0.301288 0 786 14527 -0.00676522 0.00101343 -0.000757365 3.74448e-10 7.44976e-08 
0 0 0 -0.0796209 -0.38185 0.418902 0 784 5801 -4.87698e-10 7.11264e-06 3.75709e-06 4.34482e-10 8.6442e-08 
0 0 0 0.0495132 -0.0190953 0.03084 0 782 10441 -1.46969e-17 8.43728e-06 3.363e-06 4.71018e-10 9.37115e-08 
0 0 0 0.00447051 0.000529343 0.000231825 0 778 3129 -2.89153e-07 6.71843e-07 -3.06094e-08 2.63292e-10 5.23821e-08 
0 0 0 0.0189204 -0.0037266 0.0199355 0 778 15555 1.98297e-18 1.02659e-05 1.35713e-06 5.18851e-10 1.03229e-07 
0 0 0 -0.00676826 0.00024623 -0.00131721 0 778 12757 -6.36653e-19 1.02659e-05 1.35713e-06 5.18851e-10 1.03229e-07 
0 0 0 0.00341978 0.000218429 0.000691986 0 778 8040 -1.19857e-05 3.02301e-05 3.82474e-07 1.11252e-09 2.21359e-07 
0 0 0 -0.0074569 -0.000410105 0.00219387 0 778 7654 4.97565e-19 1.02659e-05 1.35713e-06 5.18851e-10 1.03229e-07 
0 0 0 0.0336066 -0.00236936 0.012675 0 778 5338 -7.01399e-18 1.02659e-05 1.35713e-06 5.18851e-10 1.03229e-07 
0 0 0 0.00653785 -0.00119941 0.00229905 0 778 15828 -1.21279e-05 7.62379e-06 3.65749e-06 2.74514e-10 5.46147e-08 
0 0 0 0.0274594 -0.00301846 0.01616 0 778 4306 1.75587e-11 1.0299e-05 1.36376e-06 5.20486e-10 1.03554e-07 
0 0 0 0.0338782 -0.0051093 0.0258156 0 778 255 -6.90855e-06 0.000171674 4.71681e-06 3.31053e-09 6.5888e-07 
0 0 0 -0.0200572 -0.0142382 0.0772879 0 778 4848 3.21342e-06 1.49189e-05 -3.54539e-06 6.77849e-10 1.34865e-07 
0 0 0 0.0666118 -0.00529767 0.02834 0 778 16330 2.15734e-17 1.02659e-05 1.35713e-06 5.18851e-10 1.03229e-07 
0 0 0 0.0294078 -0.00601504 0.0321776 0 778 5892 -2.49057e-16 1.02659e-05 1.35713e-06 5.18851e-10 1.03229e-07 
0 0 0 0.0358792 0.00118596 -0.00634892 0 778 5399 -7.07229e-12 9.98617e-06 1.3025e-06 5.0909e-10 1.01287e-07 
0 0 0 -0.000952218 -0.00707306 0.0378375 0 778 15517 -4.40064e-20 1.02659e-05 1.35713e-06 5.18851e-10 1.03229e-07 
0 0 0 0.0475011 0.000583728 0.00161766 0 778 13175 -2.42333e-05 4.92108e-05 1.84432e-05 1.66255e-09 3.30823e-07 
0 0 0 0.0014794 0.000509065 0.0017326 0 776 7649 -1.43575e-06 6.7672e-06 4.57425e-06 5.09263e-10 1.01321e-07 
0 0 0 -0.000182912 -0.000237958 0.00140888 0 776 7937 3.70526e-06 9.03573e-06 -1.95386e-05 4.2145e-10 8.38492e-08 
0 0 0 0.0012199 0.000522042 0.00187744 0 776 5540 -1.85569e-07 3.81075e-06 -1.89632e-06 3.99407e-10 7.94634e-08 
0 0 0 0.000958707 -0.000108637 0.00136174 0 776 1200 2.08232e-07 1.66855e-05 -8.19938e-06 6.92012e-10 1.37683e-07 
0 0 0 0.00017056 2.55289e-05 0.000330257 0 776 1871 2.53822e-08 1.02182e-05 4.49388e-07 5.20307e-10 1.03518e-07 
0 0 0 0.000482659 0.000112164 -0.000512248 0 776 206 -3.08811e-07 1.08855e-05 -1.27721e-06 5.61061e-10 1.11627e-07 
0 0 0 -0.000433298 -5.62993e-05 -0.000363067 0 776 1972 2.90407e-06 1.07505e-05 2.36855e-07 5.20337e-10 1.03525e-07 
0 0 0 7.72139e-05 -6.66129e-05 -0.000288381 0 776 733 2.50662e-08 1.26765e-05 9.3026e-07 5.80334e-10 1.15462e-07 
0 0 0 -3.80625e-05 -0.000231141 0.000741255 0 776 10595 1.81015e-06 1.6487e-05 1.16822e-06 6.61707e-10 1.31653e-07 
0 0 0 -0.00359136 3.81542e-06 6.95364e-05 0 776 894 -8.17822e-10 1.05384e-05 -6.10244e-10 5.26277e-10 1.04706e-07 
0 0 0 -0.00356101 -5.02282e-07 0.000284819 0 776 9680 9.55777e-13 1.05246e-05 -8.62535e-12 5.24883e-10 1.04429e-07 
0 0 0 -0.00229047 -3.48406e-06 0.000618838 0 776 414 9.71799e-14 1.05175e-05 -4.8569e-12 5.24003e-10 1.04254e-07 
0 0 0 -0.000657123 3.95016e-05 0.000139553 0 776 1894 4.57406e-07 1.05846e-05 6.49854e-07 5.35526e-10 1.06547e-07 
0 0 0 0.00140423 -6.98003e-05 -0.00056362 0 776 690 8.76994e-08 1.12562e-05 1.0739e-06 5.34109e-10 1.06265e-07 
0 0 0 -0.00141942 2.73213e-05 -0.000279549 0 776 280 2.13498e-07 1.04344e-05 9.40332e-07 5.2791e-10 1.05031e-07 
0 0 0 -0.00252826 -1.43102e-05 -0.00322211 0 776 2352 1.19078e-09 1.20998e-05 -1.83497e-08 5.73119e-10 1.14027e-07 
0 0 0 -0.000775613 -5.87672e-06 0.0053504 0 776 9977 2.60414e-09 1.05266e-05 -2.84066e-10 5.23786e-10 1.04211e-07 
0 0 0 -0.00940714 -7.09084e-06 -0.00293386 0 776 1225 2.92206e-11 1.0533e-05 1.17228e-11 5.23737e-10 1.04201e-07 
0 0 0 0.00011429 0.000209882 -0.00324632 0 776 101 5.50872e-06 1.49753e-05 1.81521e-06 7.06956e-10 1.40657e-07 
0 0 0 -0.00382011 3.8488e-05 -0.00364112 0 776 317 3.21315e-07 1.04842e-05 -1.66535e-07 5.31981e-10 1.05841e-07 
0 0 0 -9.32178e-06 -7.82984e-05 -0.0020039 0 776 1705 4.00907e-06 1.32629e-05 5.28236e-06 5.96192e-10 1.18617e-07 
0 0 0 -0.000861317 -4.63314e-11 0.00939264 0 776 5611 1.12156e-17 1.05196e-05 -1.22469e-16 5.24825e-10 1.04417e-07 
0 0 0 0.00193002 4.9979e-08 0.00683561 0 776 9269 2.67694e-14 1.05198e-05 9.48099e-14 5.24843e-10 1.04421e-07 
0 0 0 0.000973213 0.000212122 -0.00338696 0 776 531 -1.27387e-06 1.10226e-05 4.46895e-06 5.8696e-10 1.16781e-07 
0 0 0 0.0059884 1.98595e-07 0.00758405 0 776 8455 3.32132e-13 1.0519e-05 4.20631e-13 5.2485e-10 1.04422e-07 
0 0 0 -0.0137635 9.15541e-10 0.0132958 0 776 11208 -3.38487e-15 1.05196e-05 3.26996e-15 5.24826e-10 1.04418e-07 
0 0 0 -0.00372092 3.2014e-05 -2.67976e-05 0 776 553 4.43347e-08 8.71657e-06 1.21062e-07 4.70151e-10 9.35391e-08 
0 0 0 -0.000947616 0.000228683 0.000192665 0 776 585 7.33307e-06 5.8353e-07 2.77423e-06 1.54471e-10 3.07316e-08 
0 0 0 8.62675e-05 9.15853e-08 -0.00351246 0 776 2069 2.1091e-15 1.05208e-05 -8.85967e-14 5.24885e-10 1.04429e-07 
0 0 0 0.00597831 -2.18999e-05 -0.00167796 0 776 6702 3.66111e-07 1.33885e-05 3.11191e-06 6.11803e-10 1.21724e-07 
0 0 0 -0.00127229 -6.98049e-05 -0.00154112 0 776 1002 -2.42527e-06 1.20576e-05 5.87273e-06 5.60038e-10 1.11424e-07 
0 0 0 0.000463973 -0.000404591 -0.00119647 0 776 1470 -1.082e-06 1.00443e-05 4.9042e-06 4.20819e-10 8.37236e-08 
0 0 0 0.000852018 -1.01301e-05 -0.00101191 0 776 154 -6.02952e-06 1.45351e-05 4.05738e-06 6.48983e-10 1.29122e-07 
0 0 0 0.000443587 -0.000132384 -0.00100098 0 776 1045 2.60597e-06 1.67033e-05 7.93466e-06 6.87765e-10 1.36838e-07 
0 0 0 0.00503509 -4.4388e-06 0.0128552 0 776 2611 -6.25034e-12 1.0487e-05 -1.51777e-11 5.22781e-10 1.04011e-07 
0 0 0 -0.0125299 5.05073e-09 0.0119641 0 776 10613 -1.79677e-14 1.05195e-05 1.71561e-14 5.24822e-10 1.04417e-07 
0 0 0 0.00640543 -4.00644e-09 -0.00106658 0 776 4634 -7.31061e-15 1.05197e-05 1.21734e-15 5.24827e-10 1.04418e-07 
0 0 0 0.0117018 -8.09904e-12 -0.000289407 0 776 72 -2.85531e-17 1.05196e-05 7.05596e-19 5.24825e-10 1.04417e-07 
0 0 0 0.00182007 -5.58109e-12 -0.00290922 0 776 4165 -1.688e-18 1.05196e-05 2.59554e-18 5.24825e-10 1.04417e-07 
0 0 0 0.000191668 -7.93997e-11 -0.00129057 0 776 1920 -4.22668e-18 1.05196e-05 2.84623e-17 5.24825e-10 1.04417e-07 
0 0 0 0.00155476 0.000295874 -0.000889279 0 776 3087 -5.73497e-07 1.0656e-05 -9.92967e-07 5.93206e-10 1.18023e-07 
0 0 0 -0.0119582 0.000530972 0.0207985 0 776 12304 5.08073e-08 1.33671e-06 -3.26596e-07 2.89751e-10 5.76463e-08 
0 0 0 -0.0114574 -2.74096e-08 0.0289838 0 776 1063 1.66739e-13 1.05273e-05 -2.65668e-13 5.25075e-10 1.04467e-07 
0 0 0 -0.00158153 3.55752e-10 0.00161301 0 776 18 -1.57615e-16 1.05196e-05 1.60743e-16 5.24825e-10 1.04417e-07 
0 0 0 0.00186464 -0.00114382 -0.000909214 0 776 4248 -1.87696e-06 3.28096e-05 1.81322e-06 9.1591e-10 1.82235e-07 
0 0 0 0.0174635 -1.66433e-11 0.0270478 0 776 4185 -7.43245e-17 1.05196e-05 -1.15268e-16 5.24825e-10 1.04417e-07 
0 0 0 -0.00513818 -3.36971e-09 0.0042248 0 776 4938 4.8553e-15 1.05196e-05 -3.99225e-15 5.24825e-10 1.04417e-07 
0 0 0 0.00186378 6.31729e-05 -0.00373641 0 776 6544 -2.27226e-08 1.21345e-05 9.48574e-09 5.90597e-10 1.17504e-07 
0 0 0 0.0323129 1.628e-09 0.01194 0 776 10360 1.46403e-14 1.05196e-05 5.40975e-15 5.24825e-10 1.04417e-07 
0 0 0 0.0061117 -3.28672e-08 -0.000895021 0 776 9715 -5.50364e-14 1.052e-05 8.47946e-15 5.24831e-10 1.04419e-07 
0 0 0 -0.00601735 -4.58219e-06 0.00193369 0 776 4095 9.28165e-12 1.05623e-05 1.20881e-11 5.25255e-10 1.04503e-07 
0 0 0 0.000913747 4.96419e-10 0.0044412 0 776 1036 1.2917e-16 1.05195e-05 6.27879e-16 5.24824e-10 1.04417e-07 
0 0 0 0.0323635 -8.19097e-07 0.0169774 0 776 12691 -7.6565e-12 1.0554e-05 -3.7908e-12 5.25793e-10 1.0461e-07 
0 0 0 -0.00509614 -4.09012e-05 0.00225661 0 776 1367 2.75485e-06 1.3118e-05 3.36158e-06 5.99496e-10 1.19275e-07 
0 0 0 0.00182401 0.000346145 -0.0022063 0 776 7185 1.70676e-06 9.95326e-06 4.67481e-06 5.81351e-10 1.15664e-07 
0 0 0 0.00138315 -9.48667e-05 -0.00211714 0 776 4532 4.73054e-07 1.21866e-05 2.8753e-06 5.58863e-10 1.1119e-07 
0 0 0 0.00877267 -0.00370584 0.0246371 0 776 8603 -3.33179e-05 0.000363655 -0.000178749 5.12223e-09 1.01968e-06 
0 0 0 0.00361538 -5.44524e-12 -0.00668556 0 776 3427 6.06803e-19 1.05196e-05 1.21492e-18 5.24825e-10 1.04417e-07 
0 0 0 0.0012291 -0.000274421 -6.10614e-05 0 776 1118 -1.56496e-06 9.56614e-06 -4.23289e-06 4.32328e-10 8.60136e-08 
0 0 0 -0.00878272 1.94414e-07 0.00208306 0 776 3983 2.44428e-12 1.04917e-05 9.91744e-12 5.23939e-10 1.04241e-07 
0 0 0 0.00215802 -9.2186e-09 0.00513172 0 776 9279 -5.50949e-15 1.05195e-05 -1.31014e-14 5.24821e-10 1.04417e-07 
0 0 0 -0.00178276 6.51817e-06 -0.00287519 0 776 7431 1.56628e-09 1.06789e-05 -1.39379e-09 5.31519e-10 1.05749e-07 
0 0 0 -2.90885e-05 -2.85483e-05 -0.00196247 0 776 1366 2.70503e-07 1.01913e-05 5.29069e-07 5.07637e-10 1.00998e-07 
0 0 0 0.00189474 0.000197885 -0.00312875 0 776 4164 2.46082e-06 1.1036e-05 1.27011e-06 5.84338e-10 1.16259e-07 
0 0 0 0.0231753 -4.46211e-08 0.0180455 0 776 7286 -2.91428e-13 1.05201e-05 -2.2692e-13 5.24834e-10 1.04419e-07 
0 0 0 -0.00247204 -2.39396e-08 -0.00655327 0 776 1887 1.61825e-14 1.05191e-05 4.28994e-14 5.24803e-10 1.04413e-07 
0 0 0 -0.0487423 -0.0246551 0.131892 0 779 8467 4.62646e-06 1.05898e-05 -3.69673e-07 5.1885e-10 1.03229e-07 
0 0 0 0.00327413 0.000308903 0.00581982 0 777 4413 -1.31158e-06 1.71321e-06 3.4942e-06 2.46045e-10 4.89506e-08 
0 0 0 0.0165649 -3.12074e-09 0.00911514 0 777 3837 -1.41114e-14 1.05195e-05 -7.76497e-15 5.24822e-10 1.04417e-07 
0 0 0 0.0416456 9.70495e-05 0.0285285 0 777 12917 6.76286e-08 1.17201e-05 2.96463e-07 5.84656e-10 1.16322e-07 
0 0 0 0.024391 -7.72214e-05 0.00679901 0 777 2015 1.90776e-07 5.91954e-06 -4.02539e-07 3.39334e-10 6.75112e-08 
0 0 0 0.0198727 -4.95486e-06 0.00491607 0 777 15272 -2.71952e-11 1.04831e-05 -6.72752e-12 5.22538e-10 1.03962e-07 
0 0 0 0.0187791 0.000139022 0.015543 0 777 12116 -2.40991e-06 1.20087e-05 -9.40937e-07 6.02676e-10 1.19908e-07 
0 0 0 0.015258 -1.66036e-05 0.0077417 0 777 10496 -6.59669e-06 1.3237e-05 -5.3679e-07 6.0824e-10 1.21015e-07 
0 0 0 0.00824653 -1.87496e-05 0.0363992 0 777 7764 -4.5125e-11 1.05026e-05 -1.90122e-10 5.20203e-10 1.03498e-07 
0 0 0 0.00620467 -3.21261e-07 0.0413329 0 777 9160 -5.57715e-13 1.05156e-05 -3.66202e-12 5.24625e-10 1.04378e-07 
0 0 0 0.00537615 1.38327e-05 0.0140121 0 777 5953 -9.28009e-09 9.55871e-06 4.02918e-09 4.95403e-10 9.85634e-08 
0 0 0 0.00708106 -1.4541e-06 -0.00243907 0 777 14256 -5.59416e-12 1.04518e-05 -4.28746e-12 5.22253e-10 1.03906e-07 
0 0 0 -0.00660721 -0.000966388 -0.00712331 0 775 2116 1.91442e-06 7.938e-06 1.78194e-06 5.00045e-10 9.9487e-08 
0 0 0 -0.000553354 -0.00103892 -0.00551477 0 775 3998 -3.05193e-06 1.15648e-05 -2.02421e-06 5.62984e-10 1.1201e-07 
0 0 0 0.000664143 -0.000524414 -0.00225185 0 775 9210 -6.41012e-06 1.05624e-05 9.52791e-06 4.37249e-10 8.69926e-08 
0 0 0 0.0051608 -8.6178e-05 -0.00171006 0 775 5900 1.37644e-06 1.3669e-05 3.77355e-06 6.44474e-10 1.28224e-07 
0 0 0 0.00119657 -0.00041002 -0.00191439 0 775 1890 -4.23399e-06 1.26773e-05 1.05529e-05 5.13821e-10 1.02228e-07 
0 0 0 0.00148855 -0.000722545 -0.00227666 0 775 10907 -4.50361e-06 1.47477e-05 2.69572e-06 5.74817e-10 1.14364e-07 
0 0 0 0.0054374 -0.0001981 -0.00105146 0 775 6574 -2.30261e-12 1.026e-05 -1.3559e-06 5.1832e-10 1.03123e-07 
0 0 0 -0.000431186 2.65879e-05 2.07663e-05 0 775 1749 -1.60555e-06 1.23078e-05 2.71002e-06 5.64931e-10 1.12397e-07 
0 0 0 0.00408185 -0.00097866 -0.0052466 0 775 3630 -2.13074e-07 5.09923e-06 -6.03873e-07 3.25389e-10 6.47367e-08 
0 0 0 0.0007953 -0.000166543 -0.000538361 0 775 11044 -8.30152e-07 1.15133e-05 -2.84172e-06 5.54104e-10 1.10243e-07 
0 0 0 -1.29113e-05 -7.5913e-05 -0.000456936 0 839 5113 5.3806e-07 1.76482e-07 1.07612e-06 6.77344e-11 1.34754e-08 
0 0 0 -0.000182912 -0.000237958 0.00140888 0 832 7937 2.81896e-05 1.95104e-06 -3.56836e-06 9.78885e-10 1.94767e-07 
0 0 0 -0.000433298 -5.62993e-05 -0.000363067 0 832 1972 2.14508e-06 2.21347e-06 3.94992e-06 6.58164e-11 1.30939e-08 
0 0 0 -0.000558588 -5.13359e-05 -0.00049896 0 774 2641 -7.13099e-08 9.3992e-06 -8.21766e-07 4.95649e-10 9.86122e-08 
0 0 0 -1.29113e-05 -7.5913e-05 -0.000456936 0 774 5113 4.86195e-07 1.00582e-05 -1.08468e-06 5.12347e-10 1.01935e-07 
0 0 0 0.000164338 4.01486e-07 5.85143e-05 0 774 210 -4.85508e-08 9.50835e-06 -1.40167e-06 4.9164e-10 9.78146e-08 
0 0 0 -0.00140852 0.000514957 0.00255553 0 774 3865 1.93887e-07 9.1781e-06 -1.20053e-06 4.89536e-10 9.73961e-08 
0 0 0 0.000128213 3.72954e-05 -0.000735465 0 774 4325 -3.8434e-07 1.03474e-05 -1.80242e-06 5.61438e-10 1.11702e-07 
0 0 0 -0.00399661 -0.000352676 -0.00194793 0 774 3869 7.09361e-06 1.46239e-05 -5.84375e-06 6.80346e-10 1.35362e-07 
0 0 0 0.000329387 -7.11537e-05 -0.000737257 0 774 1165 4.86702e-08 9.76208e-06 -1.27201e-06 5.15962e-10 1.02654e-07 
0 0 0 -0.00275977 -0.00100751 -0.00678505 0 774 9441 2.44759e-08 6.51016e-06 4.77019e-07 4.33708e-10 8.6288e-08 
0 0 0 0.00114055 -0.000377348 -0.00201754 0 774 8682 -6.57872e-14 1.02639e-05 -1.35673e-06 5.1874e-10 1.03207e-07 
0 0 0 -0.00666354 -0.00123812 -0.00662335 0 774 6076 6.78477e-17 1.02659e-05 -1.35713e-06 5.18851e-10 1.03229e-07 
0 0 0 -0.00261053 -0.00118409 -0.00652067 0 774 4050 4.11796e-06 1.52966e-05 2.81361e-05 5.10351e-10 1.01538e-07 
0 0 0 -0.00267891 -0.00252863 -0.0138574 0 774 5875 -1.62936e-09 1.08715e-05 -1.48277e-06 5.52385e-10 1.09901e-07 
0 0 0 0.000944328 2.30479e-05 8.82195e-05 0 774 3081 6.85187e-08 1.0693e-05 -2.41718e-06 5.40596e-10 1.07555e-07 
0 0 0 -0.000138434 -8.58528e-05 -4.05937e-05 0 774 1541 -5.73951e-06 1.10307e-05 -5.51909e-06 5.52091e-10 1.09843e-07 
0 0 0 0.00320355 0.000154151 0.00168332 0 774 3877 7.3281e-08 1.04581e-05 -1.59716e-06 4.92507e-10 9.79871e-08 
0 0 0 -0.00286806 -0.00172645 -0.00882683 0 774 7002 -2.43043e-08 1.0801e-05 -1.54033e-06 5.21245e-10 1.03705e-07 
0 0 0 0.00264465 -0.0016298 -0.00896708 0 774 12874 -2.56377e-09 1.01358e-05 -1.32782e-06 5.24314e-10 1.04316e-07 
0 0 0 0.00232744 -0.00155052 -0.00836625 0 774 9650 -1.7786e-07 1.13965e-05 -1.69211e-06 5.60187e-10 1.11453e-07 
0 0 0 0.00863559 -0.0024393 -0.0130491 0 774 13214 -2.38821e-17 1.02659e-05 -1.35713e-06 5.18851e-10 1.03229e-07 
0 0 0 0.00194777 8.50776e-05 -0.000397763 0 774 11656 -9.95627e-07 2.98534e-06 -2.96873e-06 2.91785e-10 5.80508e-08 
0 0 0 -0.011394 -0.000223401 -0.00186722 0 774 7843 -2.74537e-07 7.66467e-06 -2.25022e-06 4.63361e-10 9.2188e-08 
0 0 0 4.72387e-05 -7.91674e-05 -0.000237778 0 839 10425 5.45322e-07 4.51383e-08 2.68899e-07 8.96776e-11 1.7841e-08 
0 0 0 0.0457059 5.14499 3.00184 0 946 17575 4.22825e-05 -0.00485122 0.00750351 2.0246e-08 4.03801e-06 
0 0 0 4.72387e-05 -7.91674e-05 -0.000237778 0 774 10425 -1.76322e-07 1.02775e-05 -8.97201e-07 5.08987e-10 1.01266e-07 
0 0 0 0.00835198 -0.000395148 -0.00219315 0 774 7315 -1.93309e-08 9.84671e-06 -1.14126e-06 5.06816e-10 1.00834e-07 
0 0 0 0.00111703 -0.000427026 -0.000982066 0 774 2858 1.31332e-06 1.13444e-05 5.07709e-07 4.91244e-10 9.77358e-08 
0 0 0 0.0120676 -0.00112058 -0.00646921 0 774 5016 -2.34655e-07 9.32852e-06 -4.96054e-07 5.01359e-10 9.97485e-08 
0 0 0 0.0164467 -0.00154401 -0.00825908 0 774 5294 -5.26947e-13 1.02653e-05 -1.35702e-06 5.18807e-10 1.0322e-07 
0 0 0 0.00713524 -0.0110739 -0.0592401 0 774 13605 -2.74556e-19 1.02659e-05 -1.35713e-06 5.18851e-10 1.03229e-07 
0 0 0 -0.0107133 -0.00737131 -0.0393871 0 774 13272 2.46875e-11 1.01613e-05 -1.3361e-06 5.13444e-10 1.02153e-07 
0 0 0 -0.00126168 -0.00102243 -0.00454172 0 774 11158 7.05831e-09 8.24955e-06 -9.61785e-07 4.09241e-10 8.142e-08 
0 0 0 -0.00429858 -0.00241851 -0.012869 0 774 8267 2.41871e-07 1.00819e-05 -1.25585e-06 5.09404e-10 1.01349e-07 
0 0 0 0.0195637 -0.0129203 -0.0691174 0 774 2150 9.02387e-19 1.02659e-05 -1.35713e-06 5.18851e-10 1.03229e-07 
0 0 0 0.0203566 -0.00312063 -0.0163937 0 774 14998 -2.36197e-07 8.88601e-06 -1.28299e-06 4.59688e-10 9.14572e-08 
0 0 0 0.0249257 -0.0054842 -0.0295215 0 774 16108 -4.3883e-10 1.07603e-05 -1.45597e-06 5.42849e-10 1.08004e-07 
0 0 0 0.0266828 -0.0053299 -0.0285014 0 774 3491 3.29287e-10 1.01837e-05 -1.34127e-06 5.15607e-10 1.02583e-07 
0 0 0 -0.0698231 -0.0115075 -0.0615598 0 774 9854 -2.76546e-18 1.02659e-05 -1.35713e-06 5.18851e-10 1.03229e-07 
0 0 0 -0.0379161 -0.00254892 -0.0136322 0 774 10569 5.26207e-12 1.02725e-05 -1.35838e-06 5.18945e-10 1.03247e-07 
0 0 0 0.000899868 -3.14512e-05 6.78988e-05 0 774 6493 2.07948e-08 1.04982e-05 -1.42071e-06 5.17467e-10 1.02953e-07 
0 0 0 -0.032517 -0.000472901 -0.00254601 0 774 6053 -2.74276e-10 1.02616e-05 -1.35797e-06 5.19362e-10 1.0333e-07 
0 0 0 -0.340384 0.212707 0.0814959 0 884 12609 9.15714e-05 0.000226657 -8.10978e-05 1.13747e-08 2.26613e-06 
0 0 0 0.00393354 0.00793847 0.00679653 0 884 14529 -9.67058e-06 5.76815e-06 1.93957e-05 2.05663e-09 4.09258e-07 
0 0 0 0.00275878 -0.000178912 0.00654513 0 884 3353 -8.71545e-07 -2.61712e-05 5.23715e-05 2.59804e-09 5.1703e-07 
0 0 0 0.00235304 0.00169582 0.000984557 0 884 2873 -7.96141e-05 3.55184e-06 0.000260171 4.5776e-09 9.11204e-07 
0 0 0 -5.21175e-124 7.54224e-20 4.72349e-12 0 884 5230 -6.29855e-125 5.25978e-06 -1.62002 1.22522e-06 0.0003 
0 0 0 0.00376024 -0.0589579 -0.0020432 0 884 13070 -1.29007e-05 0.000405268 0.00126816 1.25896e-08 2.50855e-06 
0 0 0 0.019743 -0.0586573 0.000724146 0 884 13505 -2.95639e-05 -0.000102474 0.000416222 6.17451e-09 1.22932e-06 
0 0 0 -0.0297596 -0.0064043 -0.00217742 0 884 15744 5.28488e-05 -6.33176e-05 0.000392645 5.60028e-09 1.11492e-06 
0 0 0 0.00621631 0.0134196 -0.000304772 0 884 9048 -1.40314e-06 -1.29501e-06 3.81882e-06 1.89459e-10 3.76925e-08 
0 0 0 -0.048114 0.00446504 0.0111877 0 884 13868 -2.72018e-06 -5.24634e-05 0.000190982 5.10694e-09 1.01664e-06 
0 0 0 -0.115851 0.217169 0.00316222 0 884 16089 3.82224e-05 -7.83588e-05 0.000174368 3.83862e-09 7.64034e-07 
0 0 0 -0.00204268 -0.00428395 0.00422866 0 884 3289 5.13127e-05 -4.05375e-05 0.000130787 3.41554e-09 6.79788e-07 
0 0 0 -0.00516009 0.00708269 -0.0143219 0 884 1137 -3.73594e-05 -5.49671e-05 0.000122293 7.84691e-10 1.56125e-07 
0 0 0 8.60285e-15 -2.01776e-14 -5.8979e-12 0 884 3064 1.76888e-16 5.25978e-06 -1.62002 1.22522e-06 0.0003 
0 0 0 0.000412584 0.0118047 0.00167065 0 884 10179 1.09876e-05 2.53109e-06 7.17731e-05 2.14985e-09 4.27813e-07 
0 0 0 3.15414e-302 -5.20497e-23 -4.72346e-12 0 884 871 -5.63092e-308 5.25978e-06 -1.62002 1.22522e-06 0.0003 
0 0 0 1.43615e-60 -5.64273e-20 -5.89796e-12 0 884 1962 1.21289e-61 5.25978e-06 -1.62002 1.22522e-06 0.0003 
0 0 0 -0.0158451 -0.0146522 -0.000268464 0 884 9552 1.14995e-05 0.000291816 5.05307e-05 1.44922e-09 2.88366e-07 
0 0 0 -0.0138477 -0.0081162 0.000564681 0 884 7829 9.84529e-05 -3.01046e-05 0.000426264 6.25307e-09 1.24498e-06 
0 0 0 0.00165265 -0.00821914 0.00265209 0 884 2992 -6.24875e-05 4.01149e-05 0.000188578 3.94779e-09 7.85773e-07 
0 0 0 0.00586103 0.00716197 0.00174777 0 884 10434 -4.05802e-05 -4.25239e-05 0.000117559 2.87538e-09 5.72243e-07 
0 0 0 -0.240432 0.194552 -0.00583025 0 884 8097 0.00396805 -0.00228877 0.000757241 8.45489e-09 1.68382e-06 
0 0 0 -4.46918e-18 -4.55847e-17 -4.72335e-12 0 884 2565 -0.000366504 -0.00331085 -1.61968 1.22509e-06 0.000299958 
0 0 0 3.08863e-261 6.61322e-20 -1.1814e-12 0 884 2145 1.74392e-262 5.25978e-06 -1.62002 1.22522e-06 0.0003 
0 0 0 -0.0226373 0.17142 0.00850995 0 884 12850 3.4265e-06 -2.10632e-05 -4.26802e-05 7.43433e-10 1.47915e-07 
0 0 0 0.0030018 0.0141992 0.000782428 0 884 13987 2.29723e-05 -0.000341062 0.000315068 5.1547e-09 1.02615e-06 
0 0 0 0.00667855 -0.00240213 0.00421413 0 884 3704 -6.96785e-06 3.40503e-06 -1.55107e-05 5.99373e-10 1.1925e-07 
0 0 0 -0.000228497 0.0242485 -5.2924e-05 0 884 10308 3.70582e-06 -3.78926e-06 1.06003e-05 5.16067e-10 1.02675e-07 
0 0 0 1.77857e-302 9.43841e-21 -3.53497e-12 0 884 7394 8.57036e-307 5.25978e-06 -1.62002 1.22522e-06 0.0003 
0 0 0 0.0749214 0.262031 -0.0414562 0 884 16569 -0.000673954 -0.00496502 0.00179688 1.23437e-08 2.45949e-06 
0 0 0 -0.000988293 -0.00125428 -0.00217212 0 884 13549 -4.05195e-06 4.9662e-06 1.2819e-05 1.76603e-10 3.51348e-08 
0 0 0 -0.0236125 0.0111533 -0.00203822 0 884 10074 -2.84189e-05 6.02706e-05 0.000303793 4.68583e-09 9.3276e-07 
0 0 0 4.25843e-07 0.0135691 -0.00318586 0 884 5627 0.000104118 -0.000305771 0.000101293 1.9035e-09 3.7878e-07 
0 0 0 -6.18936e-115 6.58671e-20 -1.18143e-12 0 884 3089 -2.52793e-117 5.25978e-06 -1.62002 1.22522e-06 0.0003 
0 0 0 -4.23565e-302 4.70808e-20 -2.3606e-12 0 884 1269 5.90409e-308 5.25978e-06 -1.62002 1.22522e-06 0.0003 
0 0 0 -0.0840998 0.373439 0.0498541 0 884 3546 -0.000429619 -0.000833103 0.00347827 2.90897e-08 5.8083e-06 
0 0 0 -0.0170154 -0.0111101 -0.0207031 0 884 10778 0.000111643 -0.000225807 0.000424891 3.78734e-09 7.53822e-07 
0 0 0 0.140348 0.0979016 0.069988 0 884 17392 -0.000726706 0.000200719 0.00150783 2.08942e-08 4.16763e-06 
0 0 0 0.0827994 0.16502 -0.00934805 0 884 2425 -0.00014747 -0.000676655 0.00138508 1.26671e-08 2.52401e-06 
0 0 0 0.0102701 0.0240426 0.00291269 0 884 16566 2.30168e-05 0.000230157 0.00208537 1.80647e-08 3.60196e-06 
0 0 0 0.016045 0.0197549 0.0012892 0 884 13204 1.63957e-05 -0.000162991 0.000327627 5.34929e-09 1.06492e-06 
0 0 0 -5.39153e-136 2.82096e-20 4.72342e-12 0 884 7839 4.41558e-137 5.25978e-06 -1.62002 1.22522e-06 0.0003 
0 0 0 -0.0249395 0.00548066 -0.00715386 0 884 1828 -0.000420105 -3.29389e-05 0.00156497 1.40388e-08 2.79783e-06 
0 0 0 -0.00295017 -0.00305439 -0.00504783 0 884 4860 -1.44819e-05 2.86274e-05 3.73382e-05 3.9222e-10 7.80336e-08 
0 0 0 0.00246315 -0.0118392 -0.00304987 0 884 6770 -6.6168e-05 2.22005e-05 0.000150336 2.66672e-09 5.30702e-07 
0 0 0 -0.0139461 0.0698798 -0.0150177 0 884 2270 9.60987e-05 -0.000191942 0.00042931 4.47684e-09 8.91135e-07 
0 0 0 0.00556394 -0.00771022 -0.00196477 0 884 14585 -7.85465e-05 -6.65644e-05 0.000205916 3.5516e-09 7.06881e-07 
0 0 0 -0.00103467 0.0113389 0.00188961 0 884 6883 -5.03197e-06 -2.3227e-05 8.2766e-07 6.2508e-10 1.24365e-07 
0 0 0 0.00840921 -0.000928639 -0.00538885 0 884 65 -6.78518e-05 -8.43531e-05 0.00140105 1.31505e-08 2.6205e-06 
0 0 0 -7.83824e-06 -0.000168161 0.000391551 0 884 5274 1.15833e-05 2.35588e-05 -1.62 1.2252e-06 0.000299995 
0 0 0 0.0628662 -0.0295918 -0.0464714 0 884 9089 -0.000918788 0.00075655 0.00238037 1.53969e-08 3.069e-06 
0 0 0 0.0650514 -0.00458923 -0.002678 0 884 10710 0.000220531 8.65108e-05 0.000660761 7.99486e-09 1.59211e-06 
0 0 0 0.0353347 -0.0253385 0.000544525 0 884 6549 -1.39871e-06 3.76621e-07 2.89706e-06 3.66398e-10 7.28958e-08 
0 0 0 0.000171576 0.0168966 0.00137777 0 884 677 2.20561e-05 -0.000315442 7.80435e-05 2.20932e-09 4.39651e-07 
0 0 0 -4.59516e-13 7.36362e-12 -5.30413e-12 0 884 2130 0.0556393 0.00302172 -1.61659 1.22389e-06 0.000299576 
0 0 0 -0.00885264 0.00336327 0.00164774 0 884 2189 -0.000181647 7.43677e-05 4.46285e-05 1.65496e-09 3.29311e-07 
0 0 0 0.0641581 -0.0391386 -0.0273738 0 884 1296 -0.000329521 -0.000780014 0.00169352 1.29752e-08 2.58551e-06 
0 0 0 0.0247549 0.0251844 0.00452797 0 884 5395 -7.71844e-06 -3.73533e-06 1.71496e-05 1.60171e-09 3.18713e-07 
0 0 0 -0.00436969 -0.00290045 -0.000546818 0 884 7884 9.93283e-06 6.56956e-06 2.31725e-05 7.84815e-10 1.56149e-07 
0 0 0 4.59418e-13 -7.36362e-12 -5.30793e-12 0 884 4708 -0.0634898 -0.00343681 -1.62346 1.22655e-06 0.000300424 
0 0 0 -0.0115546 0.000933583 0.00190576 0 884 5839 5.61764e-05 5.01768e-06 0.00016883 3.59751e-09 7.16023e-07 
0 0 0 -6.90947e-15 2.66276e-18 2.299e-18 0 863 2723 -1.61852 0.00940664 2.20635e-05 1.22464e-06 0.000299814 
0 0 0 -6.96705e-15 5.78771e-17 2.62044e-19 0 863 4560 -1.62152 -0.013102 -2.92936e-05 1.2258e-06 0.000300186 
0 0 0 2.33011e-15 4.62991e-20 -2.06418e-302 0 862 444 -1.62002 5.25978e-06 2.62452e-307 1.22522e-06 0.0003 
0 0 0 -6.83678e-15 4.54174e-19 -2.56962e-18 0 862 927 -1.62002 9.34591e-05 -8.55294e-07 1.22522e-06 0.0003 
0 0 0 0.0145964 0.112758 0.0157055 0 854 17370 -8.33588e-05 -8.3682e-07 6.35608e-06 1.0396e-09 2.06849e-07 
0 0 0 0.00466648 0.00771143 -0.0248287 0 854 3888 0.000112814 2.54221e-05 5.03536e-05 3.22936e-09 6.4272e-07 
0 0 0 -0.00049548 -0.0335206 -0.005157 0 854 16149 0.000366481 -2.64083e-05 -6.8673e-05 5.53543e-09 1.102e-06 
0 0 0 0.0140087 -0.0449257 -0.059068 0 854 5439 -8.02476e-05 3.16184e-05 4.02173e-06 9.39776e-10 1.86984e-07 
0 0 0 0.00640741 -0.00982131 -0.0352882 0 854 14531 0.000638717 0.000139506 0.000287277 8.79773e-09 1.75217e-06 
0 0 0 0.00479676 0.00847679 -0.00671476 0 854 14860 0.000316229 -2.08605e-05 0.000157473 5.6588e-09 1.12658e-06 
0 0 0 -0.0875275 0.0608714 -0.0690917 0 854 10558 0.00171622 -0.00205705 0.00105857 7.76096e-09 1.54549e-06 
0 0 0 0.00441125 -0.000310002 0.00617013 0 854 12718 0.00042564 -4.81056e-05 5.92609e-05 6.69552e-09 1.33314e-06 
0 0 0 -0.0466063 -0.00112168 -0.0716843 0 854 4022 0.00164244 0.000757417 0.000317363 1.08814e-08 2.16771e-06 
0 0 0 0.0533022 0.282709 0.143727 0 854 4470 0.00128692 -0.00049595 0.000409969 1.80419e-08 3.59742e-06 
0 0 0 -0.000879807 -0.0163687 0.0105789 0 854 5216 0.000108853 -5.29736e-05 -1.24917e-05 2.36264e-09 4.7017e-07 
0 0 0 0.00739081 -0.0152098 0.0105984 0 854 10887 0.000109243 -1.99188e-05 -9.79135e-05 3.57259e-09 7.1106e-07 
0 0 0 0.0087068 -0.0574999 0.0122507 0 854 7902 -4.42423e-05 9.52233e-07 -8.47206e-06 7.32273e-10 1.45694e-07 
0 0 0 -0.0581136 0.0081596 0.0543751 0 854 13909 0.00125888 5.89652e-05 -0.000813879 7.16865e-09 1.42743e-06 
0 0 0 0.00210213 0.00406812 0.00197637 0 854 1196 -8.39596e-06 2.70406e-06 -3.21109e-06 1.52839e-10 3.0407e-08 
0 0 0 0.00498236 0.0235369 -0.0418223 0 854 4220 0.000290123 4.79062e-05 4.56826e-05 5.4074e-09 1.07649e-06 
0 0 0 -0.0119916 0.0731095 0.0284299 0 854 11753 0.000238529 -3.28571e-05 -0.000114649 2.67717e-09 5.32784e-07 
0 0 0 0.0287243 0.0612789 0.0683217 0 854 10297 0.00157649 -0.000436602 -0.000656283 1.7464e-08 3.48194e-06 
0 0 0 -0.00312921 0.0275037 -0.0045395 0 854 11430 0.000259666 -9.03205e-05 9.32674e-05 4.05079e-09 8.06285e-07 
0 0 0 2.96788e-05 0.0444484 0.102615 0 854 8785 0.00122574 -1.70302e-05 -0.000224584 1.25045e-08 2.49157e-06 
0 0 0 0.00900475 -0.0726409 0.1038 0 854 15632 0.000603095 5.94568e-05 -0.000141002 8.78596e-09 1.74983e-06 
0 0 0 -0.000869847 0.0428013 0.0019162 0 854 12907 1.24131e-05 -0.000323079 0.000114474 4.04214e-10 8.04199e-08 
0 0 0 0.00290421 -0.0324213 0.0237927 0 854 11676 0.000810419 0.000119337 -0.000220651 9.79556e-09 1.95114e-06 
0 0 0 0.00235304 0.00169582 0.000984557 0 854 2873 0.000404764 -8.08436e-05 7.06671e-05 6.25429e-09 1.24522e-06 
0 0 0 0.00756108 0.0214769 0.00096935 0 854 81 0.000127901 -1.90789e-06 -4.16692e-05 3.84667e-09 7.65637e-07 
0 0 0 0.00268375 -0.00235203 -0.0173026 0 854 8265 0.000251433 2.80748e-05 0.000245336 4.69448e-09 9.34482e-07 
0 0 0 0.00233819 0.0352556 -0.0063877 0 854 11931 0.000232363 -0.000261257 0.000102071 4.43159e-09 8.82122e-07 
0 0 0 0.00122204 -0.00788996 -0.0223339 0 854 6568 4.60426e-05 3.85284e-06 -1.20895e-05 1.61067e-09 3.20497e-07 
0 0 0 0.00221641 -0.00334744 0.00368756 0 854 8021 8.67417e-05 3.93025e-05 2.36445e-06 2.47861e-09 4.93255e-07 
0 0 0 0.00234811 -0.0677845 0.0686451 0 854 8634 0.000129114 -1.4527e-05 -6.39976e-05 3.12593e-09 6.22125e-07 
0 0 0 0.00122494 0.0297574 -0.0106139 0 854 14708 4.41512e-05 -5.30616e-06 1.30474e-05 1.57389e-09 3.13176e-07 
0 0 0 0.016182 -0.0109211 0.0598295 0 854 13802 0.000563374 -2.71309e-05 -5.43197e-05 9.24629e-09 1.84161e-06 
0 0 0 0.000950241 0.0626095 0.13592 0 854 12367 1.57223e-05 6.67242e-07 -1.22315e-05 8.7776e-10 1.74644e-07 
0 0 0 -0.000220886 0.00271715 -0.00687162 0 854 3429 0.00027376 -1.08537e-05 -6.82335e-05 4.57881e-09 9.11444e-07 
0 0 0 0.00652312 -0.00261923 0.0354544 0 854 5645 0.000107227 -2.90725e-05 -1.66906e-05 3.41958e-09 6.80594e-07 
0 0 0 0.00096626 0.00769357 0.0621352 0 854 4247 0.000146949 -0.000352065 -0.000732152 3.17782e-09 6.32457e-07 
0 0 0 0.011039 0.0239467 0.0927154 0 854 8853 -3.43438e-05 1.65568e-05 4.55507e-06 1.71724e-09 3.41707e-07 
0 0 0 -0.00917625 0.0121341 0.00676517 0 854 5499 5.4753e-05 6.16042e-06 -3.05982e-05 2.74382e-10 5.45884e-08 
0 0 0 0.00271662 0.020892 -0.0152927 0 854 2163 -8.86786e-06 -3.83604e-06 2.22362e-06 4.38507e-10 8.7243e-08 
0 0 0 0.000174847 0.00999656 0.00241686 0 854 7657 1.0786e-06 -4.81993e-07 2.41922e-07 1.6986e-10 3.37933e-08 
0 0 0 0.00189412 0.0132598 0.023399 0 854 5085 1.43008e-06 6.68969e-07 -2.52518e-07 6.47667e-10 1.2886e-07 
0 0 0 0.00429245 0.0100756 0.0170852 0 854 3386 -1.91493e-05 4.68914e-07 -1.48473e-08 3.94973e-10 7.85813e-08 
0 0 0 0.00130606 0.00390524 0.00884462 0 854 4773 -4.07281e-06 -6.59387e-07 -1.9267e-06 3.2308e-11 6.4275e-09 
0 0 0 -0.00127477 -0.0117882 0.0149634 0 854 6681 0.000857753 2.88139e-05 -5.32912e-05 9.72499e-09 1.93707e-06 
0 0 0 0.00116507 0.00717968 0.0419443 0 854 8525 0.000791018 -0.000192373 4.19595e-05 9.4621e-09 1.88464e-06 
0 0 0 0.0017104 0.0125256 -0.00577382 0 854 5545 0.000150047 -4.30556e-06 -2.19683e-05 3.32324e-09 6.6141e-07 
0 0 0 0.000787189 0.0790011 0.0128847 0 854 12013 8.04199e-05 -4.01596e-05 -2.01085e-06 2.15762e-09 4.29361e-07 
0 0 0 0.00247195 -0.0118751 0.00471448 0 854 11559 0.00018474 1.79099e-07 -1.76177e-05 3.87598e-09 7.71474e-07 
0 0 0 -0.00201177 -0.0102598 -0.00138357 0 854 3206 8.53145e-05 1.33962e-05 1.26986e-05 1.81142e-09 3.60451e-07 