ITEM: TIMESTEP
8850000
ITEM: NUMBER OF ENTRIES
283
ITEM: BOX BOUNDS ff ff ff
-0.01 0.45
-0.15 0.15
-0.08 0.1
ITEM: ENTRIES c_pwc[1] c_pwc[2] c_pwc[3] 
0 850 41 
0 885 41 
0 855 188 
0 854 987 
0 853 634 
0 852 1077 
0 852 490 
0 894 469 
0 852 438 
0 852 516 
0 855 449 
0 855 748 
0 936 850 
1 1861 146 
1 1874 146 
1 1873 146 
1 529 146 
1 530 146 
1 1883 146 
1 1889 146 
1 1842 146 
1 1828 146 
1 1827 146 
1 1830 146 
1 1831 146 
1 526 146 
1 541 146 
1 527 146 
1 1871 146 
1 1869 146 
1 1868 146 
1 1892 146 
1 1893 146 
1 1885 146 
0 948 1027 
0 961 154 
0 885 270 
0 885 48 
0 885 127 
0 885 52 
0 885 908 
0 885 276 
0 885 6 
0 885 79 
0 885 351 
0 885 45 
0 885 39 
0 885 393 
0 850 270 
0 850 48 
0 850 127 
0 850 52 
0 850 908 
0 850 276 
0 850 6 
0 850 79 
0 850 351 
0 850 45 
0 851 39 
0 851 393 
1 2698 752 
1 2717 752 
1 2685 752 
0 895 788 
0 895 294 
0 895 923 
0 884 203 
0 894 54 
0 894 901 
0 894 555 
0 894 417 
0 894 702 
0 894 635 
0 894 533 
0 894 137 
0 852 964 
0 895 947 
0 895 384 
0 917 696 
0 961 1029 
0 961 40 
0 753 1029 
0 753 40 
0 905 559 
0 886 15 
0 885 15 
0 850 15 
0 965 369 
0 853 684 
0 377 925 
0 393 187 
0 369 1097 
0 435 202 
0 433 1054 
0 408 733 
0 411 266 
0 385 894 
0 385 256 
0 379 35 
0 392 435 
0 389 1072 
0 369 1007 
0 398 1083 
0 399 180 
0 399 243 
0 395 615 
0 438 226 
0 436 982 
0 437 269 
0 431 666 
0 410 994 
0 408 1079 
0 406 528 
0 428 616 
0 422 228 
0 417 656 
0 415 405 
0 537 346 
0 535 782 
0 386 870 
0 384 209 
0 539 190 
0 394 208 
0 392 851 
0 521 843 
0 374 91 
0 553 59 
0 553 148 
0 553 38 
0 551 168 
0 547 134 
0 402 443 
0 402 637 
0 438 1102 
0 436 498 
0 583 943 
0 557 236 
0 575 1087 
0 575 325 
0 573 330 
0 428 107 
0 432 389 
0 569 885 
0 416 1 
0 412 743 
0 537 365 
0 533 170 
0 529 694 
0 527 57 
0 543 853 
0 541 100 
0 541 736 
0 539 412 
0 519 950 
0 519 837 
0 518 366 
0 524 89 
0 551 47 
0 550 101 
0 587 939 
0 587 1010 
0 561 484 
0 557 217 
0 562 158 
0 558 155 
0 558 217 
0 581 358 
0 575 227 
0 575 687 
0 569 218 
0 563 520 
0 570 98 
0 532 664 
0 532 106 
0 528 135 
0 533 770 
0 543 255 
0 520 17 
0 548 247 
0 590 87 
0 590 22 
0 588 470 
0 584 612 
0 562 418 
0 558 875 
0 582 840 
0 578 88 
0 578 608 
0 576 132 
0 574 153 
0 574 5 
0 564 858 
0 1059 643 
0 1059 428 
0 1057 280 
0 1053 312 
0 536 793 
0 530 477 
0 1071 143 
0 1071 537 
0 1065 642 
0 1051 611 
0 1049 259 
0 1047 66 
0 1077 241 
0 1077 913 
0 552 737 
0 1111 672 
0 588 319 
0 1109 31 
0 1109 487 
0 562 174 
0 560 25 
0 558 816 
0 1107 33 
0 1103 571 
0 1097 617 
0 582 578 
0 572 409 
1 2568 697 
0 1093 411 
0 1097 251 
0 1062 71 
0 1061 683 
0 1058 476 
0 1055 85 
0 1053 37 
0 1053 10 
0 1067 441 
0 1066 201 
0 1048 864 
0 1048 234 
0 1047 163 
0 1044 238 
0 1076 549 
0 1112 649 
0 1111 556 
0 1111 75 
0 1109 83 
0 1087 24 
0 1108 422 
0 1107 99 
0 1098 646 
0 1095 596 
0 1095 277 
0 1089 421 
0 1287 682 
0 1064 119 
0 1061 670 
0 1058 117 
0 1066 62 
0 1051 817 
0 1076 429 
0 1117 23 
0 1114 160 
0 1112 506 
0 1110 335 
0 1307 613 
0 1082 120 
0 1082 445 
0 1104 86 
0 1102 78 
0 1100 166 
0 1110 374 
0 1094 315 
0 1094 205 
0 1092 109 
0 1092 379 
0 1097 212 
0 1275 81 
0 1305 349 
0 1304 500 
0 1302 246 
0 1299 281 
0 1331 197 
0 1325 50 
0 1324 93 
0 1323 761 
0 1317 518 
0 91 67 
0 1328 408 
0 105 279 
0 161 32 
