ITEM: TIMESTEP
8550000
ITEM: NUMBER OF ENTRIES
262
ITEM: BOX BOUNDS ff ff ff
-0.01 0.45
-0.15 0.15
-0.08 0.1
ITEM: ENTRIES c_pwc[1] c_pwc[2] c_pwc[3] 
0 850 41 
0 885 41 
0 894 373 
0 884 865 
0 852 92 
0 852 872 
0 894 906 
0 894 291 
0 894 144 
0 894 151 
0 855 378 
1 1861 146 
1 1874 146 
1 1873 146 
1 1883 146 
1 529 146 
1 530 146 
1 1826 146 
1 1828 146 
1 1842 146 
1 1830 146 
1 1831 146 
1 1827 146 
1 1871 146 
1 1869 146 
1 1868 146 
1 1892 146 
1 1893 146 
1 1885 146 
1 527 146 
1 526 146 
1 541 146 
1 523 146 
0 945 1067 
1 2698 752 
1 2717 752 
1 2703 752 
1 2723 752 
1 2724 752 
1 2725 752 
0 885 270 
0 885 48 
0 885 127 
0 885 52 
0 885 908 
0 885 276 
0 885 6 
0 885 79 
0 885 351 
0 885 45 
0 885 39 
0 885 393 
0 850 270 
0 850 48 
0 850 127 
0 850 52 
0 850 908 
0 850 276 
0 850 6 
0 850 79 
0 850 351 
0 850 45 
0 851 39 
0 851 393 
0 895 679 
0 895 968 
0 895 718 
0 853 29 
0 894 655 
0 894 633 
0 894 766 
0 894 245 
0 894 799 
0 894 756 
0 894 183 
0 894 803 
0 894 1008 
0 895 836 
0 895 141 
0 853 133 
0 933 634 
0 945 1026 
0 961 1029 
0 961 40 
0 753 1029 
0 753 40 
0 886 15 
0 885 15 
0 850 15 
0 965 867 
0 887 995 
0 887 654 
0 893 1016 
0 893 626 
0 892 446 
0 892 645 
0 895 395 
0 888 324 
0 888 636 
0 888 342 
0 888 628 
0 379 498 
0 375 440 
0 389 454 
0 387 1069 
0 387 70 
0 369 187 
0 369 934 
0 369 38 
1 2611 532 
0 435 200 
0 435 241 
0 365 302 
0 407 942 
0 405 656 
0 415 804 
0 385 977 
0 381 914 
0 381 115 
0 368 269 
0 364 494 
0 369 559 
0 374 171 
0 402 14 
0 438 428 
0 436 851 
0 404 576 
0 409 925 
0 405 870 
0 403 501 
0 424 202 
0 422 191 
0 429 175 
0 421 191 
0 421 232 
0 419 371 
0 414 994 
0 417 765 
0 529 939 
0 529 858 
0 384 771 
0 378 243 
0 376 3 
0 388 266 
0 523 612 
0 585 568 
0 583 694 
0 557 134 
0 557 64 
0 410 330 
0 583 158 
0 575 401 
0 420 791 
0 569 59 
0 418 148 
0 416 982 
0 414 622 
0 535 57 
0 544 256 
0 525 168 
0 525 136 
0 524 691 
0 551 478 
0 547 793 
0 554 885 
0 585 411 
0 585 424 
0 517 218 
0 583 228 
0 559 585 
0 555 880 
0 555 217 
0 575 520 
0 573 365 
0 573 85 
0 571 155 
0 571 587 
0 571 132 
0 566 782 
0 536 599 
0 530 98 
0 528 687 
0 543 178 
0 516 743 
0 523 770 
0 521 106 
0 548 170 
0 591 444 
0 588 220 
0 584 1048 
0 517 569 
0 556 251 
0 582 320 
0 580 630 
0 576 936 
0 574 292 
0 572 227 
0 572 201 
0 570 87 
0 567 816 
0 1057 1010 
0 1055 90 
0 1071 46 
0 524 780 
0 1079 649 
0 1079 864 
0 548 398 
0 1087 617 
0 1109 611 
0 1105 75 
0 1099 99 
0 584 509 
0 1093 24 
0 1091 31 
0 566 664 
0 564 913 
0 1063 421 
0 1063 124 
0 1059 445 
0 1057 549 
0 1056 596 
0 1045 174 
0 1052 388 
0 1075 848 
0 1109 372 
0 1087 476 
0 1083 223 
0 1083 219 
0 1082 83 
0 1102 304 
0 1101 71 
0 1095 23 
0 1064 82 
0 1062 97 
0 1293 341 
0 1070 506 
0 1270 461 
0 1076 93 
0 1117 349 
0 1114 682 
0 1307 281 
0 1088 27 
0 1088 160 
0 1086 212 
0 1335 78 
0 1331 746 
0 1106 408 
0 1098 119 
0 1319 205 
0 1094 37 
0 1285 761 
0 1275 441 
0 1299 558 
0 1341 17 
0 1309 197 
0 1309 725 
0 1331 109 
0 1320 67 
0 159 152 
0 1296 500 
0 1312 32 
0 117 613 
