ITEM: TIMESTEP
8300000
ITEM: NUMBER OF ENTRIES
247
ITEM: BOX BOUNDS ff ff ff
-0.01 0.45
-0.15 0.15
-0.08 0.1
ITEM: ENTRIES c_pwc[1] c_pwc[2] c_pwc[3] 
0 932 815 
0 850 41 
0 885 41 
0 855 712 
0 855 814 
0 884 758 
0 854 730 
0 853 488 
0 853 758 
0 894 483 
0 894 784 
0 894 701 
0 894 655 
0 855 68 
0 855 551 
0 855 402 
1 2706 752 
1 2684 752 
1 2698 752 
1 2717 752 
1 2704 752 
1 2705 752 
1 2722 752 
0 942 775 
0 922 492 
1 1874 146 
1 1883 146 
1 1873 146 
1 1861 146 
1 529 146 
1 530 146 
1 1830 146 
1 1842 146 
1 1826 146 
1 1827 146 
1 1831 146 
1 1828 146 
1 526 146 
1 541 146 
1 527 146 
1 523 146 
1 1869 146 
1 1871 146 
1 1868 146 
1 1892 146 
1 1893 146 
1 1885 146 
0 885 270 
0 885 48 
0 885 127 
0 885 52 
0 885 908 
0 885 276 
0 885 6 
0 885 79 
0 885 351 
0 885 45 
0 885 39 
0 885 393 
0 850 270 
0 850 48 
0 850 127 
0 850 52 
0 850 908 
0 850 276 
0 850 6 
0 850 79 
0 850 351 
0 850 45 
0 851 39 
0 851 393 
0 853 686 
0 852 897 
0 915 656 
0 961 1029 
0 961 40 
0 753 1029 
0 753 40 
0 907 386 
0 897 867 
0 886 15 
0 885 15 
0 850 15 
0 385 1030 
0 385 200 
0 377 614 
0 375 975 
0 387 1028 
0 388 431 
0 366 275 
0 366 498 
0 395 914 
0 398 38 
0 435 666 
0 435 70 
0 407 495 
0 405 612 
0 415 757 
0 386 470 
0 376 501 
0 383 804 
0 369 266 
0 396 528 
0 397 302 
0 434 694 
0 437 935 
0 435 609 
0 410 64 
0 408 1007 
0 407 532 
0 422 600 
0 431 1010 
0 429 35 
0 425 362 
0 421 600 
0 412 838 
0 537 405 
0 531 269 
0 527 520 
0 384 134 
0 382 171 
0 380 576 
0 376 569 
0 390 925 
0 521 424 
0 368 132 
0 553 913 
0 396 180 
0 587 57 
0 583 939 
0 406 494 
0 422 484 
0 420 616 
0 533 136 
0 529 837 
0 527 135 
0 536 743 
0 530 793 
0 530 328 
0 545 85 
0 545 107 
0 521 622 
0 519 47 
0 551 256 
0 549 559 
0 547 691 
0 547 791 
0 547 771 
0 547 816 
0 550 371 
0 589 770 
0 585 853 
0 517 214 
0 517 282 
0 588 761 
0 586 780 
0 516 282 
0 555 5 
0 581 358 
0 575 346 
0 569 315 
0 569 605 
0 567 90 
0 570 411 
0 566 412 
0 536 255 
0 530 100 
0 530 485 
0 522 785 
0 522 885 
0 525 155 
0 521 209 
0 526 155 
0 526 401 
0 548 672 
0 591 101 
0 580 177 
0 578 478 
0 574 418 
0 570 87 
0 568 646 
0 1059 664 
0 546 75 
0 1049 238 
0 1045 587 
0 1045 81 
0 516 875 
0 1077 812 
0 1075 477 
0 1073 223 
0 1115 190 
0 1115 88 
0 1111 683 
0 1111 421 
0 1043 398 
0 1088 422 
0 1087 445 
0 1103 319 
0 576 106 
0 574 630 
0 1060 335 
0 1058 363 
0 1057 80 
0 1055 556 
0 1052 19 
0 1070 817 
0 1069 46 
0 1067 530 
0 1050 24 
0 1079 327 
0 1079 409 
0 1115 201 
0 1114 169 
0 1112 372 
0 1111 549 
0 1087 109 
0 1086 124 
0 1106 163 
0 1099 774 
0 1094 120 
0 1092 234 
0 1283 277 
0 1064 97 
0 1062 36 
0 1058 86 
0 1295 259 
0 1339 248 
0 1117 613 
0 1114 119 
0 1111 670 
0 1089 205 
0 1327 281 
0 1107 379 
0 1319 62 
0 1090 78 
0 1295 17 
0 1295 11 
0 1273 571 
0 1269 725 
1 1409 22 
0 1321 197 
0 95 32 
0 125 500 
0 1330 304 
0 77 23 
0 76 23 
0 108 152 
