ITEM: TIMESTEP
9900000
ITEM: NUMBER OF ENTRIES
299
ITEM: BOX BOUNDS ff ff ff
-0.01 0.45
-0.15 0.15
-0.08 0.1
ITEM: ENTRIES c_pwc[1] c_pwc[2] c_pwc[3] 
0 850 41 
0 885 41 
0 884 584 
0 884 756 
0 884 645 
0 854 836 
0 854 589 
0 854 674 
0 854 891 
0 854 598 
0 853 814 
0 852 317 
0 894 1081 
0 894 603 
0 894 1122 
0 894 343 
0 894 845 
0 855 455 
0 855 669 
0 855 1077 
0 855 192 
0 944 827 
0 945 827 
1 1861 146 
1 1874 146 
1 1873 146 
1 529 146 
1 530 146 
1 1883 146 
1 1889 146 
1 1828 146 
1 1842 146 
1 1827 146 
1 1830 146 
1 1831 146 
1 526 146 
1 541 146 
1 527 146 
1 1871 146 
1 1869 146 
1 1868 146 
1 1892 146 
1 1893 146 
1 1885 146 
1 2703 752 
1 2724 752 
1 2723 752 
1 2698 752 
1 2717 752 
1 2725 752 
0 955 1006 
0 885 270 
0 885 969 
0 885 48 
0 885 127 
0 885 52 
0 885 908 
0 885 276 
0 885 6 
0 885 79 
0 885 351 
0 885 45 
0 885 39 
0 885 393 
0 850 270 
0 850 969 
0 850 48 
0 850 127 
0 850 52 
0 850 908 
0 850 276 
0 850 6 
0 850 79 
0 850 351 
0 850 45 
0 851 39 
0 851 393 
0 962 978 
0 895 861 
0 895 164 
0 894 434 
0 894 764 
0 894 997 
0 894 1158 
0 894 440 
0 894 311 
0 894 962 
0 852 653 
0 895 575 
0 895 1009 
0 895 748 
0 895 618 
0 943 1239 
0 941 691 
0 940 386 
0 961 1029 
0 961 40 
0 753 1029 
0 753 40 
0 905 33 
0 886 15 
0 885 15 
0 850 15 
0 892 213 
0 888 1175 
0 378 3 
0 387 316 
0 387 431 
0 396 319 
0 435 1182 
0 365 435 
0 365 504 
0 409 1164 
0 403 221 
0 403 295 
0 429 477 
0 416 498 
0 384 371 
0 383 1013 
0 379 228 
0 390 1209 
0 388 464 
0 373 686 
0 402 783 
0 403 783 
0 435 612 
0 410 616 
0 410 1195 
0 409 615 
0 405 1171 
0 430 358 
0 430 547 
0 422 298 
0 431 1207 
0 421 298 
0 417 656 
0 411 470 
0 411 1151 
0 535 115 
0 529 409 
0 527 365 
0 386 106 
0 376 1157 
0 543 444 
0 543 31 
0 392 914 
0 390 700 
0 372 1085 
0 368 312 
0 368 101 
0 553 209 
0 551 218 
0 551 913 
0 398 1 
0 438 401 
0 438 202 
0 561 269 
0 559 387 
0 410 191 
0 408 330 
0 579 1030 
0 577 1083 
0 428 1145 
0 428 411 
0 416 180 
0 414 838 
0 537 87 
0 535 148 
0 529 622 
0 527 88 
0 538 722 
0 543 217 
0 541 689 
0 541 158 
0 521 994 
0 519 944 
0 518 412 
0 549 132 
0 549 864 
0 547 22 
0 554 694 
0 589 585 
0 583 893 
0 556 389 
0 583 1109 
0 581 804 
0 581 66 
0 575 134 
1 2621 1109 
0 567 35 
0 565 875 
0 568 454 
0 536 670 
0 534 822 
0 530 569 
0 544 500 
0 544 485 
0 540 187 
0 524 936 
0 520 977 
0 520 376 
0 520 97 
0 516 346 
0 521 89 
0 526 780 
0 554 921 
0 548 754 
0 590 328 
0 586 335 
0 586 837 
0 585 642 
0 558 341 
0 556 542 
0 582 1079 
0 582 242 
0 578 284 
0 573 388 
0 570 537 
0 566 1007 
0 564 1022 
0 571 1010 
0 1059 605 
0 1057 282 
0 1053 817 
0 1053 277 
0 1071 1087 
0 1069 98 
0 1069 81 
0 1067 599 
0 1065 205 
0 516 155 
0 554 219 
0 1043 737 
0 1087 528 
0 560 1048 
0 1109 168 
0 576 57 
1 2570 168 
0 1093 190 
0 1089 840 
0 572 925 
0 1060 532 
0 1059 13 
0 1059 37 
0 1058 281 
0 1057 367 
0 1057 530 
0 1071 853 
0 1070 5 
0 1065 25 
0 1065 93 
0 1051 408 
0 1050 248 
0 1079 82 
0 1078 90 
0 1077 90 
0 1117 1102 
0 1116 349 
0 1116 596 
0 1115 774 
0 1083 147 
0 1082 279 
0 1109 99 
0 1103 771 
0 1100 682 
0 1098 617 
0 1095 649 
0 1281 251 
0 1279 241 
0 1060 683 
0 1056 292 
0 1072 697 
0 1072 80 
0 1070 246 
0 1066 27 
0 1048 91 
0 1052 47 
0 1299 847 
0 1079 46 
0 1074 169 
0 1074 506 
0 1112 429 
0 1086 78 
0 1084 198 
0 1084 421 
0 1104 478 
0 1315 238 
0 1281 476 
0 1279 166 
0 1293 315 
0 1291 120 
0 1278 428 
0 1299 178 
0 1335 267 
0 1333 160 
0 1319 646 
0 161 24 
0 141 162 
0 99 441 
