ITEM: TIMESTEP
9550000
ITEM: NUMBER OF ENTRIES
297
ITEM: BOX BOUNDS ff ff ff
-0.01 0.45
-0.15 0.15
-0.08 0.1
ITEM: ENTRIES c_pwc[1] c_pwc[2] c_pwc[3] 
0 850 41 
0 885 41 
0 894 768 
0 852 1142 
0 894 934 
0 894 268 
0 894 291 
0 894 104 
0 894 1068 
0 852 369 
0 855 811 
0 855 625 
0 855 671 
0 855 65 
0 855 455 
1 2685 752 
1 2698 752 
1 2717 752 
1 2725 752 
1 2703 752 
1 2724 752 
1 2723 752 
1 529 146 
1 530 146 
1 1842 146 
1 1828 146 
1 1827 146 
1 1830 146 
1 1831 146 
1 1861 146 
1 1873 146 
1 1874 146 
1 1883 146 
1 1889 146 
1 526 146 
1 541 146 
1 527 146 
1 1871 146 
1 1868 146 
1 1869 146 
1 1892 146 
1 1885 146 
1 1893 146 
0 885 270 
0 885 969 
0 885 48 
0 885 127 
0 885 52 
0 885 908 
0 885 276 
0 885 6 
0 885 79 
0 885 351 
0 885 45 
0 885 39 
0 885 393 
0 850 270 
0 850 969 
0 850 48 
0 850 127 
0 850 52 
0 850 908 
0 850 276 
0 850 6 
0 850 79 
0 850 351 
0 850 45 
0 851 39 
0 851 393 
0 853 981 
0 894 775 
0 894 581 
0 894 778 
0 894 539 
0 894 517 
0 894 723 
0 894 772 
0 895 453 
0 895 889 
0 895 688 
0 935 763 
0 929 477 
0 939 1165 
0 947 547 
0 947 1022 
0 961 1029 
0 961 40 
0 753 1029 
0 753 40 
0 886 15 
0 885 15 
0 850 15 
0 891 213 
0 888 222 
0 389 439 
0 387 1117 
0 433 1106 
0 433 33 
0 409 1030 
0 407 1149 
0 407 1179 
0 407 1171 
0 405 705 
0 405 894 
0 404 880 
0 429 358 
0 415 813 
0 411 656 
0 384 678 
0 380 914 
0 391 365 
0 389 479 
0 364 1145 
0 373 687 
0 365 1145 
0 374 700 
0 395 431 
0 432 893 
0 408 115 
0 426 31 
0 429 180 
0 425 1164 
0 425 22 
0 419 191 
0 416 1177 
0 414 298 
0 411 3 
0 411 1069 
0 537 851 
0 535 366 
0 531 171 
0 531 187 
0 527 209 
0 384 59 
0 384 691 
0 382 743 
0 390 982 
0 388 498 
0 525 295 
0 519 269 
0 519 1128 
0 368 600 
0 400 232 
0 398 694 
0 398 616 
0 589 1157 
0 587 722 
0 585 226 
0 585 733 
0 585 134 
0 517 284 
0 438 795 
0 404 330 
0 577 611 
0 567 870 
0 565 202 
0 563 1085 
0 563 571 
0 414 686 
0 414 977 
0 533 622 
0 533 328 
0 533 319 
0 531 335 
0 529 424 
0 527 255 
0 538 1 
0 516 219 
0 551 664 
0 547 935 
0 587 1087 
0 517 520 
0 517 71 
0 588 605 
0 583 630 
0 583 614 
0 559 637 
0 558 411 
0 579 537 
0 575 148 
0 571 155 
0 580 312 
0 569 412 
0 536 569 
0 536 98 
0 534 1010 
0 532 242 
0 542 372 
0 520 282 
0 516 25 
0 525 944 
0 552 447 
0 550 565 
0 586 57 
0 584 444 
0 584 725 
0 517 87 
0 580 913 
0 578 943 
0 576 227 
0 574 376 
0 574 409 
0 564 950 
0 564 816 
0 1063 280 
0 1055 646 
0 1067 117 
0 542 281 
0 1049 259 
0 1047 736 
0 1079 1102 
0 1077 81 
0 1075 578 
0 1074 840 
0 1073 220 
0 1115 101 
0 1115 418 
0 1113 75 
0 1111 50 
0 1111 367 
0 1087 608 
0 1101 132 
0 1099 528 
0 1099 124 
0 572 817 
0 1095 921 
0 1091 13 
0 1091 168 
0 1089 599 
0 1062 152 
0 1057 162 
0 1055 97 
0 1053 135 
0 1070 83 
0 1068 422 
0 1050 405 
0 1050 822 
0 1047 682 
0 1045 494 
0 1042 177 
0 1080 847 
0 1116 90 
0 1115 429 
0 1087 67 
0 1085 205 
0 1084 251 
0 1084 939 
0 1084 119 
0 1107 683 
0 1102 349 
0 1096 793 
0 1095 476 
0 1094 649 
0 1094 667 
0 1091 770 
0 1090 277 
0 1089 642 
1 1387 667 
1 1388 667 
1 1392 667 
0 1281 241 
0 1056 93 
0 1049 445 
0 1046 530 
0 1046 78 
0 1301 166 
0 1080 670 
0 1074 66 
0 1117 100 
0 1116 421 
0 1043 100 
0 1042 100 
0 1313 62 
0 1311 198 
0 1084 23 
0 1084 428 
0 1084 153 
0 1083 428 
0 1206 160 
0 1335 315 
0 1106 160 
0 1110 292 
0 1094 848 
0 1287 363 
0 1277 484 
0 1275 10 
0 1272 163 
0 1303 613 
0 1301 32 
0 1329 487 
0 1320 19 
0 1317 109 
0 123 174 
0 119 37 
0 1334 94 
0 154 24 
0 119 11 
