ITEM: TIMESTEP
10900000
ITEM: NUMBER OF ENTRIES
330
ITEM: BOX BOUNDS ff ff ff
-0.01 0.45
-0.15 0.15
-0.08 0.1
ITEM: ENTRIES c_pwc[1] c_pwc[2] c_pwc[3] 
0 954 1365 
0 850 41 
0 850 480 
0 885 41 
0 885 480 
0 884 588 
0 862 381 
0 861 381 
0 854 928 
0 852 645 
0 894 268 
0 894 713 
0 894 767 
0 894 1290 
0 894 904 
0 894 769 
0 894 863 
0 894 1232 
0 852 1223 
0 855 317 
0 855 1215 
0 855 1002 
0 855 268 
0 855 650 
0 855 1229 
0 855 926 
0 855 1101 
0 854 892 
0 854 1149 
1 1831 146 
1 1828 146 
1 1827 146 
1 1842 146 
1 1830 146 
1 1892 146 
1 1893 146 
1 1885 146 
1 1861 146 
1 1874 146 
1 1873 146 
1 1883 146 
1 1889 146 
1 529 146 
1 530 146 
1 526 146 
1 527 146 
1 541 146 
1 1871 146 
1 1869 146 
1 1868 146 
1 2698 752 
1 2717 752 
1 2685 752 
0 885 270 
0 885 969 
0 885 48 
0 885 127 
0 885 52 
0 885 908 
0 885 276 
0 885 6 
0 885 1023 
0 885 79 
0 885 351 
0 885 45 
0 885 39 
0 885 393 
0 850 270 
0 850 969 
0 850 48 
0 850 127 
0 850 52 
0 850 908 
0 850 276 
0 850 6 
0 850 79 
0 850 351 
0 850 45 
0 851 39 
0 851 393 
0 895 755 
0 853 657 
0 853 949 
0 884 360 
0 894 777 
0 894 1093 
0 894 291 
0 894 287 
0 894 1295 
0 894 1306 
0 894 1222 
0 894 868 
0 852 993 
0 895 629 
0 895 1106 
0 895 455 
0 853 894 
0 853 1076 
0 939 1219 
0 961 1029 
0 961 40 
0 955 914 
0 753 1029 
0 753 40 
0 886 15 
0 885 15 
0 850 15 
0 893 1134 
0 888 1263 
0 892 1015 
0 888 159 
0 888 237 
0 853 235 
0 383 1315 
0 381 694 
0 379 839 
0 391 103 
0 387 880 
0 366 1217 
0 409 958 
0 409 439 
0 407 196 
0 413 982 
0 386 1177 
0 384 630 
0 378 609 
0 378 850 
0 376 852 
0 383 1030 
0 381 81 
0 377 1097 
0 375 852 
0 391 615 
0 391 1308 
0 370 1170 
0 367 901 
0 400 168 
0 439 307 
0 438 541 
0 433 180 
0 433 435 
0 408 404 
0 408 1336 
0 407 1165 
0 407 1192 
0 428 409 
0 420 1182 
0 421 425 
0 421 489 
0 411 36 
0 411 612 
0 537 542 
0 533 1035 
0 384 200 
0 382 1114 
0 380 722 
0 378 135 
0 376 569 
0 376 1069 
0 374 500 
0 545 201 
0 541 387 
0 521 1296 
0 368 424 
0 374 80 
0 402 1079 
0 583 221 
0 555 1269 
0 478 834 
0 410 38 
0 408 1171 
0 404 834 
0 404 581 
0 579 691 
0 426 122 
0 563 28 
0 418 686 
0 418 443 
0 537 571 
0 529 1112 
0 527 702 
0 538 853 
0 541 255 
0 523 876 
0 523 1241 
0 521 1010 
0 521 771 
0 519 547 
0 518 547 
0 516 349 
1 2638 506 
0 553 1246 
0 585 600 
0 559 22 
0 555 642 
0 558 793 
0 579 1145 
0 579 1164 
0 579 158 
0 577 1194 
0 575 521 
0 575 976 
0 573 1285 
0 582 247 
0 574 205 
0 567 810 
0 536 697 
0 534 37 
0 530 1216 
0 537 875 
0 535 31 
0 520 470 
0 519 170 
0 526 33 
0 552 464 
0 548 494 
0 547 363 
0 547 46 
0 591 148 
0 517 223 
0 556 292 
0 578 1 
0 578 1102 
0 572 88 
0 577 217 
0 571 1087 
0 568 1157 
0 1059 950 
0 1059 994 
0 1055 422 
0 1053 785 
0 1065 687 
0 1065 530 
0 1065 412 
0 540 851 
0 1049 605 
0 1049 169 
0 1047 611 
0 1044 57 
0 522 646 
0 1079 1085 
0 1079 1209 
0 1113 599 
0 1111 248 
0 588 115 
0 584 885 
0 1109 885 
0 1085 358 
0 1081 177 
0 1107 774 
0 1105 893 
0 1103 109 
0 1103 936 
0 1099 62 
0 580 335 
0 578 106 
0 1091 795 
0 1089 585 
0 1097 85 
0 1097 174 
0 1059 100 
0 1057 71 
0 1052 725 
0 1068 518 
0 1068 848 
0 1066 578 
0 1049 689 
0 1047 418 
0 1042 770 
0 1042 1048 
0 1043 1048 
0 1080 366 
0 1078 682 
0 1077 75 
0 1076 25 
0 1076 315 
0 1075 302 
0 1075 444 
0 1075 25 
0 1073 330 
0 1115 23 
0 1112 90 
0 1112 454 
0 1110 858 
0 1084 817 
0 1109 67 
0 1106 617 
0 1104 281 
0 1102 227 
0 1100 977 
0 1099 346 
0 1098 408 
0 1097 163 
0 1093 147 
0 1093 921 
0 1092 520 
0 1279 683 
0 1053 5 
0 1070 664 
0 1068 19 
0 1068 259 
0 1270 441 
0 1050 11 
0 1050 277 
0 1078 925 
0 1269 78 
0 1114 371 
0 1110 596 
0 1307 190 
0 1084 86 
0 1327 91 
0 1325 91 
0 1102 667 
0 1102 197 
0 1094 166 
0 1092 241 
0 1285 429 
0 1273 421 
0 1268 246 
0 1269 246 
0 1305 279 
0 1304 376 
0 1303 532 
0 1309 129 
0 1308 97 
0 1307 280 
0 1317 372 
0 76 487 
0 117 939 
0 1316 10 
