ITEM: TIMESTEP
8400000
ITEM: NUMBER OF ENTRIES
269
ITEM: BOX BOUNDS ff ff ff
-0.01 0.45
-0.15 0.15
-0.08 0.1
ITEM: ENTRIES c_pwc[1] c_pwc[2] c_pwc[3] 
0 926 1050 
0 952 369 
0 850 41 
0 910 634 
0 885 41 
0 911 634 
0 894 751 
0 852 922 
0 894 553 
0 854 416 
1 2698 752 
1 2717 752 
0 948 481 
1 529 146 
1 530 146 
1 1842 146 
1 1828 146 
1 1826 146 
1 1827 146 
1 1831 146 
1 1830 146 
1 1861 146 
1 1874 146 
1 1873 146 
1 1883 146 
1 526 146 
1 541 146 
1 527 146 
1 523 146 
1 1869 146 
1 1871 146 
1 1868 146 
1 1885 146 
1 1893 146 
1 1892 146 
0 954 464 
0 885 270 
0 885 48 
0 885 127 
0 885 52 
0 885 908 
0 885 276 
0 885 6 
0 885 79 
0 885 351 
0 885 45 
0 885 39 
0 885 393 
0 850 270 
0 850 48 
0 850 127 
0 850 52 
0 850 908 
0 850 276 
0 850 6 
0 850 79 
0 850 351 
0 850 45 
0 851 39 
0 851 393 
0 894 286 
0 894 245 
0 894 231 
0 894 679 
0 894 397 
0 894 141 
0 894 962 
0 852 799 
0 945 1051 
0 393 1051 
0 925 293 
0 919 942 
0 961 1029 
0 961 40 
0 753 1029 
0 753 40 
0 886 15 
0 885 15 
0 850 15 
0 393 187 
0 389 935 
0 390 154 
0 373 70 
0 437 994 
0 433 275 
0 433 528 
0 365 733 
0 365 914 
0 432 275 
0 407 519 
0 427 14 
0 425 215 
0 380 504 
0 378 612 
0 390 389 
0 371 431 
0 367 765 
0 366 837 
0 395 386 
0 438 470 
0 432 867 
0 433 754 
0 408 38 
0 409 581 
0 403 35 
0 421 532 
0 414 61 
0 537 371 
0 545 59 
0 545 1048 
0 388 115 
0 398 366 
0 398 689 
0 396 637 
0 436 600 
0 583 47 
0 561 520 
0 559 64 
0 559 214 
0 557 180 
0 408 542 
0 406 132 
0 581 148 
0 581 269 
0 573 858 
0 573 616 
0 424 454 
0 422 622 
0 422 85 
0 565 771 
0 563 822 
0 533 412 
0 529 89 
0 541 358 
0 541 1010 
0 542 770 
0 523 367 
0 523 599 
0 519 485 
0 518 494 
0 553 921 
0 553 217 
0 551 939 
0 517 218 
0 559 424 
0 559 894 
0 555 816 
0 560 136 
0 556 743 
0 581 605 
0 571 840 
0 572 280 
0 570 106 
0 570 100 
0 566 691 
0 564 569 
1 1344 691 
0 538 401 
0 536 780 
0 532 320 
0 532 565 
0 530 81 
0 528 251 
0 531 885 
0 540 298 
0 539 91 
0 522 687 
0 523 785 
0 519 98 
0 518 292 
0 518 282 
0 526 99 
0 554 325 
0 552 444 
0 549 672 
0 517 585 
0 560 568 
0 582 413 
0 582 135 
0 580 578 
0 578 418 
0 576 3 
0 576 28 
0 574 227 
0 573 147 
0 568 209 
0 567 615 
0 1063 142 
0 1061 642 
0 1061 611 
0 1057 88 
0 1057 236 
0 534 168 
0 528 509 
0 1069 630 
0 1069 537 
0 1049 162 
0 1047 71 
0 1047 170 
0 524 162 
0 526 608 
0 1075 255 
0 1115 398 
0 1043 87 
0 1085 46 
0 1109 190 
0 1101 409 
0 1099 388 
0 1097 646 
0 1093 155 
0 1091 445 
0 1089 75 
0 1097 478 
0 1063 83 
0 1053 163 
0 1053 247 
0 1072 374 
0 1070 160 
0 1069 363 
0 1047 238 
0 1044 477 
0 1078 327 
0 1077 327 
0 1074 33 
0 1117 774 
0 1043 774 
0 1082 596 
0 1103 80 
0 1100 670 
0 1100 97 
0 1095 349 
0 1094 558 
0 1093 421 
0 1091 219 
0 1091 549 
0 1090 10 
0 1090 22 
0 1089 78 
0 1060 259 
0 1054 109 
0 1050 429 
0 1048 124 
0 1048 119 
0 1042 27 
0 1078 379 
0 1115 166 
0 1112 94 
0 1088 36 
0 1082 31 
0 1100 11 
0 1098 847 
0 1096 93 
0 1096 205 
0 1277 50 
0 1275 746 
0 1271 279 
0 1336 86 
0 1314 817 
0 1309 408 
0 1331 82 
0 1323 248 
0 1318 441 
0 99 152 
0 1273 725 
0 1300 30 
0 109 32 
0 1328 613 
0 1324 197 
0 93 500 
