ITEM: TIMESTEP
8250000
ITEM: NUMBER OF ENTRIES
292
ITEM: BOX BOUNDS ff ff ff
-0.01 0.45
-0.15 0.15
-0.08 0.1
ITEM: ENTRIES c_pwc[1] c_pwc[2] c_pwc[3] 
0 850 41 
0 885 41 
0 855 588 
0 855 854 
0 895 308 
0 894 243 
0 854 813 
0 853 941 
0 894 440 
0 894 291 
0 894 572 
0 894 784 
0 894 888 
0 894 701 
0 894 278 
0 894 534 
0 852 748 
0 855 842 
0 855 763 
0 855 402 
0 855 164 
0 855 483 
0 854 748 
1 2698 752 
1 2717 752 
1 2722 752 
1 2706 752 
1 2704 752 
1 2705 752 
0 953 1026 
0 954 344 
1 1861 146 
1 1874 146 
1 1873 146 
1 1883 146 
1 529 146 
1 1889 146 
1 530 146 
1 1831 146 
1 1828 146 
1 1842 146 
1 1830 146 
1 1827 146 
1 526 146 
1 541 146 
1 527 146 
1 1871 146 
1 1869 146 
1 1868 146 
1 1892 146 
1 1893 146 
1 1885 146 
0 885 270 
0 885 48 
0 885 127 
0 885 52 
0 885 908 
0 885 276 
0 885 6 
0 885 79 
0 885 351 
0 885 45 
0 885 39 
0 885 393 
0 850 270 
0 850 48 
0 850 127 
0 850 52 
0 850 908 
0 850 276 
0 850 6 
0 850 79 
0 850 351 
0 850 45 
0 851 39 
0 851 393 
0 895 430 
0 853 297 
0 894 370 
0 894 507 
0 894 245 
0 894 723 
0 895 96 
0 961 1029 
0 961 40 
0 753 1029 
0 753 40 
0 886 15 
0 885 15 
0 850 15 
0 892 1016 
0 892 810 
0 892 395 
0 853 598 
0 379 982 
0 377 495 
0 393 733 
0 390 1007 
0 367 316 
0 435 35 
0 433 609 
0 433 804 
0 433 636 
0 405 428 
0 429 215 
0 419 656 
0 380 431 
0 380 501 
0 378 435 
0 381 154 
0 393 576 
0 386 736 
0 370 180 
0 400 175 
0 397 187 
0 397 38 
0 436 1010 
0 435 191 
0 408 362 
0 408 61 
0 403 528 
0 430 498 
0 424 1 
0 420 115 
0 420 780 
0 429 498 
0 414 694 
0 417 935 
0 413 454 
0 413 275 
0 386 858 
0 382 412 
0 378 47 
0 388 371 
0 525 504 
0 521 134 
0 519 405 
0 374 366 
0 551 220 
0 587 687 
0 438 782 
0 555 202 
0 408 689 
0 581 256 
0 575 864 
0 430 838 
0 430 266 
0 424 226 
0 422 484 
0 420 837 
0 420 401 
0 533 950 
0 529 743 
0 527 228 
0 530 585 
0 543 280 
0 541 793 
0 544 737 
0 540 85 
0 521 771 
0 521 251 
0 519 816 
0 587 559 
0 587 227 
0 517 315 
0 586 367 
0 555 853 
0 555 770 
0 560 785 
0 583 615 
0 583 98 
0 579 89 
0 573 870 
0 571 346 
0 574 158 
0 572 209 
0 569 312 
0 563 307 
0 563 214 
0 570 129 
0 538 292 
0 530 599 
0 528 485 
0 528 28 
0 531 241 
0 529 25 
0 527 358 
0 546 90 
0 545 646 
0 516 605 
0 519 155 
0 590 672 
0 562 5 
0 559 630 
0 555 608 
0 578 664 
0 576 413 
0 576 476 
0 583 328 
0 577 107 
0 568 101 
0 566 91 
0 569 411 
0 571 282 
0 1063 147 
0 1057 120 
0 1053 445 
0 1065 168 
0 540 298 
0 1064 168 
0 1051 142 
0 1047 506 
0 1044 223 
0 554 87 
0 586 75 
0 1109 162 
0 1087 81 
0 1083 190 
0 1081 587 
0 558 190 
0 1107 236 
0 1107 812 
0 1107 124 
0 1107 319 
0 1101 376 
0 1101 774 
0 1097 613 
1 1366 376 
0 1089 238 
0 1060 642 
0 1059 422 
0 1070 611 
0 1069 166 
0 1051 643 
0 1050 409 
0 1050 33 
0 1045 46 
1 2196 46 
0 1076 487 
0 1073 537 
0 1088 10 
0 1087 80 
0 1087 697 
0 1086 13 
0 1085 13 
0 1084 670 
0 1083 327 
0 1083 670 
0 1109 201 
0 1107 24 
0 1105 36 
0 1104 556 
0 1103 170 
0 1103 143 
0 1103 398 
0 1102 578 
0 1099 88 
0 1096 558 
0 1095 372 
0 1093 374 
0 1091 549 
0 1097 530 
0 1253 259 
0 1289 429 
0 1060 267 
0 1058 259 
0 1297 31 
0 1050 86 
0 1305 265 
0 1080 160 
0 1076 277 
0 1112 205 
0 1082 219 
0 1323 408 
0 1096 163 
0 1094 78 
0 1094 174 
0 1090 746 
0 1289 461 
0 1286 27 
0 1277 97 
0 1268 441 
0 1305 281 
0 1303 197 
0 1337 571 
0 1313 119 
0 1331 725 
0 1323 341 
0 155 500 
0 147 152 
0 141 32 
0 133 23 
