ITEM: TIMESTEP
10850000
ITEM: NUMBER OF ENTRIES
326
ITEM: BOX BOUNDS ff ff ff
-0.01 0.45
-0.15 0.15
-0.08 0.1
ITEM: ENTRIES c_pwc[1] c_pwc[2] c_pwc[3] 
0 914 558 
0 850 41 
0 850 480 
0 885 41 
0 885 480 
0 894 1122 
0 854 554 
0 854 1056 
0 894 468 
0 894 713 
0 894 1156 
0 894 1228 
0 894 59 
0 894 863 
0 855 1187 
0 855 887 
0 855 926 
0 855 507 
0 855 1101 
0 855 468 
0 854 336 
0 854 140 
1 2706 752 
1 2704 752 
1 2705 752 
1 2722 752 
1 2698 752 
1 2717 752 
0 953 472 
0 949 278 
1 529 146 
1 530 146 
1 526 146 
1 541 146 
1 527 146 
1 1842 146 
1 1827 146 
1 1861 146 
1 1874 146 
1 1873 146 
1 1883 146 
1 1889 146 
1 1830 146 
1 1831 146 
1 1828 146 
1 1885 146 
1 1871 146 
1 1869 146 
1 1868 146 
1 1892 146 
1 1893 146 
0 957 381 
0 885 270 
0 885 969 
0 885 48 
0 885 127 
0 885 52 
0 885 908 
0 885 276 
0 885 6 
0 885 79 
0 885 351 
0 885 45 
0 885 39 
0 885 393 
0 850 270 
0 850 969 
0 850 48 
0 850 127 
0 850 52 
0 850 908 
0 850 276 
0 850 6 
0 850 79 
0 850 351 
0 850 45 
0 851 39 
0 851 393 
0 895 139 
0 895 113 
0 853 394 
0 853 949 
0 853 360 
0 853 894 
0 853 1343 
0 884 1086 
0 885 501 
0 885 21 
0 894 777 
0 894 955 
0 894 1282 
0 894 1295 
0 894 136 
0 894 1284 
0 894 868 
0 852 552 
0 895 359 
0 895 1041 
0 895 563 
0 895 1210 
0 391 404 
0 927 720 
0 921 466 
0 917 1356 
0 913 1219 
0 435 1356 
0 961 1029 
0 961 40 
0 753 1029 
0 753 40 
0 886 15 
0 885 15 
0 850 15 
0 888 657 
0 888 523 
0 888 499 
0 888 715 
0 888 798 
0 853 499 
0 853 715 
0 885 1330 
0 887 462 
0 887 1272 
0 893 172 
0 892 561 
0 892 779 
0 895 980 
0 888 985 
0 381 630 
0 379 1308 
0 373 1217 
0 401 1348 
0 437 914 
0 409 746 
0 403 1179 
0 427 1151 
0 425 122 
0 378 103 
0 378 884 
0 379 226 
0 377 791 
0 394 1192 
0 393 982 
0 391 581 
0 387 168 
0 367 1350 
0 366 1165 
0 395 191 
0 435 901 
0 431 409 
0 406 307 
0 409 600 
0 430 1170 
0 430 541 
0 426 622 
0 429 541 
0 423 834 
0 419 981 
0 418 256 
0 418 135 
0 419 435 
0 384 452 
0 382 28 
0 380 610 
0 376 1307 
0 545 521 
0 541 170 
0 541 1079 
0 539 1038 
0 390 180 
0 525 405 
0 368 1177 
0 364 200 
0 551 549 
0 400 1067 
0 589 615 
0 587 537 
0 432 670 
0 583 850 
0 557 1145 
0 581 743 
0 575 737 
0 571 1277 
0 422 1269 
0 414 236 
0 412 1241 
0 527 95 
0 528 913 
0 526 95 
0 541 22 
0 544 932 
0 525 542 
0 525 976 
0 521 1171 
0 519 876 
0 519 75 
0 518 876 
0 518 810 
0 553 656 
0 547 587 
0 547 571 
0 547 82 
0 554 223 
0 550 221 
0 548 1128 
0 587 1010 
0 585 388 
0 588 1216 
0 555 80 
0 560 413 
0 558 867 
0 583 642 
0 581 509 
0 579 1164 
0 575 212 
0 575 220 
0 571 148 
0 567 500 
0 538 177 
0 536 1007 
0 534 851 
0 528 1085 
0 529 697 
0 540 292 
0 522 46 
0 522 785 
0 552 401 
0 548 158 
0 549 266 
0 590 31 
0 588 255 
0 587 605 
0 560 1112 
0 582 733 
0 578 387 
0 578 47 
0 574 316 
0 572 208 
0 568 349 
0 1057 1209 
0 1057 649 
0 1053 412 
0 538 217 
0 1051 219 
0 1071 444 
0 1071 363 
0 1069 795 
0 1049 780 
0 1049 461 
0 1047 613 
0 1044 132 
0 1077 335 
0 1073 893 
0 1073 234 
0 1111 506 
0 588 35 
0 586 171 
0 584 389 
0 1109 1190 
0 1085 994 
0 564 485 
0 1107 320 
0 1105 646 
0 1063 817 
0 1063 925 
0 1059 13 
0 1056 99 
0 1071 585 
0 1046 428 
0 1077 174 
0 1074 366 
0 1115 62 
0 1113 484 
0 1111 242 
0 1111 578 
0 1086 90 
0 1086 341 
0 1082 858 
0 1081 379 
0 1107 664 
0 1103 454 
0 1103 281 
0 1099 227 
0 1096 667 
0 1095 67 
0 1091 23 
0 1091 837 
0 1091 725 
0 1281 770 
0 1060 119 
0 1243 269 
0 1293 269 
0 1072 25 
0 1072 596 
0 1070 86 
0 1046 178 
0 1045 215 
0 1305 91 
0 1299 24 
0 1074 643 
0 1074 736 
0 1339 19 
0 1112 864 
0 1323 429 
0 1102 445 
0 1099 672 
0 1319 421 
0 1094 100 
0 1090 371 
0 1287 478 
0 1282 10 
0 1279 280 
0 1277 259 
0 1341 822 
0 1336 376 
0 1335 441 
0 1311 120 
0 1331 683 
0 1329 532 
0 1319 190 
0 1323 78 
0 99 617 
0 1300 147 
0 115 487 
0 123 267 
0 123 153 
