ITEM: TIMESTEP
10750000
ITEM: NUMBER OF ENTRIES
333
ITEM: BOX BOUNDS ff ff ff
-0.01 0.45
-0.15 0.15
-0.08 0.1
ITEM: ENTRIES c_pwc[1] c_pwc[2] c_pwc[3] 
0 850 41 
0 885 41 
0 855 953 
0 855 397 
0 855 1065 
0 894 378 
0 894 1206 
0 894 690 
0 894 1187 
0 894 1156 
0 894 1238 
0 894 769 
0 855 1187 
0 855 650 
0 855 268 
0 855 1101 
0 855 468 
0 854 140 
0 854 1051 
1 2685 752 
1 2698 752 
1 2717 752 
1 2725 752 
1 2703 752 
1 2724 752 
1 2723 752 
1 529 146 
1 530 146 
1 1842 146 
1 1827 146 
1 1828 146 
1 1831 146 
1 1830 146 
1 1861 146 
1 1874 146 
1 1873 146 
1 1883 146 
1 1889 146 
1 526 146 
1 541 146 
1 527 146 
1 1871 146 
1 1869 146 
1 1868 146 
1 1892 146 
1 1893 146 
1 1885 146 
0 958 1334 
0 885 270 
0 885 969 
0 885 48 
0 885 127 
0 885 52 
0 885 908 
0 885 276 
0 885 6 
0 885 79 
0 885 351 
0 885 45 
0 885 39 
0 885 393 
0 850 270 
0 850 969 
0 850 48 
0 850 127 
0 850 52 
0 850 908 
0 850 276 
0 850 6 
0 850 79 
0 850 351 
0 850 45 
0 851 39 
0 851 393 
0 884 21 
0 894 1093 
0 894 544 
0 894 347 
0 894 136 
0 894 868 
0 895 678 
0 895 186 
0 895 1011 
0 895 755 
0 895 629 
0 895 619 
0 943 439 
0 913 1337 
0 961 1029 
0 961 40 
0 961 1315 
0 959 753 
0 753 1029 
0 753 40 
0 886 15 
0 885 15 
0 850 15 
0 895 1134 
0 895 122 
0 888 1082 
0 893 172 
0 892 334 
0 892 779 
0 888 624 
0 888 462 
0 888 1287 
0 888 1266 
0 366 386 
0 435 89 
0 433 1336 
0 407 1078 
0 405 600 
0 425 1097 
0 417 256 
0 417 542 
0 379 81 
0 394 28 
0 390 34 
0 370 36 
0 395 521 
0 438 630 
0 365 1182 
0 364 1182 
0 408 1307 
0 408 850 
0 403 1151 
0 403 435 
0 431 722 
0 421 1069 
0 421 880 
0 418 1177 
0 416 220 
0 417 1114 
0 415 1285 
0 537 1179 
0 531 1165 
0 529 609 
0 384 420 
0 380 754 
0 378 852 
0 376 622 
0 545 587 
0 543 932 
0 543 1030 
0 541 124 
0 539 569 
0 370 610 
0 549 702 
0 398 413 
0 517 976 
0 438 1067 
0 555 615 
0 555 1170 
0 406 571 
0 583 612 
0 581 367 
0 575 170 
0 571 1037 
0 424 236 
0 565 148 
0 565 867 
0 537 1257 
0 535 1241 
0 535 223 
0 533 1269 
0 529 733 
0 534 614 
0 528 1325 
0 543 387 
0 541 212 
0 541 876 
0 539 1277 
0 539 851 
0 523 1085 
0 519 853 
0 518 255 
0 524 401 
0 549 1013 
0 589 87 
0 587 1010 
0 561 812 
0 561 405 
0 559 266 
0 559 1128 
0 557 158 
0 557 494 
0 575 686 
0 573 509 
0 582 549 
0 572 697 
0 569 547 
0 567 1035 
0 565 737 
0 565 22 
0 570 913 
0 536 202 
0 530 804 
0 528 1112 
0 528 422 
0 537 1209 
0 546 171 
0 546 528 
0 546 106 
0 542 132 
0 540 687 
0 522 774 
0 520 82 
0 519 1145 
0 554 464 
0 552 1216 
0 552 221 
0 550 1087 
0 553 349 
0 591 537 
0 562 177 
0 558 208 
0 556 875 
0 556 205 
0 574 3 
0 574 32 
0 573 180 
0 568 1 
0 566 424 
0 566 444 
0 564 485 
0 1063 816 
0 1061 234 
0 1061 837 
0 1060 470 
0 1053 187 
0 1053 608 
0 1071 47 
0 1071 506 
0 1069 682 
0 1047 302 
0 1073 217 
0 1115 37 
0 1111 389 
0 586 950 
0 1109 155 
0 1085 795 
0 1109 605 
0 1107 66 
0 1105 585 
0 1103 330 
0 582 994 
0 582 646 
0 578 335 
0 572 659 
0 1093 412 
0 570 667 
0 568 160 
0 1055 281 
0 1072 197 
0 1069 86 
0 1068 169 
0 1067 530 
0 1067 1022 
0 1067 94 
0 1067 93 
0 1066 178 
0 1065 858 
0 1050 23 
0 1042 484 
0 1042 428 
0 1075 99 
0 1073 637 
0 1111 248 
0 1110 689 
1 2197 248 
0 1088 46 
0 1088 109 
0 1086 408 
0 1086 277 
0 1084 163 
0 1083 429 
0 1081 936 
0 1104 11 
0 1102 398 
0 1102 578 
0 1101 649 
0 1101 1072 
0 1099 215 
0 1098 977 
0 1097 848 
0 1096 461 
0 1095 119 
0 1095 376 
0 1094 925 
0 1093 379 
1 1387 379 
0 1253 198 
0 1285 100 
0 1064 921 
0 1062 643 
0 1058 71 
0 1058 198 
0 1068 67 
0 1068 445 
0 1265 371 
0 1050 1109 
0 1048 374 
0 1048 227 
0 1046 371 
0 1045 725 
0 1042 78 
0 1042 371 
0 1305 822 
0 1079 280 
0 1341 520 
0 1269 476 
0 1116 241 
0 1112 166 
0 1307 441 
0 1331 478 
0 1100 1048 
0 1096 421 
0 1092 770 
0 1286 279 
0 1283 596 
0 1277 13 
0 1277 24 
0 1271 700 
0 1271 259 
0 1270 518 
0 1270 259 
0 1340 532 
0 1313 10 
0 1309 98 
0 1333 129 
0 1331 939 
0 1317 97 
0 93 847 
