ITEM: TIMESTEP
9600000
ITEM: NUMBER OF ENTRIES
337
ITEM: BOX BOUNDS ff ff ff
-0.01 0.45
-0.15 0.15
-0.08 0.1
ITEM: ENTRIES c_pwc[1] c_pwc[2] c_pwc[3] 
0 850 41 
0 885 41 
0 855 1181 
0 855 438 
0 855 1082 
0 855 263 
0 894 662 
0 894 297 
0 894 548 
0 894 934 
0 894 29 
0 894 268 
0 894 964 
0 894 1081 
0 894 352 
0 894 874 
0 855 671 
0 855 455 
0 855 493 
0 854 534 
1 2698 752 
1 2717 752 
1 529 146 
1 530 146 
1 1842 146 
1 1826 146 
1 1827 146 
1 1828 146 
1 1831 146 
1 1830 146 
1 1861 146 
1 1873 146 
1 1874 146 
1 1883 146 
1 526 146 
1 541 146 
1 527 146 
1 523 146 
1 1868 146 
1 1871 146 
1 1869 146 
1 1892 146 
1 1885 146 
1 1893 146 
0 885 270 
0 885 969 
0 885 48 
0 885 127 
0 885 52 
0 885 908 
0 885 276 
0 885 6 
0 885 79 
0 885 351 
0 885 45 
0 885 39 
0 885 393 
0 850 270 
0 850 969 
0 850 48 
0 850 127 
0 850 52 
0 850 908 
0 850 276 
0 850 6 
0 850 79 
0 850 351 
0 850 45 
0 851 39 
0 851 393 
0 895 889 
0 895 711 
0 895 633 
0 884 937 
0 885 1194 
0 885 186 
0 894 384 
0 852 553 
0 852 845 
0 852 962 
0 895 965 
0 895 583 
0 895 857 
0 941 386 
0 961 1029 
0 961 40 
0 753 1029 
0 753 40 
0 886 15 
0 431 358 
0 885 15 
0 850 15 
0 913 358 
0 899 1069 
0 893 172 
0 892 1062 
0 895 172 
0 900 1165 
0 888 466 
0 888 846 
0 891 213 
0 892 34 
0 895 1118 
0 895 258 
0 888 890 
0 888 210 
0 379 612 
0 375 1137 
0 375 477 
0 393 106 
0 373 221 
0 371 387 
0 371 189 
0 401 64 
0 397 1200 
0 397 656 
0 431 1182 
0 405 479 
0 403 232 
0 431 435 
0 429 694 
0 427 1179 
0 423 559 
0 415 1109 
0 411 900 
0 411 783 
0 386 542 
0 384 838 
0 382 320 
0 383 320 
0 381 1117 
0 379 228 
0 379 1151 
0 394 914 
0 394 1128 
0 388 925 
0 388 3 
0 391 431 
0 374 207 
0 434 470 
0 432 398 
0 437 687 
0 433 1177 
0 365 521 
1 2131 398 
0 410 700 
0 405 371 
0 420 325 
0 427 1097 
0 416 191 
0 414 1164 
0 412 319 
0 413 994 
0 411 236 
0 386 138 
0 386 269 
0 374 1038 
0 545 136 
0 543 187 
0 541 600 
0 525 202 
0 518 812 
0 551 1195 
0 402 365 
0 398 464 
0 396 851 
0 394 504 
0 585 180 
0 438 615 
0 432 893 
0 561 1079 
0 559 614 
0 555 143 
0 406 1072 
0 579 520 
0 577 366 
0 573 298 
0 428 218 
0 569 616 
0 414 587 
0 535 754 
0 529 412 
0 529 47 
0 530 622 
0 543 733 
0 543 155 
0 519 1054 
0 519 148 
0 519 335 
0 518 936 
0 554 328 
0 554 875 
0 552 409 
0 585 982 
0 586 935 
0 561 327 
0 557 722 
0 556 444 
0 579 1085 
0 577 977 
0 577 1087 
0 574 117 
0 574 605 
0 567 804 
0 563 134 
0 532 101 
0 530 565 
0 528 280 
0 537 132 
0 535 219 
0 546 35 
0 542 737 
0 540 17 
0 516 447 
0 516 341 
0 554 201 
0 554 25 
0 552 312 
0 552 266 
0 548 57 
0 590 637 
0 588 227 
0 588 152 
0 589 89 
0 560 1 
0 556 97 
0 559 242 
0 582 478 
0 576 725 
0 576 85 
0 574 234 
0 574 569 
0 583 346 
0 584 374 
0 584 346 
1 2176 346 
0 570 38 
0 1059 500 
0 1055 223 
0 1055 494 
0 536 816 
0 1065 147 
0 544 485 
0 542 379 
0 540 817 
0 1047 608 
0 1047 200 
0 1045 950 
0 516 158 
0 1077 220 
0 1075 771 
0 1073 98 
0 1073 13 
0 1073 91 
0 1073 367 
0 548 549 
0 1115 75 
0 584 1010 
0 1109 1010 
0 1081 259 
0 558 5 
0 1107 50 
0 1093 205 
0 1091 921 
0 1089 169 
0 564 770 
0 1070 793 
0 1051 277 
0 1049 642 
0 1049 667 
0 1048 153 
0 1045 408 
0 1045 83 
0 1042 279 
0 1042 939 
0 1043 279 
0 1080 646 
0 1075 864 
0 1073 822 
0 1111 649 
0 1111 853 
0 1087 599 
0 1086 178 
0 1081 530 
0 1109 36 
0 1108 670 
0 1105 596 
0 1103 168 
0 1099 617 
0 1098 445 
0 1096 372 
0 1096 99 
0 1093 422 
0 1091 281 
0 1090 682 
0 1089 81 
0 1287 80 
0 1279 848 
0 1060 785 
0 1058 82 
0 1056 418 
0 1053 67 
0 1293 683 
0 1050 421 
0 1048 847 
0 1042 292 
0 1052 461 
0 1303 23 
0 1076 251 
0 1074 100 
0 1337 441 
0 1108 246 
0 1102 197 
0 1216 166 
0 1096 672 
0 1096 166 
0 1094 162 
0 1094 93 
0 1090 238 
0 1281 32 
0 1295 10 
0 1295 120 
0 1271 62 
0 1341 518 
0 1269 19 
0 1335 484 
0 1311 363 
0 1333 109 
0 79 37 
0 103 78 
0 101 11 
0 1294 163 
0 1302 94 
0 111 267 
0 127 174 
0 123 27 
0 131 24 
