ITEM: TIMESTEP
10950000
ITEM: NUMBER OF ENTRIES
329
ITEM: BOX BOUNDS ff ff ff
-0.01 0.45
-0.15 0.15
-0.08 0.1
ITEM: ENTRIES c_pwc[1] c_pwc[2] c_pwc[3] 
0 946 278 
0 850 41 
0 850 480 
0 885 41 
0 885 480 
0 854 1310 
0 852 944 
0 894 767 
0 894 990 
0 894 1290 
0 894 1286 
0 894 1156 
0 894 1302 
0 894 59 
0 852 731 
0 855 1101 
0 855 574 
1 1861 146 
1 1874 146 
1 1873 146 
1 1883 146 
1 1889 146 
1 529 146 
1 530 146 
1 1828 146 
1 1831 146 
1 1842 146 
1 1830 146 
1 1827 146 
1 1871 146 
1 1869 146 
1 1868 146 
1 1892 146 
1 1893 146 
1 1885 146 
1 526 146 
1 527 146 
1 541 146 
0 918 1288 
1 2724 752 
1 2703 752 
1 2723 752 
1 2717 752 
1 2698 752 
0 885 270 
0 885 969 
0 885 48 
0 885 127 
0 885 52 
0 885 908 
0 885 276 
0 885 6 
0 885 79 
0 885 351 
0 885 45 
0 885 39 
0 885 254 
0 885 393 
0 850 270 
0 850 969 
0 850 48 
0 850 127 
0 850 52 
0 850 908 
0 850 276 
0 850 6 
0 850 79 
0 850 351 
0 850 45 
0 851 39 
0 851 393 
0 853 1227 
0 852 584 
0 894 434 
0 894 919 
0 894 789 
0 894 1306 
0 894 1222 
0 894 1284 
0 852 298 
0 852 552 
0 852 310 
0 852 394 
0 895 1210 
0 895 437 
0 895 1042 
0 895 293 
0 895 228 
0 945 594 
0 921 653 
0 921 1372 
0 951 65 
0 961 1029 
0 961 40 
0 753 1029 
0 753 40 
0 403 1217 
0 901 1148 
0 886 15 
0 885 15 
0 850 15 
0 895 1134 
0 961 1363 
0 887 159 
0 887 716 
0 887 861 
0 893 465 
0 893 1132 
0 892 1121 
0 892 874 
0 892 1015 
0 895 980 
0 895 465 
0 895 1132 
0 393 620 
0 393 541 
0 371 124 
0 371 1366 
0 369 746 
0 367 273 
0 402 1179 
0 405 34 
0 403 439 
0 431 365 
0 427 1151 
0 421 489 
0 417 226 
0 378 612 
0 379 743 
0 375 1170 
1 1717 1308 
0 393 880 
0 364 180 
0 364 622 
0 373 694 
0 373 850 
0 371 901 
0 369 36 
0 366 852 
0 399 630 
0 432 1182 
0 433 81 
0 410 1079 
0 406 424 
0 409 1030 
0 403 409 
0 428 1165 
0 422 982 
0 427 1038 
0 419 1128 
0 419 1192 
0 527 17 
0 378 122 
0 378 38 
0 392 152 
0 390 1095 
0 390 1257 
0 388 615 
0 372 101 
0 370 220 
0 370 884 
0 370 404 
0 553 80 
0 561 600 
0 559 236 
0 557 367 
0 555 1164 
0 478 834 
0 410 1114 
0 404 834 
0 404 1037 
0 579 670 
0 575 565 
0 567 549 
0 563 1269 
0 418 312 
0 418 1336 
0 418 722 
0 418 569 
0 416 388 
0 537 217 
0 535 158 
0 527 876 
0 536 1 
0 545 509 
0 541 1069 
0 541 57 
0 523 733 
0 523 135 
0 519 284 
0 549 754 
0 546 771 
0 589 810 
0 589 795 
0 587 1171 
0 587 266 
0 585 28 
0 585 571 
0 579 547 
0 577 413 
0 573 316 
0 571 537 
0 582 932 
0 578 1087 
0 572 134 
0 565 506 
0 563 702 
0 563 1296 
0 534 66 
0 530 88 
0 530 335 
0 533 35 
0 529 170 
0 546 649 
0 540 171 
0 539 349 
0 520 50 
0 525 148 
0 526 812 
0 526 1194 
0 550 132 
0 547 1145 
0 590 613 
0 588 659 
0 588 687 
0 589 389 
0 589 33 
0 560 247 
0 558 401 
0 556 31 
0 582 470 
0 582 1246 
0 582 1325 
0 578 160 
0 574 585 
0 572 1007 
0 572 504 
0 581 255 
0 575 851 
1 2175 585 
0 570 47 
0 566 412 
0 566 893 
0 564 1112 
0 571 363 
0 1063 913 
0 1061 614 
0 1059 774 
1 1796 614 
0 1071 169 
0 1069 85 
0 1067 1157 
0 1075 611 
0 1113 295 
0 1111 936 
0 1087 282 
0 1085 682 
0 1085 202 
0 1083 528 
0 1083 785 
0 1081 994 
0 562 330 
0 558 87 
0 556 87 
0 1089 950 
0 1106 251 
0 1105 219 
0 1099 1209 
0 1097 804 
0 580 177 
0 584 46 
0 1091 838 
0 568 422 
0 1058 281 
0 1053 90 
0 1053 227 
0 1072 94 
0 1071 242 
0 1068 421 
0 1051 1085 
0 1050 163 
0 1044 848 
0 1079 643 
0 1077 1048 
0 1075 71 
0 1073 725 
0 1111 736 
0 1043 556 
0 1088 178 
0 1087 19 
0 1089 1072 
0 1109 75 
0 1106 428 
0 1105 977 
0 1105 62 
0 1098 837 
0 1098 1054 
0 1096 520 
0 1093 530 
0 1089 67 
0 1287 119 
0 1058 864 
0 1054 11 
0 1054 596 
0 1072 418 
0 1066 484 
0 1074 408 
0 1074 5 
0 1309 637 
0 1088 822 
0 1084 925 
0 1331 280 
0 1323 98 
0 1106 93 
0 1099 817 
0 1090 197 
0 1289 198 
0 1281 374 
0 1293 478 
0 1293 24 
0 1273 120 
0 1304 372 
0 1326 847 
0 1321 532 
0 1298 129 
0 143 269 
0 123 279 
0 115 376 
0 115 487 
