ITEM: TIMESTEP
9250000
ITEM: NUMBER OF ENTRIES
2775
ITEM: BOX BOUNDS ff ff ff
-0.01 0.45
-0.15 0.15
-0.08 0.1
ITEM: ENTRIES c_pwc[1] c_pwc[2] c_pwc[3] c_pwc[4] c_pwc[5] c_pwc[6] c_pwc[7] c_pwc[8] c_pwc[9] c_pwc[10] c_pwc[11] c_pwc[12] c_pwc[13] c_pwc[14] 
0 0 0 0.0796537 -0.172628 0.278886 0 782 14527 -4.61825e-06 7.91038e-06 4.77431e-06 4.90878e-10 9.7663e-08 
0 0 0 0.318665 -0.0276583 0.0446697 0 782 15694 -0.000126219 0.00026247 -0.000406915 4.71018e-10 9.37115e-08 
0 0 0 0.00821959 0.0262831 -0.0679191 0 780 13923 -5.02005e-06 9.20834e-06 4.23996e-06 5.05517e-10 1.00576e-07 
0 0 0 0.197843 0.0203457 -0.0525183 0 780 2010 1.0424e-17 9.53905e-06 2.53098e-06 5.00925e-10 9.96621e-08 
0 0 0 -0.00141549 -0.0148849 0.039225 0 780 15785 -1.14792e-10 5.39535e-06 7.58223e-07 4.02714e-10 8.01214e-08 
0 0 0 -0.00548162 0.000258355 -0.000957361 0 778 3129 -2.78677e-09 8.88406e-06 1.09452e-06 4.88022e-10 9.70947e-08 
0 0 0 9.42236e-05 -0.00809524 0.0433057 0 778 12757 -1.25207e-20 1.02659e-05 1.35713e-06 5.18851e-10 1.03229e-07 
0 0 0 0.00039156 -0.000185499 0.000987284 0 778 8040 -1.6573e-09 9.88e-06 1.22449e-06 5.05056e-10 1.00484e-07 
0 0 0 -0.0158144 -0.00859357 0.0459616 0 778 15555 2.70957e-12 1.02536e-05 1.3546e-06 5.18038e-10 1.03067e-07 
0 0 0 0.00817954 -0.00329071 0.0180819 0 778 7654 -3.34208e-10 9.18699e-06 1.15304e-06 5.00868e-10 9.96507e-08 
0 0 0 0.000326349 0.00100179 -0.00553466 0 778 5338 8.25802e-11 1.03398e-05 1.37003e-06 5.14362e-10 1.02336e-07 
0 0 0 -0.00135157 8.3473e-06 -0.000127374 0 778 14580 -1.6968e-08 1.00299e-05 1.5254e-06 5.08796e-10 1.01228e-07 
0 0 0 0.00269549 -4.69478e-05 -0.000289347 0 778 15828 5.05756e-07 9.77954e-06 2.60462e-06 4.88852e-10 9.72599e-08 
0 0 0 3.46884e-05 0.00016156 -4.28102e-05 0 778 14360 3.63231e-06 6.17028e-06 -1.21505e-06 3.9061e-10 7.77132e-08 
0 0 0 0.000742962 -0.000292118 0.00167156 0 778 12332 -6.88129e-07 9.61224e-06 5.96737e-08 4.93357e-10 9.81562e-08 
0 0 0 0.0215061 -0.0118612 0.0634517 0 778 15381 -1.28615e-18 1.02659e-05 1.35713e-06 5.18851e-10 1.03229e-07 
0 0 0 0.00447009 -0.000764893 0.00416144 0 778 17589 -2.60596e-09 9.77433e-06 1.18084e-06 5.0426e-10 1.00326e-07 
0 0 0 0.000287746 -0.000534829 0.00268077 0 778 16821 -1.67942e-06 1.08026e-05 1.93082e-06 5.32693e-10 1.05983e-07 
0 0 0 -0.000791028 -8.04634e-05 0.000429372 0 778 11996 6.68393e-12 1.01201e-05 1.32867e-06 5.1383e-10 1.0223e-07 
0 0 0 -0.00860624 0.000589596 -0.00315406 0 778 13527 -2.89672e-17 1.02659e-05 1.35713e-06 5.18851e-10 1.03229e-07 
0 0 0 -0.000569674 -0.000459287 0.00220118 0 778 4848 4.00732e-12 1.0507e-05 1.40124e-06 5.16858e-10 1.02832e-07 
0 0 0 -0.00090126 -0.000343574 0.00117141 0 778 6949 4.63346e-06 1.40723e-05 1.21316e-06 6.11409e-10 1.21645e-07 
0 0 0 -5.18095e-05 -0.000994821 0.00644697 0 778 14749 1.0632e-06 2.41857e-06 -7.32141e-08 2.51187e-10 4.99737e-08 
0 0 0 0.0484633 -0.00111679 0.00597427 0 778 17147 1.60774e-16 1.02659e-05 1.35713e-06 5.18851e-10 1.03229e-07 
0 0 0 0.00308661 -0.000259743 0.000716842 0 778 16330 2.00372e-06 1.28328e-05 1.58901e-05 6.55493e-10 1.30417e-07 
0 0 0 -0.00162514 -0.00128172 0.00574566 0 778 1637 3.82773e-10 7.63246e-06 8.38653e-07 3.78113e-10 7.52268e-08 
0 0 0 0.0419178 -0.00105969 0.00566885 0 778 15517 1.87326e-18 1.02659e-05 1.35713e-06 5.18851e-10 1.03229e-07 
0 0 0 0.00302874 -0.000592871 0.00317708 0 778 5892 7.25527e-13 1.02663e-05 1.35728e-06 5.19086e-10 1.03275e-07 
0 0 0 -0.0152119 -0.00398386 0.0213118 0 778 13175 -1.10242e-16 1.02659e-05 1.35713e-06 5.18851e-10 1.03229e-07 
0 0 0 0.001242 5.05087e-05 0.00135278 0 776 7649 1.84985e-09 1.04081e-05 1.01964e-10 5.32062e-10 1.05857e-07 
0 0 0 -0.000669862 -9.07955e-07 0.00388996 0 776 7937 -4.26914e-11 1.07641e-05 -2.43683e-10 5.32731e-10 1.0599e-07 
0 0 0 -0.000443721 -1.67561e-08 0.00210589 0 776 5540 -2.34176e-14 1.05213e-05 -2.41501e-14 5.2488e-10 1.04428e-07 
0 0 0 0.000134918 -3.88881e-05 0.00170283 0 776 1200 -6.99869e-07 9.97723e-06 -1.28321e-07 4.98138e-10 9.91076e-08 
0 0 0 -3.8111e-05 -1.3629e-05 -0.000185476 0 776 1871 6.60591e-07 4.68953e-06 9.46399e-07 3.02902e-10 6.02626e-08 
0 0 0 -1.27177e-05 5.52796e-06 0.00184599 0 776 1972 4.57732e-10 1.05508e-05 -5.44341e-10 5.2706e-10 1.04862e-07 
0 0 0 -0.00048814 -1.15243e-05 -0.000558948 0 776 733 1.94309e-06 1.08753e-05 -2.62228e-07 5.34109e-10 1.06265e-07 
0 0 0 -0.00150154 1.10573e-06 0.00106306 0 776 10595 -2.12041e-08 1.11217e-05 -6.58866e-07 5.44901e-10 1.08412e-07 
0 0 0 -0.00102772 1.86269e-08 0.00064386 0 776 894 1.16573e-13 1.05183e-05 -3.29676e-14 5.24788e-10 1.0441e-07 
0 0 0 0.000571447 -1.90145e-09 0.00055061 0 776 9680 -2.99141e-16 1.05195e-05 -2.88226e-16 5.24823e-10 1.04417e-07 
0 0 0 -0.000319977 1.47058e-05 -0.000694695 0 776 414 -1.54881e-06 1.39836e-05 1.26479e-06 6.37523e-10 1.26841e-07 
0 0 0 -0.00087945 -2.63563e-05 0.000337374 0 776 206 3.3593e-06 1.49862e-05 2.6914e-06 6.59084e-10 1.31131e-07 
0 0 0 -0.000473689 6.32565e-05 -0.000467773 0 776 1894 -1.76213e-06 1.33741e-05 2.40586e-06 6.29069e-10 1.25159e-07 
0 0 0 -0.000623108 -5.43904e-05 4.95289e-06 0 776 1225 1.25998e-07 8.81191e-06 8.24144e-07 4.54248e-10 9.03748e-08 
0 0 0 -6.82621e-05 -3.38469e-05 -4.32546e-05 0 776 3512 -2.035e-06 5.85825e-06 -2.83822e-06 3.47176e-10 6.90715e-08 
0 0 0 -0.000849895 -3.54632e-07 -0.000719311 0 776 690 -7.90429e-11 1.05174e-05 -5.51512e-13 5.24678e-10 1.04388e-07 
0 0 0 -0.000420535 -2.22236e-05 -0.000207566 0 776 280 6.02867e-06 4.65909e-06 4.97712e-06 2.9944e-10 5.9574e-08 
0 0 0 -0.00221233 -1.46376e-07 0.000656766 0 776 2352 -4.09979e-12 1.05229e-05 -5.48837e-13 5.24903e-10 1.04433e-07 
0 0 0 -0.00205513 6.68894e-06 -2.43356e-05 0 776 9977 -7.88319e-08 1.05568e-05 2.067e-06 5.2751e-10 1.04952e-07 
0 0 0 1.03636e-05 3.42474e-05 2.62856e-05 0 776 101 -6.12893e-07 1.32922e-05 -1.35031e-06 6.20526e-10 1.23459e-07 
0 0 0 0.00143623 6.80432e-05 2.10173e-05 0 776 317 -2.1083e-09 1.30527e-05 2.76859e-06 6.20213e-10 1.23397e-07 
0 0 0 -0.000303072 -8.34316e-05 3.97462e-05 0 776 1705 8.86334e-07 1.26571e-05 2.87421e-06 5.76194e-10 1.14638e-07 
0 0 0 -0.00119043 4.24375e-05 8.35656e-05 0 776 5611 2.44929e-10 1.78952e-05 -3.80454e-06 7.56279e-10 1.50471e-07 
0 0 0 -0.000887943 -1.03749e-05 4.69833e-05 0 776 9269 -5.12473e-07 1.24612e-05 3.85292e-07 5.85376e-10 1.16465e-07 
0 0 0 -4.91254e-05 -1.1319e-05 0.000177883 0 776 6408 -1.87952e-06 1.00122e-05 -2.47066e-07 5.05342e-10 1.00541e-07 
0 0 0 0.000727359 5.24659e-12 -0.00284716 0 776 8455 -1.08871e-20 1.05196e-05 2.99504e-19 5.24825e-10 1.04417e-07 
0 0 0 0.000126366 8.16065e-06 -0.00126171 0 776 11208 -3.06761e-09 1.06602e-05 -9.61065e-10 5.31253e-10 1.05696e-07 
0 0 0 0.000465606 6.61204e-05 -7.36569e-05 0 776 553 6.54341e-07 1.27055e-05 -7.55599e-07 6.09081e-10 1.21182e-07 
0 0 0 0.000110465 -0.000129629 -0.00020874 0 776 585 -8.89897e-07 9.74673e-06 6.59556e-07 4.70386e-10 9.35859e-08 
0 0 0 -0.00338943 5.40115e-06 -0.00619984 0 776 2069 7.33118e-07 1.03404e-05 -1.22688e-06 5.20021e-10 1.03462e-07 
0 0 0 0.000397818 0.000128903 -0.000205028 0 776 531 3.00004e-06 1.5779e-05 5.30608e-06 7.13763e-10 1.42011e-07 
0 0 0 -0.000461156 -0.000169719 -0.000502369 0 776 6702 -2.1807e-06 5.23905e-06 2.75409e-06 2.88536e-10 5.74045e-08 
0 0 0 0.000345207 0.00013986 -0.000248118 0 776 1002 -7.57786e-07 1.56251e-05 1.69948e-06 7.11546e-10 1.4157e-07 
0 0 0 3.97368e-05 -2.80159e-05 -0.000236883 0 776 1470 -2.57189e-06 3.30645e-06 2.12042e-07 2.35273e-10 4.68075e-08 
0 0 0 0.00114329 -5.5564e-05 -9.46214e-05 0 776 154 -1.80577e-06 1.62393e-05 -1.10795e-06 6.89813e-10 1.37246e-07 
0 0 0 0.00094926 0.000212865 -0.000152516 0 776 1045 -3.72913e-08 -7.58833e-08 -6.99467e-09 9.66755e-11 1.92332e-08 
0 0 0 -0.00207512 2.91063e-05 -0.00217819 0 776 2611 -1.24367e-06 2.29648e-05 -2.65963e-08 8.88687e-10 1.76818e-07 
0 0 0 0.00202153 0.000212531 7.91615e-06 0 776 10613 -1.29139e-06 1.00463e-05 4.00646e-06 5.55299e-10 1.10481e-07 
0 0 0 0.000823685 1.19444e-06 0.00110095 0 776 4165 1.51129e-11 1.05528e-05 -5.33367e-12 5.26189e-10 1.04689e-07 
0 0 0 0.00561066 -2.83639e-05 0.00326169 0 776 12304 -1.82923e-06 1.13561e-05 6.01536e-06 5.46229e-10 1.08676e-07 
0 0 0 0.00160439 -4.98737e-05 0.000812535 0 776 4634 1.3267e-06 1.25807e-05 -5.1749e-06 5.80835e-10 1.15562e-07 
0 0 0 -0.00204532 -3.22753e-05 0.00124507 0 776 72 -2.01213e-07 7.58636e-06 -3.30514e-07 4.14686e-10 8.25034e-08 
0 0 0 0.0021665 4.12843e-08 0.00170837 0 776 1920 2.53015e-13 1.05111e-05 4.92433e-13 5.24552e-10 1.04363e-07 
0 0 0 0.00151513 -4.45056e-06 -0.000861102 0 776 3087 -9.45642e-07 1.15407e-05 -5.5653e-07 5.57311e-10 1.10881e-07 
0 0 0 -0.00276643 2.34616e-12 0.00355774 0 776 1063 2.88754e-19 1.05196e-05 5.93643e-19 5.24825e-10 1.04417e-07 
0 0 0 0.00210274 0.000171138 0.00129673 0 776 18 1.0667e-09 1.04193e-05 -1.20023e-09 5.58574e-10 1.11133e-07 
0 0 0 -0.000260084 2.84086e-05 0.00259006 0 776 4248 5.7287e-10 1.06514e-05 -1.70816e-09 5.35337e-10 1.06509e-07 
0 0 0 0.00521075 1.27085e-06 0.00195228 0 776 12917 1.92508e-12 1.04896e-05 6.72561e-13 5.24104e-10 1.04274e-07 
0 0 0 -0.00133115 6.21408e-05 0.00264236 0 776 4185 -6.29877e-09 1.16614e-05 7.69693e-09 5.75364e-10 1.14473e-07 
0 0 0 -0.00513818 -2.16562e-12 0.0042248 0 776 4938 5.9901e-19 1.05196e-05 -5.99004e-19 5.24825e-10 1.04417e-07 
0 0 0 0.00170739 1.8329e-05 -0.000690992 0 776 6544 -4.46791e-09 1.0526e-05 1.08906e-08 5.29006e-10 1.05249e-07 
0 0 0 -0.0153916 5.05289e-07 -0.00520847 0 776 10360 -2.12923e-12 1.05291e-05 -6.51901e-13 5.25252e-10 1.04502e-07 
0 0 0 -0.00698974 -6.33385e-05 -0.00613465 0 776 9715 4.17299e-10 1.16946e-05 -1.28602e-09 5.49742e-10 1.09375e-07 
0 0 0 -0.00055736 0.000511746 -0.00521515 0 776 4095 -5.19012e-07 1.12338e-05 -6.31708e-07 6.57676e-10 1.30851e-07 
0 0 0 -0.00311568 -7.65524e-05 -0.0039042 0 776 1367 2.18119e-10 1.00757e-05 -1.5869e-08 4.93271e-10 9.81392e-08 
0 0 0 -0.001758 -9.15214e-06 -0.00189669 0 776 1036 -6.06202e-09 1.04499e-05 2.42055e-08 5.20522e-10 1.03561e-07 
0 0 0 -0.000218596 -2.0964e-06 0.00351014 0 776 12116 1.21197e-13 1.05614e-05 1.41344e-12 5.25762e-10 1.04604e-07 
0 0 0 -0.00476447 2.20406e-05 0.00315882 0 776 12691 6.06605e-08 1.08506e-05 -7.24593e-09 5.40523e-10 1.07541e-07 
0 0 0 -0.00384077 2.66508e-05 -0.00242302 0 776 7185 -6.1691e-07 1.81131e-05 4.82908e-06 7.59199e-10 1.51052e-07 
0 0 0 -0.00250899 0.000125752 -0.00119899 0 776 4532 5.66635e-07 7.53353e-06 5.77333e-06 4.48869e-10 8.93046e-08 
0 0 0 -0.00453134 -1.03414e-05 -0.00879855 0 776 8603 4.32171e-05 8.7411e-06 4.42404e-05 4.61562e-10 9.18301e-08 
0 0 0 -0.00139388 0.000852033 -0.00153228 0 776 9639 1.25585e-06 1.65164e-05 1.92314e-06 8.79572e-10 1.75005e-07 
0 0 0 -0.00424851 7.58771e-05 -0.0043027 0 776 14724 5.61813e-06 1.42336e-05 4.36872e-06 6.57641e-10 1.30844e-07 
0 0 0 -0.00609453 -0.000964484 -0.00505141 0 776 3983 3.39285e-06 1.19211e-05 4.90065e-06 3.68044e-10 7.32233e-08 
0 0 0 -0.000956932 1.16607e-05 -0.00116098 0 776 3427 9.13209e-06 6.45186e-06 -7.40747e-06 3.81599e-10 7.59204e-08 
0 0 0 0.00125404 2.0281e-05 -0.00477916 0 776 1118 1.38439e-09 1.06301e-05 1.95267e-09 5.32876e-10 1.06019e-07 
0 0 0 -0.00089347 9.436e-07 -0.00278482 0 776 9160 -2.11406e-07 8.23107e-06 9.46178e-08 4.4586e-10 8.87059e-08 
0 0 0 -0.00390724 2.10479e-05 -0.00288392 0 776 9279 4.46715e-06 1.10287e-05 3.23301e-06 5.46142e-10 1.08659e-07 
0 0 0 -0.000693205 8.78281e-09 -0.00649922 0 776 1366 -1.64085e-15 1.05199e-05 -1.5384e-14 5.24837e-10 1.0442e-07 
0 0 0 -0.00113411 2.53667e-05 -0.000366828 0 776 7286 3.67536e-07 1.00339e-05 3.90067e-07 5.1408e-10 1.02279e-07 
0 0 0 -0.000260639 2.28936e-09 -0.0221315 0 776 1887 -2.47864e-16 1.05183e-05 -2.10642e-14 5.24784e-10 1.04409e-07 
0 0 0 0.00329823 -1.3665e-06 -0.00668851 0 776 4164 1.62869e-07 1.06248e-05 1.23136e-07 5.28025e-10 1.05054e-07 
0 0 0 -0.000996025 9.72969e-06 -4.77829e-05 0 777 4413 3.55501e-08 1.19554e-05 6.02157e-07 5.73615e-10 1.14125e-07 
0 0 0 -0.00120079 3.27276e-11 0.00617911 0 777 3837 -1.10893e-17 1.05196e-05 5.70954e-17 5.24825e-10 1.04417e-07 
0 0 0 0.00494864 -1.24499e-05 -0.00129556 0 777 4306 -1.5732e-08 9.28121e-06 -3.57767e-09 4.80034e-10 9.55055e-08 
0 0 0 -0.00148814 -2.27034e-06 0.00406303 0 777 255 -5.62779e-13 1.05028e-05 -2.33142e-12 5.23777e-10 1.04209e-07 
0 0 0 0.00227084 -1.19658e-05 -0.0009266 0 777 2015 -2.57832e-12 1.06156e-05 -1.50488e-12 5.25429e-10 1.04538e-07 
0 0 0 0.00337683 -1.26124e-05 -6.67736e-05 0 777 15272 -8.90197e-10 1.02994e-05 -5.07364e-08 5.14738e-10 1.0241e-07 
0 0 0 0.000779077 1.35217e-06 0.00373827 0 777 10496 4.00272e-12 1.0522e-05 -5.10211e-12 5.252e-10 1.04492e-07 
0 0 0 -0.00294195 -0.000631691 0.00475983 0 777 7764 -2.57099e-05 2.18317e-05 -4.64645e-05 7.32968e-10 1.45833e-07 
0 0 0 -0.000343243 -0.000102401 -0.000633297 0 777 5953 -8.24892e-08 1.1743e-05 8.18546e-08 5.43007e-10 1.08035e-07 
0 0 0 0.00148127 1.97729e-05 0.00581059 0 777 14256 -1.78204e-13 1.04885e-05 3.30614e-11 5.28073e-10 1.05064e-07 
0 0 0 0.000792569 -0.000138654 0.00018464 0 775 2116 -5.85204e-06 8.07899e-06 4.82294e-06 3.6277e-10 7.21741e-08 
0 0 0 0.00297953 -0.000212082 -0.00250069 0 775 12 -5.14041e-06 1.12665e-05 -5.30229e-06 6.27623e-10 1.24871e-07 
0 0 0 0.00339549 -0.000120647 0.00144678 0 775 3998 -5.34835e-06 1.04688e-05 -2.42748e-06 4.49221e-10 8.93747e-08 
0 0 0 0.00413501 -4.73704e-05 0.00110213 0 775 9210 -1.52066e-05 1.30369e-05 -2.13451e-06 5.58898e-10 1.11197e-07 
0 0 0 0.00252311 -0.00123645 -0.00670805 0 775 1890 -3.9421e-07 1.00564e-05 -1.32395e-06 5.15483e-10 1.02559e-07 
0 0 0 -0.00199199 -0.00132952 -0.00711013 0 775 5900 2.23762e-13 1.02679e-05 -1.3575e-06 5.18832e-10 1.03225e-07 
0 0 0 0.00259777 -0.000918691 -0.00495639 0 775 10907 2.93189e-08 9.88452e-06 -1.28619e-06 5.07473e-10 1.00965e-07 
0 0 0 -0.00258719 -0.00116435 -0.00619716 0 775 6574 -6.91721e-08 1.03621e-05 -1.22598e-06 5.19947e-10 1.03447e-07 
0 0 0 -0.00218512 -0.00140479 -0.00751519 0 775 1749 -2.703e-14 1.02656e-05 -1.35708e-06 5.18851e-10 1.03229e-07 
0 0 0 0.00176139 -0.000961008 -0.00513229 0 775 3630 -1.3248e-08 1.02133e-05 -1.33268e-06 5.16626e-10 1.02786e-07 
0 0 0 -0.00535786 -0.000705149 -0.00378663 0 775 11044 1.28259e-10 1.02298e-05 -1.35062e-06 5.182e-10 1.03099e-07 
0 0 0 9.85796e-05 5.16213e-05 0.000824967 0 839 2641 9.73728e-06 2.14742e-06 -3.55395e-06 5.20084e-10 1.03474e-07 
0 0 0 9.88997e-05 -4.52873e-05 -0.000103986 0 839 5113 6.9766e-06 2.32652e-06 -1.50567e-06 4.22052e-10 8.39689e-08 
0 0 0 0.000134918 -3.88881e-05 0.00170283 0 832 1200 1.61787e-06 -3.47355e-07 1.01807e-07 1.90443e-10 3.78883e-08 
0 0 0 -3.8111e-05 -1.3629e-05 -0.000185476 0 832 1871 1.85331e-05 3.07508e-06 4.17193e-06 7.58035e-10 1.5082e-07 
0 0 0 9.85796e-05 5.16213e-05 0.000824967 0 774 2641 5.66447e-06 1.13415e-05 -2.61973e-06 5.39664e-10 1.0737e-07 
0 0 0 9.88997e-05 -4.52873e-05 -0.000103986 0 774 5113 -5.83666e-07 3.67361e-06 6.96039e-07 2.44585e-10 4.86601e-08 
0 0 0 -0.000600957 -0.00045638 -0.00234369 0 774 10425 8.71612e-09 9.74666e-06 -1.42095e-06 4.98104e-10 9.91009e-08 
0 0 0 -0.000438927 1.67284e-05 -0.000283773 0 774 210 4.34201e-06 1.16813e-05 1.42995e-06 5.62541e-10 1.11922e-07 
0 0 0 -0.00030502 -0.000269425 -0.00146121 0 774 3865 -3.37361e-06 1.5511e-05 2.90547e-07 6.71318e-10 1.33566e-07 
0 0 0 0.000222526 -0.00029747 -0.00138005 0 774 4325 2.32428e-07 1.05937e-05 1.48186e-07 5.11956e-10 1.01857e-07 
0 0 0 7.07922e-05 -0.00015871 -0.00148333 0 774 3869 3.43661e-06 6.97626e-06 4.86045e-06 3.8725e-10 7.70447e-08 
0 0 0 -0.00199789 -0.00014999 -0.00129351 0 774 1165 3.07695e-06 1.01416e-05 2.33021e-06 5.11595e-10 1.01785e-07 
0 0 0 0.00154595 -9.19269e-05 2.55024e-05 0 774 9441 -5.97406e-07 1.08395e-05 -3.60627e-06 5.30719e-10 1.0559e-07 
0 0 0 0.000529186 -0.000827626 -0.00344097 0 774 8682 7.40472e-07 6.75627e-06 4.20392e-06 3.12476e-10 6.21676e-08 
0 0 0 -0.000603217 -5.1966e-05 -0.000267001 0 774 6076 -7.29097e-07 1.12616e-05 6.8009e-07 5.38442e-10 1.07127e-07 
0 0 0 0.00527656 -3.70251e-05 -0.000506285 0 774 4050 -1.07508e-07 8.82185e-06 -9.15656e-07 4.79976e-10 9.5494e-08 
0 0 0 0.000252487 -5.38355e-05 -0.000695935 0 774 13823 -1.59429e-06 1.24118e-05 -2.24193e-06 6.08042e-10 1.20975e-07 
0 0 0 0.000909039 -0.000676115 -0.0035498 0 774 3081 -2.18042e-11 1.01509e-05 -1.33393e-06 5.12241e-10 1.01914e-07 
0 0 0 0.0090815 -0.000533178 -0.00293836 0 774 5875 5.93344e-11 1.04002e-05 -1.384e-06 5.2685e-10 1.0482e-07 
0 0 0 0.00228623 3.15076e-05 -0.00108989 0 774 1541 -7.6409e-07 1.68946e-05 -5.61557e-06 7.86617e-10 1.56508e-07 
0 0 0 -0.00222637 -0.000487123 -0.0015572 0 774 3877 -1.42491e-06 3.20263e-06 3.22275e-06 1.51804e-10 3.02009e-08 
0 0 0 -0.00111491 -1.60504e-05 -0.000215479 0 774 7002 7.82173e-10 1.05161e-05 -1.40628e-06 5.32495e-10 1.05943e-07 
0 0 0 -4.74507e-06 -0.000150029 -0.000469374 0 774 12874 -5.44298e-08 1.00385e-05 -1.27187e-06 4.97479e-10 9.89765e-08 
0 0 0 0.000156979 -8.05902e-05 -0.000236796 0 774 9650 4.26875e-07 1.24852e-05 -2.36094e-06 5.87755e-10 1.16939e-07 
0 0 0 0.000563727 -0.00150492 -0.00805164 0 774 11656 2.80244e-14 1.02648e-05 -1.35694e-06 5.18856e-10 1.0323e-07 
0 0 0 -0.0174983 1.33928e-05 7.16448e-05 0 774 7843 -2.34617e-16 1.02659e-05 -1.35713e-06 5.18851e-10 1.03229e-07 
0 0 0 -0.0191633 0.000623943 0.00333779 0 774 6493 -1.88826e-16 1.02659e-05 -1.35713e-06 5.18851e-10 1.03229e-07 
0 0 0 -0.0117255 0.000348028 0.00185499 0 774 7315 -4.6198e-12 1.02511e-05 -1.35431e-06 5.18617e-10 1.03182e-07 
0 0 0 0.0014155 -0.00217999 -0.0116619 0 774 2953 -1.2214e-18 1.02659e-05 -1.35713e-06 5.18851e-10 1.03229e-07 
0 0 0 0.0144142 -0.00275918 -0.0147603 0 774 8237 2.0509e-19 1.02659e-05 -1.35713e-06 5.18851e-10 1.03229e-07 
0 0 0 -0.0070138 -0.00709483 -0.0377033 0 774 15754 2.32524e-06 1.34041e-05 3.42198e-06 5.80576e-10 1.1551e-07 
0 0 0 0.0088129 -0.0019123 -0.010527 0 774 2858 4.4786e-07 9.72706e-06 -1.14921e-06 5.1164e-10 1.01794e-07 
0 0 0 -5.61017e-05 -0.00282989 -0.00392667 0 774 5016 -1.85375e-09 8.3064e-06 1.53578e-06 5.27277e-11 1.04899e-08 
0 0 0 -0.0104882 -0.00125329 -0.00669548 0 774 13272 1.96855e-11 1.03665e-05 -1.37672e-06 5.21917e-10 1.03839e-07 
0 0 0 -0.00803806 -0.00120814 -0.0064502 0 774 5294 3.82687e-12 1.00858e-05 -1.32184e-06 5.12184e-10 1.01902e-07 
0 0 0 -0.00150157 0.000529305 0.0020789 0 774 11158 -9.34847e-07 1.04363e-05 -7.52624e-07 5.50723e-10 1.0957e-07 
0 0 0 0.0315719 -0.0079857 -0.0427302 0 774 13605 1.6701e-11 1.03005e-05 -1.36404e-06 5.20449e-10 1.03547e-07 
0 0 0 0.0130516 0.000526379 0.00133436 0 774 3484 -3.71354e-08 9.64499e-06 -1.30541e-06 5.57565e-10 1.10932e-07 
0 0 0 -0.102611 0.00754815 0.040379 0 774 9854 -2.39959e-12 1.02646e-05 -1.35684e-06 5.18809e-10 1.0322e-07 
0 0 0 0.0288846 0.000331916 0.00177647 0 774 2150 -1.40793e-12 1.02817e-05 -1.36021e-06 5.19354e-10 1.03329e-07 
0 0 0 0.00609233 0.0016046 0.0087245 0 774 14998 2.15709e-08 1.05438e-05 -1.47618e-06 5.23093e-10 1.04073e-07 
0 0 0 0.00810782 0.00578899 0.0309683 0 774 16108 -6.69303e-17 1.02659e-05 -1.35713e-06 5.18851e-10 1.03229e-07 
0 0 0 -0.0116838 -0.00130041 -0.0089243 0 774 3491 1.85045e-05 3.95935e-05 -9.84137e-07 1.32206e-09 2.63058e-07 
0 0 0 0.0141962 0.00648885 0.0347123 0 774 10569 -6.28964e-14 1.0266e-05 -1.35715e-06 5.1885e-10 1.03229e-07 
0 0 0 -0.286332 0.108127 0.279108 0 772 13147 -4.88502e-06 9.30495e-06 -3.13528e-06 5.00925e-10 9.96621e-08 
0 0 0 0.114568 -0.0756956 -0.122253 0 770 17159 1.23842e-12 8.44022e-06 -3.36495e-06 4.71151e-10 9.3738e-08 
0 0 0 9.75198e-127 -8.48029e-20 -4.72345e-12 0 884 5230 -9.31768e-128 5.25978e-06 -1.62002 1.22522e-06 0.0003 
0 0 0 0.00521708 -0.012603 0.00276537 0 884 9048 -3.49119e-05 0.000132738 -9.63624e-06 4.11151e-10 8.18e-08 
0 0 0 -0.00239766 0.0168811 0.000130652 0 884 13868 8.94488e-05 -4.35147e-05 7.9587e-06 4.65378e-10 9.25893e-08 
0 0 0 0.0031626 -0.0284279 -0.0104941 0 884 5782 0.000224849 -0.000118784 0.00103121 1.00886e-08 2.00958e-06 
0 0 0 0.00541712 -0.00968582 -0.00155119 0 884 12014 -8.85112e-05 4.74395e-05 0.000124917 2.50887e-09 4.9928e-07 
0 0 0 -0.00795058 0.00946321 -0.00152217 0 884 2268 1.67381e-05 -3.18902e-05 0.000369347 5.44198e-09 1.08338e-06 
0 0 0 -1.29681e-44 7.54439e-20 3.53499e-12 0 884 3064 -9.68862e-46 5.25978e-06 -1.62002 1.22522e-06 0.0003 
0 0 0 -0.00900911 -0.0123067 0.00163629 0 884 3289 -2.10873e-06 -1.23387e-05 3.78815e-05 1.51824e-09 3.02102e-07 
0 0 0 -5.50442e-277 8.44856e-20 2.1283e-15 0 884 871 -1.71815e-278 5.25978e-06 -1.62002 1.22522e-06 0.0003 
0 0 0 4.00361e-129 8.47412e-20 -3.53501e-12 0 884 1962 6.29558e-130 5.25978e-06 -1.62002 1.22522e-06 0.0003 
0 0 0 0.0124169 0.00739983 -0.0284643 0 884 6287 0.00052209 -6.25031e-05 0.00105164 8.44908e-09 1.68266e-06 
0 0 0 -0.0135392 0.0230985 -0.000813725 0 884 2992 6.71662e-05 -6.35962e-05 0.000184995 3.43867e-09 6.84395e-07 
0 0 0 0.0611577 -0.00642988 0.00399448 0 884 12592 -1.5098e-05 2.56635e-06 4.52145e-05 2.05957e-09 4.09844e-07 
0 0 0 2.88826e-05 -0.00616894 0.00264362 0 884 5454 -6.69723e-05 -1.26648e-05 0.000154781 3.51533e-09 6.99658e-07 
0 0 0 -0.00638901 0.0153894 -0.00530058 0 884 9794 6.66124e-05 -0.000128685 0.000289807 4.12603e-09 8.21269e-07 
0 0 0 3.31419e-17 -8.85605e-17 -5.89794e-12 0 884 2565 -0.000420164 -0.00379733 -1.62002 1.22522e-06 0.0003 
0 0 0 -1.77303e-229 7.53593e-20 3.53501e-12 0 884 2145 -9.22787e-230 5.25978e-06 -1.62002 1.22522e-06 0.0003 
0 0 0 -0.0246441 0.0191509 -0.00143428 0 884 13549 9.94013e-05 -0.000172023 0.000397354 5.73518e-09 1.14179e-06 
0 0 0 -0.0143266 0.00666783 -3.48043e-05 0 884 3704 -3.55466e-05 0.0001101 0.000115363 2.58484e-09 5.14403e-07 
0 0 0 -0.00388745 0.00921772 -0.001997 0 884 10308 -6.25573e-05 -0.000171597 7.03775e-05 1.54888e-09 3.08198e-07 
0 0 0 7.66521e-130 -3.78527e-20 -1.1815e-12 0 884 7394 2.05975e-130 5.25978e-06 -1.62002 1.22522e-06 0.0003 
0 0 0 0.0141507 0.0256253 0.0295427 0 884 16569 -2.16037e-05 4.78124e-05 -0.000166158 2.7144e-09 5.40194e-07 
0 0 0 0.0225497 0.0308921 0.00867932 0 884 12850 -2.95533e-05 -0.000113385 0.000234346 5.26867e-09 1.04886e-06 
0 0 0 -0.018504 0.0141353 -0.00364592 0 884 10074 0.000520605 -7.80108e-05 0.000599851 7.36675e-09 1.46691e-06 
0 0 0 2.10707e-302 7.54245e-20 -2.36054e-12 0 884 3089 -4.61515e-307 5.25978e-06 -1.62002 1.22522e-06 0.0003 
0 0 0 -7.15382e-13 8.76746e-12 -6.95594e-12 0 884 1269 2.09192e-14 5.25978e-06 -1.62002 1.22522e-06 0.0003 
0 0 0 -0.00570322 0.0604752 0.0144744 0 884 9778 0.00012997 -0.000259043 0.00115698 1.34562e-08 2.68152e-06 
0 0 0 -0.0139869 0.00937195 -0.000486104 0 884 1651 0.000388348 3.52916e-05 0.000255902 4.34233e-09 8.64346e-07 
0 0 0 0.00541209 0.0123142 0.00219043 0 884 14638 -1.04688e-05 -8.21946e-05 7.16999e-06 8.95894e-10 1.78252e-07 
0 0 0 -0.00509686 0.0264225 -0.000595635 0 884 1828 1.15233e-05 -2.59613e-05 5.68076e-05 1.51793e-09 3.02039e-07 
0 0 0 -0.022288 0.0233849 0.00583227 0 884 11619 0.000324342 5.12522e-05 0.000831106 1.026e-08 2.04377e-06 
0 0 0 -0.0140082 0.00785913 0.00367424 0 884 6876 0.000109476 1.73087e-05 0.000221671 4.47993e-09 8.91751e-07 
0 0 0 -1.77521e-209 1.87021e-20 2.36058e-12 0 884 7839 5.78221e-210 5.25978e-06 -1.62002 1.22522e-06 0.0003 
0 0 0 0.0166064 0.0144521 -0.00645364 0 884 2425 -0.000146327 -1.4466e-05 0.000294081 4.03203e-09 8.0255e-07 
0 0 0 -0.0156432 -7.91002e-05 0.00493693 0 884 4860 0.000431526 -3.83868e-05 0.000866459 1.04346e-08 2.0786e-06 
0 0 0 -0.00992922 0.0013312 -0.00116238 0 884 6770 0.000268481 -5.66645e-05 0.000243532 4.1122e-09 8.18514e-07 
0 0 0 0.0101443 0.00707404 -0.00292371 0 884 14585 -0.000199909 -0.000115849 0.000462102 6.19272e-09 1.23295e-06 
0 0 0 0.00836651 0.0124122 -0.00139119 0 884 10053 -1.64009e-05 0.000155644 0.000313012 4.86585e-09 9.68617e-07 
0 0 0 0.00103672 0.0146459 -0.00214071 0 884 1707 -4.50627e-05 -0.000275733 0.000558781 7.17122e-09 1.42794e-06 
0 0 0 -0.0150388 0.0163955 0.00499315 0 884 6883 0.000150046 -0.000168632 1.28354e-05 1.59487e-09 3.17353e-07 
0 0 0 0.059332 -0.0299913 0.00882448 0 884 2270 2.48511e-05 -3.26257e-05 0.000971535 1.16052e-08 2.31211e-06 
0 0 0 0.00294707 0.000889367 0.000395477 0 884 6671 -1.25886e-05 -1.05705e-06 2.52658e-05 1.01513e-09 2.0198e-07 
0 0 0 -0.0131605 0.0190106 0.0105427 0 884 13364 0.000144495 -5.67104e-05 0.00031045 6.30197e-09 1.25472e-06 
0 0 0 1.19433e-60 8.4697e-20 4.72345e-12 0 884 5274 -1.37436e-61 5.25978e-06 -1.62002 1.22522e-06 0.0003 
0 0 0 0.00922156 -0.00500676 0.00510199 0 884 1187 3.18689e-05 -1.5045e-05 7.04835e-05 2.66354e-09 5.30069e-07 
0 0 0 0.00068521 0.0104077 -0.00656248 0 884 6198 0.000287242 -0.000134971 0.000266232 3.69534e-09 7.35502e-07 
0 0 0 -0.00558166 0.00655404 -0.000940712 0 884 1416 -4.0348e-05 3.70438e-06 0.000306573 4.8515e-09 9.65758e-07 
0 0 0 4.03732e-16 -5.14034e-17 5.30875e-12 0 884 2130 0.0555498 0.00300563 -1.61665 1.22391e-06 0.000299584 
0 0 0 0.00484333 0.00133306 0.000581185 0 884 6929 -0.000129425 2.23186e-05 0.00027343 4.67585e-09 9.30772e-07 
0 0 0 -0.0117971 0.00206939 0.00755863 0 884 6257 -3.21989e-05 -8.20516e-08 6.43981e-05 2.94831e-09 5.86763e-07 
0 0 0 -0.00654267 0.00500456 -0.0175908 0 884 7884 9.80464e-05 1.6115e-05 8.46536e-05 1.45847e-10 2.90158e-08 
0 0 0 -2.72684e-16 5.15931e-17 5.30794e-12 0 884 4708 -0.0632475 -0.00341088 -1.62339 1.22653e-06 0.000300416 
0 0 0 -5.40161e-05 0.00589576 -0.00142635 0 884 13942 -0.000249627 8.73286e-05 0.000817361 9.3965e-09 1.87156e-06 
0 0 0 -6.90947e-15 1.15602e-17 -1.42723e-17 0 863 2723 -1.61852 0.00940664 2.20635e-05 1.22464e-06 0.000299814 
0 0 0 -6.96705e-15 5.78771e-17 1.21872e-17 0 863 4560 -1.62152 -0.013102 -2.92936e-05 1.2258e-06 0.000300186 
0 0 0 2.33011e-15 4.62991e-20 -2.06418e-302 0 862 444 -1.62002 5.25978e-06 2.62452e-307 1.22522e-06 0.0003 
0 0 0 -6.83678e-15 1.50948e-18 2.45678e-18 0 862 927 -1.62002 9.34591e-05 -8.55294e-07 1.22522e-06 0.0003 
0 0 0 0.00336184 -0.0396882 -0.0156759 0 854 1511 -1.2765e-05 5.90758e-06 -2.41601e-06 7.1582e-11 1.42409e-08 
0 0 0 -0.189819 0.254139 0.108177 0 854 15227 0.00394329 0.00148672 -0.00314336 1.24402e-08 2.47873e-06 
0 0 0 0.00196377 -0.0175778 0.00917863 0 854 5564 0.000288119 -5.7365e-06 -1.85545e-05 5.01066e-09 9.97461e-07 
0 0 0 0.0547751 0.0959881 -0.109176 0 854 11406 0.00548936 -0.000531062 0.00269281 3.80136e-08 7.59866e-06 
0 0 0 0.0141209 0.0396571 0.0348952 0 854 7782 -3.84799e-05 1.3881e-05 -1.48172e-05 2.25724e-09 4.4919e-07 
0 0 0 0.00644341 0.0591576 0.0649678 0 854 5439 -2.77462e-05 -8.51492e-06 -1.09526e-05 7.56147e-10 1.50445e-07 
0 0 0 0.0546795 0.111579 0.0485009 0 854 14257 0.000169749 -7.19536e-05 -4.50153e-05 1.03229e-08 2.05632e-06 
0 0 0 -0.00447581 0.0128817 0.0125081 0 854 14860 0.000159651 -5.56251e-05 -5.05398e-05 2.60218e-09 5.17855e-07 
0 0 0 -0.000317984 0.0478885 -0.127059 0 854 5864 0.000661361 -8.86725e-05 0.00031857 8.25556e-09 1.64408e-06 
0 0 0 -0.00466119 0.0432419 -0.00195126 0 854 4347 0.00235155 -0.000151265 -0.00108247 1.88781e-08 3.76454e-06 
0 0 0 -0.00640064 0.0233651 -0.00983568 0 854 13331 0.000616248 0.000218834 9.28676e-05 7.20759e-09 1.43519e-06 
0 0 0 0.00333007 0.0394554 0.0538503 0 854 5287 0.000320536 -0.000104761 -0.000121289 5.52423e-09 1.09977e-06 
0 0 0 0.0081343 -0.0217497 -0.00156316 0 854 16179 0.000113104 5.383e-05 -1.73341e-05 3.73145e-09 7.42693e-07 
0 0 0 -0.00142424 0.0166949 -0.00160807 0 854 5216 0.000268982 -0.000134485 1.33897e-06 4.37343e-09 8.70539e-07 
0 0 0 -0.0266692 0.036678 0.00867861 0 854 8081 0.000245583 -0.000449945 -6.4456e-06 1.15332e-09 2.29478e-07 
0 0 0 0.000672251 0.00622754 0.0230941 0 854 1332 -2.1125e-06 -9.69509e-07 -4.19184e-07 4.73481e-11 9.41966e-09 
0 0 0 -0.006318 0.00770395 0.0210699 0 854 6930 0.000194999 9.64841e-05 -1.40343e-05 2.83747e-09 5.64697e-07 
0 0 0 0.000706543 -0.00541426 0.00423146 0 854 1196 0.000586319 5.17469e-05 -2.37275e-06 7.72913e-09 1.53914e-06 
0 0 0 -0.0166579 0.0156933 -0.0207254 0 854 14370 0.000139374 -0.000255965 0.000319235 7.88297e-10 1.56842e-07 
0 0 0 -0.006385 -0.0189575 0.0297645 0 854 2727 0.000255023 0.000188516 0.000129066 3.58416e-09 7.13364e-07 
0 0 0 0.000241503 -0.0333139 0.0241934 0 854 6592 0.000390531 2.78237e-05 0.000182341 5.86526e-09 1.16771e-06 
0 0 0 -0.00309353 0.0113831 0.0171262 0 854 11259 0.000132406 -0.000220409 9.87258e-05 2.40087e-09 4.77781e-07 
0 0 0 -0.000369619 0.00478989 -0.0098996 0 854 14688 2.48944e-05 -1.15521e-05 4.63474e-06 8.62685e-10 1.71644e-07 
0 0 0 -0.0184025 -0.00345747 0.0427649 0 854 1659 6.82814e-05 7.32003e-05 -0.000162281 5.43424e-11 1.08111e-08 
0 0 0 -0.000812252 0.00717568 -0.0141073 0 854 1435 0.000159002 -3.76138e-05 4.63086e-05 3.09557e-09 6.16082e-07 
0 0 0 0.000844338 -0.00609429 0.0139907 0 854 11665 4.60282e-05 1.69018e-05 1.09063e-05 1.54662e-09 3.0775e-07 
0 0 0 0.000713566 0.00268994 0.011684 0 854 6568 0.000127905 -0.000163162 8.18254e-05 2.87607e-09 5.7238e-07 
0 0 0 -0.0138519 0.0784022 0.0108049 0 854 4599 0.00180347 -0.00045761 0.000227211 1.48982e-08 2.96941e-06 
0 0 0 -0.0327983 0.0938859 0.147215 0 854 10232 0.000884009 -0.000326171 0.000298296 6.70084e-09 1.3342e-06 
0 0 0 0.0015725 -0.00192081 -0.0152782 0 854 2873 0.000242907 3.48585e-05 4.28379e-05 4.45524e-09 8.86834e-07 
0 0 0 -0.000949911 0.0150575 0.0114824 0 854 8265 0.000569998 1.46699e-05 0.00013571 7.40301e-09 1.47414e-06 
0 0 0 -0.00358791 -0.00690093 0.0145897 0 854 9850 7.10838e-05 0.000143457 -5.75153e-05 1.31461e-09 2.61577e-07 
0 0 0 0.00303092 -0.0053123 0.0234153 0 854 15504 4.63015e-05 3.91759e-05 -3.87753e-07 1.91913e-09 3.8189e-07 
0 0 0 0.0025134 -0.0467233 0.159816 0 854 5943 1.47223e-06 7.35689e-07 -2.50098e-08 7.95145e-10 1.58205e-07 
0 0 0 -0.011502 0.00481778 0.00620375 0 854 11395 0.000354399 0.000120492 0.000104373 4.09347e-09 8.14785e-07 
0 0 0 -0.000431118 -0.0130141 0.00686172 0 854 14708 0.000113577 3.64267e-06 -4.84452e-05 2.50037e-09 4.97587e-07 
0 0 0 -0.00334803 -0.00552808 0.011076 0 854 6878 0.000373471 -3.35839e-06 -0.00011027 5.26647e-09 1.04842e-06 