ITEM: TIMESTEP
9850000
ITEM: NUMBER OF ENTRIES
314
ITEM: BOX BOUNDS ff ff ff
-0.01 0.45
-0.15 0.15
-0.08 0.1
ITEM: ENTRIES c_pwc[1] c_pwc[2] c_pwc[3] 
0 950 851 
0 948 1095 
0 850 41 
0 885 41 
0 855 471 
0 884 584 
0 854 589 
0 854 602 
0 854 674 
0 854 317 
0 854 760 
0 854 306 
0 853 570 
0 852 891 
0 852 760 
0 852 1127 
0 852 1225 
0 852 765 
0 852 888 
0 852 922 
0 894 548 
0 894 775 
0 852 1187 
0 852 1023 
0 855 993 
0 855 931 
0 855 627 
0 854 1115 
1 1861 146 
1 1874 146 
1 1873 146 
1 1889 146 
1 1883 146 
1 529 146 
1 530 146 
1 1828 146 
1 1842 146 
1 1830 146 
1 1831 146 
1 1827 146 
1 1871 146 
1 1869 146 
1 1868 146 
1 1892 146 
1 1893 146 
1 1885 146 
1 526 146 
1 527 146 
1 541 146 
1 2684 752 
1 2705 752 
1 2704 752 
1 2706 752 
1 2722 752 
1 2698 752 
1 2717 752 
0 885 270 
0 885 969 
0 885 48 
0 885 127 
0 885 52 
0 885 908 
0 885 276 
0 885 6 
0 885 79 
0 885 351 
0 885 45 
0 885 39 
0 885 393 
0 850 270 
0 850 969 
0 850 48 
0 850 127 
0 850 52 
0 850 908 
0 850 276 
0 850 6 
0 850 79 
0 850 351 
0 850 45 
0 851 39 
0 851 393 
0 894 896 
0 894 496 
0 894 1059 
0 894 997 
0 894 618 
0 852 1108 
0 852 273 
0 895 747 
0 895 1009 
0 853 1143 
0 927 1216 
0 953 1232 
0 961 1029 
0 961 40 
0 753 1029 
0 753 40 
0 911 1117 
0 886 15 
0 885 15 
0 850 15 
0 888 77 
0 853 332 
0 891 871 
0 888 701 
0 385 504 
0 385 1194 
0 381 319 
0 387 226 
0 369 138 
0 433 687 
0 405 470 
0 405 498 
0 431 313 
0 425 547 
0 415 783 
0 382 295 
0 380 743 
0 379 1171 
0 392 64 
0 390 413 
0 391 616 
0 364 435 
0 369 477 
0 438 228 
0 434 791 
0 432 1038 
0 435 358 
0 433 218 
0 424 298 
0 429 1177 
0 425 320 
0 419 31 
0 413 1137 
0 535 559 
0 384 327 
0 382 115 
0 390 867 
0 388 1069 
0 523 1109 
0 523 870 
0 519 1083 
0 370 542 
0 553 256 
0 551 191 
0 549 134 
0 398 1151 
0 396 1030 
1 1322 1151 
1 1323 1151 
0 438 371 
0 434 398 
0 432 686 
0 364 1097 
0 573 387 
0 430 464 
0 422 612 
0 569 804 
0 567 201 
0 418 571 
0 418 1182 
0 416 1022 
0 412 143 
0 537 664 
0 535 117 
0 531 694 
0 529 913 
0 545 587 
0 539 875 
0 525 944 
0 524 880 
0 553 101 
0 553 170 
0 553 388 
0 549 893 
0 550 85 
0 587 132 
0 585 722 
0 559 994 
0 555 247 
0 555 1079 
0 560 444 
0 583 17 
0 581 38 
0 579 148 
0 579 521 
0 575 158 
0 573 733 
0 573 312 
0 571 1157 
0 580 932 
0 567 412 
0 563 447 
0 532 379 
0 530 840 
0 528 537 
0 527 71 
0 546 1010 
0 546 227 
0 546 754 
0 540 884 
0 545 208 
0 520 98 
0 525 280 
0 552 822 
0 552 66 
0 588 605 
0 586 614 
0 586 259 
0 586 47 
0 558 670 
0 580 87 
0 580 366 
0 578 725 
0 578 817 
0 576 28 
0 572 346 
0 573 217 
0 570 171 
0 568 509 
0 568 422 
0 566 152 
0 1061 242 
0 1061 528 
0 1069 124 
0 1065 50 
0 546 565 
0 540 485 
0 1049 81 
0 1049 921 
0 1044 864 
0 1044 549 
0 1077 168 
0 1115 147 
0 1043 853 
0 1087 97 
0 1083 25 
0 1083 608 
0 1081 220 
0 1107 135 
0 1103 223 
0 1101 405 
0 1099 771 
0 582 737 
0 576 642 
0 572 282 
0 584 367 
0 1095 837 
0 1089 277 
0 564 611 
0 1063 279 
0 1062 5 
0 1061 349 
0 1059 500 
0 1059 793 
0 1059 939 
0 1055 93 
0 1067 46 
0 1067 643 
0 1051 200 
0 1047 372 
0 1042 119 
0 1080 67 
0 1080 129 
0 1115 302 
0 1110 32 
0 1109 494 
0 1086 478 
0 1082 530 
0 1109 770 
0 1103 75 
0 1101 212 
0 1099 736 
0 1089 487 
0 1059 246 
0 1297 238 
0 1295 27 
0 1070 62 
0 1068 649 
0 1051 1048 
0 1050 1048 
0 1048 506 
0 1046 198 
0 1052 78 
0 1080 100 
0 1076 80 
0 1074 617 
0 1114 683 
0 1309 847 
0 1088 596 
0 1084 248 
0 1083 248 
0 1331 11 
0 1108 697 
0 1108 163 
0 1098 408 
0 1092 1102 
0 1279 441 
0 1295 120 
0 1295 94 
0 1293 83 
0 1275 86 
0 1273 858 
0 1271 292 
0 1303 646 
0 1299 476 
0 1341 518 
0 1337 429 
0 1323 484 
0 1315 461 
0 98 166 
0 143 24 
0 122 174 
