ITEM: TIMESTEP
8050000
ITEM: NUMBER OF ENTRIES
300
ITEM: BOX BOUNDS ff ff ff
-0.01 0.45
-0.15 0.15
-0.08 0.1
ITEM: ENTRIES c_pwc[1] c_pwc[2] c_pwc[3] 
0 950 140 
0 954 823 
0 850 41 
0 885 41 
0 855 287 
0 855 172 
0 855 796 
0 855 815 
0 884 522 
0 854 860 
0 852 860 
0 894 392 
0 894 781 
0 894 482 
0 894 845 
0 894 553 
0 894 538 
0 894 216 
0 894 407 
0 894 805 
0 855 814 
0 855 676 
0 855 229 
0 855 65 
0 855 781 
0 854 188 
0 854 483 
0 948 776 
1 2698 752 
1 2717 752 
0 885 270 
0 885 48 
0 885 127 
0 885 52 
0 885 908 
0 885 276 
0 885 6 
0 885 79 
0 885 351 
0 885 45 
0 885 39 
0 885 393 
0 850 270 
0 850 48 
0 850 127 
0 850 52 
0 850 908 
0 850 276 
0 850 6 
0 850 79 
0 850 351 
0 850 45 
0 851 39 
0 851 393 
1 1857 893 
0 895 846 
0 895 658 
0 895 618 
0 895 686 
1 1861 146 
1 1874 146 
1 1873 146 
1 1883 146 
1 1889 146 
1 530 146 
1 529 146 
1 1828 146 
1 1831 146 
1 1842 146 
1 1830 146 
1 1827 146 
1 1872 74 
1 1871 146 
1 1869 146 
1 1868 146 
1 1892 146 
1 1893 146 
1 1885 146 
1 526 146 
1 527 146 
1 541 146 
0 894 318 
0 894 486 
0 894 360 
0 895 834 
0 895 827 
0 937 323 
0 929 733 
0 940 1008 
0 927 1006 
0 961 40 
0 753 40 
0 886 15 
0 885 15 
0 850 15 
0 967 256 
0 893 347 
0 895 872 
0 887 383 
0 893 126 
0 892 747 
0 892 224 
0 379 612 
0 389 942 
0 389 454 
0 371 736 
0 369 982 
0 364 689 
0 409 914 
0 407 187 
0 405 765 
0 386 435 
0 384 132 
0 382 666 
0 378 175 
0 383 312 
0 375 202 
0 394 362 
0 394 1 
0 390 532 
0 388 371 
0 388 637 
0 387 622 
0 371 431 
0 367 226 
0 400 14 
0 396 569 
0 399 135 
0 432 528 
0 437 816 
0 433 104 
0 433 609 
0 408 154 
0 408 215 
0 408 405 
0 409 269 
0 430 743 
0 425 424 
0 411 191 
0 411 921 
0 382 346 
0 543 89 
0 392 171 
0 392 771 
0 390 470 
0 388 837 
0 521 737 
0 521 864 
0 368 576 
0 400 616 
0 400 822 
0 396 614 
0 434 98 
0 561 646 
0 559 838 
0 559 504 
0 406 148 
0 406 761 
0 581 939 
0 579 302 
0 577 636 
0 577 220 
0 565 280 
0 412 894 
0 419 880 
0 533 208 
0 527 462 
0 545 315 
0 545 484 
0 543 793 
0 543 292 
0 539 330 
0 544 5 
0 542 485 
0 540 613 
0 553 672 
0 549 241 
0 549 120 
0 547 559 
0 585 71 
0 586 664 
0 584 47 
0 583 47 
0 561 913 
0 562 782 
0 581 178 
0 581 412 
0 577 129 
0 573 57 
0 571 266 
0 565 307 
0 538 214 
0 538 587 
0 532 363 
0 528 238 
0 533 232 
0 529 3 
1 2178 363 
0 544 875 
0 544 599 
0 542 853 
0 542 509 
0 540 617 
0 543 228 
0 524 25 
0 526 325 
0 553 615 
0 591 411 
0 588 520 
0 586 840 
0 562 565 
0 560 101 
0 582 530 
0 578 227 
0 576 537 
0 574 596 
0 564 177 
0 1057 163 
0 1057 168 
0 1053 418 
0 538 88 
0 530 190 
0 530 847 
0 1065 630 
0 542 578 
0 1049 568 
0 1047 83 
0 1047 94 
0 1047 86 
0 520 143 
0 1073 90 
0 584 372 
0 1087 478 
0 1087 24 
0 1085 817 
0 1081 155 
0 1107 87 
0 582 99 
0 580 376 
0 580 236 
0 566 75 
0 1064 413 
0 1062 46 
0 1054 36 
0 1070 335 
0 1068 219 
0 1047 162 
0 1047 201 
0 1045 109 
0 1045 169 
0 1076 487 
0 1074 166 
0 1115 119 
0 1113 670 
0 1113 441 
0 1112 549 
0 1109 848 
0 1088 422 
0 1087 212 
0 1083 62 
0 1101 267 
0 1098 683 
0 1094 255 
0 1093 80 
0 1093 93 
0 1093 33 
0 1091 298 
0 1091 667 
0 1281 82 
0 1070 67 
0 1265 13 
0 1048 379 
0 1046 13 
0 1076 234 
0 1088 246 
0 1086 556 
0 1085 556 
0 1084 374 
0 1084 11 
0 1084 500 
0 1082 408 
0 1331 205 
0 1323 476 
0 1108 147 
0 1103 277 
0 1092 349 
0 1287 97 
0 1283 19 
0 1279 304 
0 1305 152 
0 1309 444 
0 1307 117 
0 1328 259 
0 1321 281 
0 157 198 
0 156 198 
0 155 32 
0 154 32 
0 114 461 
0 115 461 
