ITEM: TIMESTEP
16500000
ITEM: NUMBER OF ATOMS
495
ITEM: BOX BOUNDS ff ff ff
-0.01 0.45
-0.15 0.15
-0.08 0.1
ITEM: ATOMS id type x y z ix iy iz vx vy vz fx fy fz c_cc_1 c_cc_2 c_cc_3 c_cc_4 c_cc_5 c_cc_6 c_cc_7 c_cc_8 c_cc_9 c_cc_10 c_cc_11 c_cc_12 c_cc_13 c_cc_14 c_cc_15 c_cc_16 f_fppacc radius 
8153 8 0.0964678 -0.0274843 -0.0485103 0 0 0 -0.764838 -11.7777 6.81714 0 -8.0262e-05 0 0 0 0 0 0 0 0 0 0 0 0 0 0 0 0 0 0 0.004 
8243 11 0.0333876 -0.018002 -0.0531792 0 0 0 -2.91795 -16.5788 -2.37223 0.267331 1.14098 0.44239 0 0 0 0 0 0 0 0 0 0 0 0 0 0 0 0 0 0.004 
8202 3 0.0682166 -0.0207705 -0.0519119 0 0 0 1.48911 -13.2163 3.99857 0 -8.0262e-05 0 0 0 0 0 0 0 0 0 0 0 0 0 0 0 0 0 0 0.004 
8072 6 0.0141825 -0.00803594 -0.0436242 0 0 0 0.128602 -1.25325 -0.317352 0 -8.0262e-05 0 0 0 0 0 0 0 0 0 0 0 0 0 0 0 0 0 0 0.004 
8193 10 0.00663894 -0.00486593 -0.0462391 0 0 0 0.0689401 -5.50888 -3.92483 0 -8.0262e-05 0 0 0 0 0 0 0 0 0 0 0 0 0 0 0 0 0 1 0.004 
8216 2 0.0991599 -0.0451239 -0.0331171 0 0 0 -0.00709222 -9.44413 9.96103 0.0429654 0.365125 0.176543 0 1 0 0 0 0 0 0 0 0 0 0 0 0 0 0 1 0.004 
8095 16 0.0994484 -0.0373462 -0.0313448 0 0 0 0.602235 -8.90048 8.65405 -0.000303897 -0.00483999 -0.00234702 0 1 0 0 0 0 0 0 0 0 0 0 0 0 0 0 2 0.004 
7693 7 0.0954749 -0.0383414 0.085247 0 0 0 0.0330845 -1.34574 0.388395 0 -8.0262e-05 0 0 0 0 0 0 0 0 0 0 0 0 0 0 0 0 0 1 0.004 
7915 6 0.0948687 -0.0552911 -0.00802021 0 0 0 3.84317 -4.12091 20.2124 0 -8.0262e-05 0 0 0 0 0 0 0 0 0 0 0 0 0 0 0 0 0 0 0.004 
8184 12 0.0463352 -0.0557214 -0.00123534 0 0 0 5.29589 0.159711 9.61349 0 -8.0262e-05 0 0 0 0 0 0 0 0 0 0 0 0 0 0 0 0 0 0 0.004 
8212 9 0.0927559 -0.0556865 0.0048296 0 0 0 2.96961 3.29936 18.8861 0.0236169 0.112105 0.00130457 0 0 0 0 0 0 0 0 0 0 0 0 0 0 0 0 0 0.004 
8067 7 0.101495 -0.0558799 0.0028262 0 0 0 5.32557 -0.419621 14.0119 -0.154137 0.27329 -0.0152914 0 0 0 0 0 0 0 0 0 0 0 0 0 0 0 0 0 0.004 
8207 6 0.0863108 -0.0498896 0.00676399 0 0 0 3.58495 0.617548 26.6885 0 -8.0262e-05 0 0 0 0 0 0 0 0 0 0 0 0 0 0 0 0 0 0 0.004 
8008 9 0.102177 -0.0532492 0.0165255 0 0 0 1.13055 2.83391 8.82715 0 -8.0262e-05 0 0 0 0 0 0 0 0 0 0 0 0 0 0 0 0 0 1 0.004 
7769 13 0.104054 -0.0441785 0.018064 0 0 0 3.05202 3.63016 13.3985 0 -8.0262e-05 0 0 0 0 0 0 0 0 0 0 0 0 0 0 0 0 0 2 0.004 
8092 3 0.00755475 -0.0481607 0.0171307 0 0 0 0.0391199 0.532395 1.51188 0 -8.0262e-05 0 0 0 0 0 0 0 0 0 0 0 0 0 0 0 0 0 0 0.004 
8006 3 0.0214598 -0.0501527 0.0245247 0 0 0 -2.69694 3.93944 9.70122 0 -8.0262e-05 0 0 0 0 0 0 0 0 0 0 0 0 0 0 0 0 0 1 0.004 
8187 7 0.0787658 -0.0486172 0.0273369 0 0 0 0.785932 6.21957 11.8825 0 -8.0262e-05 0 0 0 0 0 0 0 0 0 0 0 0 0 0 0 0 0 0 0.004 
8133 9 0.00920156 -0.0501165 0.024948 0 0 0 -0.0393387 0.621186 1.5928 1.09338e-06 -0.000156717 3.20907e-05 0 0 0 0 0 0 0 0 0 0 0 0 0 0 0 0 0 0.004 
8181 9 0.00698438 -0.0449975 0.032137 0 0 0 0.38967 0.949604 1.3441 0 -8.0262e-05 0 0 0 0 0 0 0 0 0 0 0 0 0 0 0 0 0 0 0.004 
8152 7 0.103684 -0.00814032 0.0553479 0 0 0 2.91953 15.5865 1.37923 -0.0017193 0.0214007 -0.290442 0 0 0 0 0 0 0 0 0 0 0 0 0 0 0 0 0 0.004 
8232 7 0.082011 -0.00415029 0.0555956 0 0 0 2.72799 12.7326 0.886628 0 -8.0262e-05 0 0 0 0 0 0 0 0 0 0 0 0 0 0 0 0 0 0 0.004 
8199 13 0.0875584 0.0012724 -0.0559432 0 0 0 -1.30635 -13.3561 -0.410489 -7.80687e-05 5.96341e-05 -0.014354 0 0 0 0 0 0 0 0 0 0 0 0 0 0 0 0 0 0.004 
8148 9 0.0535128 0.135954 -0.0581219 0 0 0 0.134619 0.0921201 -0.561904 0 -8.0262e-05 0 0 0 0 0 0 0 0 0 0 0 0 0 0 0 0 0 0 0.004 
8231 1 0.0674062 0.00746386 -0.055262 0 0 0 6.29392 -15.3094 -3.32459 0 -8.0262e-05 0 0 0 0 0 0 0 0 0 0 0 0 0 0 0 0 0 0 0.004 
8214 10 0.0733829 0.0135917 -0.0540295 0 0 0 9.07777 -16.2847 -4.33635 0 -8.0262e-05 0 0 0 0 0 0 0 0 0 0 0 0 0 0 0 0 0 0 0.004 
8208 7 0.0868572 0.0156353 -0.0535609 0 0 0 3.4234 -12.692 -4.26504 0 -8.0262e-05 0 0 0 0 0 0 0 0 0 0 0 0 0 0 0 0 0 0 0.004 
7996 3 -0.00405177 0.120809 -0.0531168 0 0 0 -0.296004 -0.203069 -0.385248 0 -8.0262e-05 0 0 0 0 0 0 0 0 0 0 0 0 0 0 0 0 0 1 0.004 
8203 6 0.00509262 0.0160065 -0.0490322 0 0 0 0.00941839 -2.23234 -1.89615 0 -8.0262e-05 0 0 0 0 0 0 0 0 0 0 0 0 0 0 0 0 0 0 0.004 
8237 6 0.0130625 0.0236315 -0.0474305 0 0 0 0.736859 -2.22441 -1.99159 0 -8.0262e-05 0 0 0 0 0 0 0 0 0 0 0 0 0 0 0 0 0 0 0.004 
7998 7 0.075154 0.021594 -0.0504686 0 0 0 6.70644 -12.9064 -6.60637 0 -8.0262e-05 0 0 0 0 0 0 0 0 0 0 0 0 0 0 0 0 0 0 0.004 
8218 5 0.0846064 0.0241615 -0.0503133 0 0 0 -0.77851 -12.1338 -6.53568 0 -8.0262e-05 0 0 0 0 0 0 0 0 0 0 0 0 0 0 0 0 0 0 0.004 
8234 9 0.0524726 0.00508054 -0.0450126 0 0 0 5.28847 -18.557 -2.52432 0 -8.0262e-05 0 0 0 0 0 0 0 0 0 0 0 0 0 0 0 0 0 0 0.004 
8108 10 0.0930244 0.0317773 -0.046013 0 0 0 -1.21042 -7.14216 -5.56807 0 -8.0262e-05 0 0 0 0 0 0 0 0 0 0 0 0 0 0 0 0 0 1 0.004 
8041 5 0.00549294 0.129658 -0.0455063 0 0 0 -0.0787882 -0.0817007 -0.388505 0 -8.0262e-05 0 0 0 0 0 0 0 0 0 0 0 0 0 0 0 0 0 0 0.004 
7813 10 0.0997459 0.0273327 -0.0444976 0 0 0 -2.6841 -9.54689 -6.41378 0 -8.0262e-05 0 0 0 0 0 0 0 0 0 0 0 0 0 0 0 0 0 1 0.004 
8225 16 0.0465454 0.131899 -0.0396136 0 0 0 0.287057 0.508841 -0.29303 0 -8.0262e-05 0 0 0 0 0 0 0 0 0 0 0 0 0 0 0 0 0 0 0.004 
8020 13 0.0109778 0.142861 -0.0404755 0 0 0 -0.409715 1.46343 -0.763889 0 -8.0262e-05 0 0 0 0 0 0 0 0 0 0 0 0 0 0 0 0 0 1 0.004 
8118 11 0.0836988 0.0385758 -0.0403484 0 0 0 0.790334 -8.58171 -8.18393 -0.126342 -0.106313 0.135032 0 0 0 0 0 0 0 0 0 0 1 0 0 0 0 0 2 0.004 
8082 10 0.0915728 0.0383871 -0.0407267 0 0 0 2.12634 -6.32038 -7.63924 -0.536461 -0.151767 0.243984 0 0 0 0 0 0 0 0 0 0 1 0 0 0 0 0 5 0.004 
8106 2 0.000547967 0.129683 -0.0371631 0 0 0 -0.265851 0.350938 -0.503652 0 -8.0262e-05 0 0 0 0 0 0 0 0 0 0 0 0 0 0 0 0 0 0 0.004 
7880 12 -0.00670215 0.134893 -0.0333601 0 0 0 -0.571588 0.213409 -0.011468 0 -8.0262e-05 0 0 0 0 0 0 0 0 0 0 0 0 0 0 0 0 0 0 0.004 
8245 15 0.0198608 0.040658 -0.0308177 0 0 0 -0.450319 -1.40288 -0.128761 0 -8.0262e-05 0 0 0 0 0 0 0 0 0 0 0 0 0 0 0 0 0 0 0.004 
8236 5 0.0280397 0.039885 -0.0315408 0 0 0 -0.368653 -1.43892 -0.0448769 0 -8.0262e-05 0 0 0 0 0 0 0 0 0 0 0 0 0 0 0 0 0 0 0.004 
8170 14 0.00516076 0.0490392 -0.0296102 0 0 0 0.0633111 -0.565248 0.119504 0 -8.0262e-05 0 0 0 0 0 0 0 0 0 0 0 0 0 0 0 0 0 0 0.004 
8085 16 0.0582514 0.0442064 -0.0342474 0 0 0 -2.39997 -7.04729 -10.9737 0 -8.0262e-05 0 0 0 0 0 0 0 0 0 0 0 0 0 0 0 0 0 0 0.004 
7638 8 0.0325241 0.0528453 -0.0309794 0 0 0 0.229785 -0.983781 -0.0145357 0 -8.0262e-05 0 0 0 0 0 0 0 0 0 0 0 0 0 0 0 0 0 3 0.004 
8248 11 0.0468983 0.0560685 -0.0306418 0 0 0 0 -1.04905 -0.0001 0 -8.0262e-05 0 0 0 0 0 0 0 0 0 0 0 0 0 0 0 0 0 0 0.004 
8221 2 0.0299098 0.0605381 -0.0301046 0 0 0 0.0138121 -1.06771 -0.163009 0 -8.0262e-05 0 0 0 0 0 0 0 0 0 0 0 0 0 0 0 0 0 0 0.004 
8239 8 0.0102267 0.0685945 -0.0306199 0 0 0 0.168705 -0.121215 0.260852 0 -8.0262e-05 0 0 0 0 0 0 0 0 0 0 0 0 0 0 0 0 0 0 0.004 
8192 8 0.00500096 0.0749 -0.0308538 0 0 0 0.00954523 0.0778276 0.165115 0 -8.0262e-05 0 0 0 0 0 0 0 0 0 0 0 0 0 0 0 0 0 1 0.004 
8198 11 0.0138848 0.079823 -0.0309517 0 0 0 0.0657368 0.222435 0.0144562 0 -8.0262e-05 0 0 0 0 0 0 0 0 0 0 0 0 0 0 0 0 0 0 0.004 
8233 7 0.028434 0.0806142 -0.0294496 0 0 0 -0.0107708 -0.976829 0.043495 0 -8.0262e-05 0 0 0 0 0 0 0 0 0 0 0 0 0 0 0 0 0 0 0.004 
8240 9 0.0365791 0.0863142 -0.0290188 0 0 0 0.0175429 -0.204112 0.280796 0 -8.0262e-05 0 0 0 0 0 0 0 0 0 0 0 0 0 0 0 0 0 0 0.004 
8060 16 0.00522585 0.0905305 -0.030495 0 0 0 0.0589422 0.209704 0.107293 0 -8.0262e-05 0 0 0 0 0 0 0 0 0 0 0 0 0 0 0 0 0 2 0.004 
8241 8 0.036559 0.100293 -0.0301309 0 0 0 0 -1.0981 -0.0001 0 -8.0262e-05 0 0 0 0 0 0 0 0 0 0 0 0 0 0 0 0 0 0 0.004 
8034 10 0.0061867 0.10956 -0.0307966 0 0 0 0.12522 0.187223 0.0266322 0 -8.0262e-05 0 0 0 0 0 0 0 0 0 0 0 0 0 0 0 0 0 0 0.004 
8021 3 0.0455045 0.111898 -0.0291229 0 0 0 -0.153412 1.44774 0.123426 0 -8.0262e-05 0 0 0 0 0 0 0 0 0 0 0 0 0 0 0 0 0 0 0.004 
8201 2 0.0322139 0.137537 -0.0299049 0 0 0 1.09882 1.5196 -0.108184 0 -8.0262e-05 0 0 0 0 0 0 0 0 0 0 0 0 0 0 0 0 0 0 0.004 
8125 15 0.0786471 0.0447369 -0.0335334 0 0 0 -2.81003 -6.7027 -10.5121 0 -8.0262e-05 0 0 0 0 0 0 0 0 0 0 0 0 0 0 0 0 0 0 0.004 
8173 9 0.0346658 0.0629041 -0.0240893 0 0 0 -0.897532 -1.35868 0.858343 0 -8.0262e-05 0 0 0 0 0 0 0 0 0 0 0 0 0 0 0 0 0 0 0.004 
8112 7 0.0206961 0.0668802 -0.0253484 0 0 0 0.753398 -0.0929464 -0.48106 0 -8.0262e-05 0 0 0 0 0 0 0 0 0 0 0 0 0 0 0 0 0 1 0.004 
8215 12 0.00976741 0.0739961 -0.0244897 0 0 0 -0.0782859 0.0592223 0.255149 0 -8.0262e-05 0 0 0 0 0 0 0 0 0 0 0 0 0 0 0 0 0 4 0.004 
8190 9 0.0051819 0.0973078 -0.0244158 0 0 0 0.000985469 0.0156087 -0.0746666 0 -8.0262e-05 0 0 0 0 0 0 0 0 0 0 0 0 0 0 0 0 0 0 0.004 
8242 9 0.0241286 0.109545 -0.0280189 0 0 0 0 -0.535711 0.381274 0 -8.0262e-05 0 0 0 0 0 0 0 0 0 0 0 0 0 0 0 0 0 0 0.004 
8119 11 0.0479253 0.124327 -0.0267656 0 0 0 0.152071 1.22784 0.217457 0 -8.0262e-05 0 0 0 0 0 0 0 0 0 0 0 0 0 0 0 0 0 0 0.004 
8137 6 0.00308598 0.127744 -0.0276617 0 0 0 -0.609238 0.865881 0.000982073 0 -8.0262e-05 0 0 0 0 0 0 0 0 0 0 0 0 0 0 0 0 0 0 0.004 
8159 11 0.00785539 0.144107 -0.0265412 0 0 0 -0.41247 1.03082 0.11548 0 -8.0262e-05 0 0 0 0 0 0 0 0 0 0 0 0 0 0 0 0 0 0 0.004 
8086 5 0.00500751 0.0812506 -0.0227764 0 0 0 0.0294763 0.609932 0.52763 0 -8.0262e-05 0 0 0 0 0 0 0 0 0 0 0 0 0 0 0 0 0 1 0.004 
8249 12 0.042222 0.0921142 -0.0224284 0 0 0 0.0124097 -0.164531 1.72525 0 -8.0262e-05 0 0 0 0 0 0 0 0 0 0 0 0 0 0 0 0 0 0 0.004 
8247 8 0.0180323 0.0960518 -0.0193388 0 0 0 0.202905 -1.24117 2.10819 0 -8.0262e-05 0 0 0 0 0 0 0 0 0 0 0 0 0 0 0 0 0 0 0.004 
8024 8 0.00403746 0.118173 -0.0211049 0 0 0 -0.171357 0.157412 0.0331879 0 -8.0262e-05 0 0 0 0 0 0 0 0 0 0 0 0 0 0 0 0 0 0 0.004 
8169 10 0.0469681 0.117249 -0.023134 0 0 0 0.0313265 1.25314 0.263546 0 -8.0262e-05 0 0 0 0 0 0 0 0 0 0 0 0 0 0 0 0 0 0 0.004 
8223 11 0.0165376 0.138415 -0.0203599 0 0 0 0.257738 2.81125 0.888648 0 -8.0262e-05 0 0 0 0 0 0 0 0 0 0 0 0 0 0 0 0 0 1 0.004 
8138 7 0.0391512 0.140934 -0.0240925 0 0 0 0.0105276 0.321286 0.101864 0 -8.0262e-05 0 0 0 0 0 0 0 0 0 0 0 0 0 0 0 0 0 0 0.004 
7983 8 0.00737803 0.0488807 -0.0157526 0 0 0 -0.520232 1.69923 1.57243 0 -8.0262e-05 0 0 0 0 0 0 0 0 0 0 0 0 0 0 0 0 0 0 0.004 
8230 16 0.0241354 0.0806189 -0.0172837 0 0 0 0.252984 0.337151 0.605831 0 -8.0262e-05 0 0 0 0 0 0 0 0 0 0 0 0 0 0 0 0 0 0 0.004 
6791 3 0.00611868 0.0938496 -0.0166673 0 0 0 0.10034 0.0304912 0.00250838 0 -8.0262e-05 0 0 0 0 0 0 0 0 0 0 0 0 0 0 0 0 0 4 0.004 
8150 14 0.00226079 0.127724 -0.0165029 0 0 0 -0.169318 0.228147 0.247108 0 -8.0262e-05 0 0 0 0 0 0 0 0 0 0 0 0 0 0 0 0 0 1 0.004 
8129 7 0.0477774 0.135869 -0.0160527 0 0 0 0.17363 0.36474 0.189964 0 -8.0262e-05 0 0 0 0 0 0 0 0 0 0 0 0 0 0 0 0 0 0 0.004 
7878 9 0.00505477 0.0396559 -0.0166702 0 0 0 0.0893152 -1.12065 -3.16449 0 -8.0262e-05 0 0 0 0 0 0 0 0 0 0 0 0 0 0 0 0 0 0 0.004 
8165 14 0.102525 0.043365 0.0345835 0 0 0 -8.24473 7.73108 -5.58515 0 -8.0262e-05 0 0 0 0 0 0 0 0 0 0 0 0 0 0 0 0 0 0 0.004 
8194 11 0.0141985 0.0858686 -0.0131085 0 0 0 0.260685 -0.120382 0.543944 0 -8.0262e-05 0 0 0 0 0 0 0 0 0 0 0 0 0 0 0 0 0 0 0.004 
8116 4 0.0179406 0.105879 -0.0127427 0 0 0 0.281052 0.204535 1.84503 0 -8.0262e-05 0 0 0 0 0 0 0 0 0 0 0 0 0 0 0 0 0 2 0.004 
8019 10 0.0171178 0.11402 -0.0143209 0 0 0 0.100869 0.337559 0.370316 0 -8.0262e-05 0 0 0 0 0 0 0 0 0 0 0 0 0 0 0 0 0 0 0.004 
8134 11 0.0402104 0.119091 -0.0138692 0 0 0 0.136705 0.32124 0.266382 0 -8.0262e-05 0 0 0 0 0 0 0 0 0 0 0 0 0 0 0 0 0 0 0.004 
8250 15 0.0264741 0.054955 -0.0162921 0 0 0 9.7481 0.578862 -16.7731 0 -8.0262e-05 0 0 0 0 0 0 0 0 0 0 0 0 0 0 0 0 0 0 0.004 
7068 14 0.0820893 0.0543117 -0.012445 0 0 0 -4.36997 -1.33103 -5.66504 0 -8.0262e-05 0 0 0 0 0 0 0 0 0 0 0 0 0 0 0 0 0 2 0.004 
8238 7 0.00510502 0.0586934 -0.0072163 0 0 0 0.030748 -0.777523 1.07346 0 -8.0262e-05 0 0 0 0 0 0 0 0 0 0 0 0 0 0 0 0 0 0 0.004 
8196 4 0.0114195 0.0926811 -0.00802523 0 0 0 0.310575 0.293493 0.0072589 0 -8.0262e-05 0 0 0 0 0 0 0 0 0 0 0 0 0 0 0 0 0 0 0.004 
8132 8 0.0049927 0.120025 -0.00951549 0 0 0 -0.139974 0.399192 0.114303 0 -8.0262e-05 0 0 0 0 0 0 0 0 0 0 0 0 0 0 0 0 0 0 0.004 
8227 5 0.0744535 0.0546863 -0.00906683 0 0 0 -5.78992 -0.346974 -7.73167 0 -8.0262e-05 0 0 0 0 0 0 0 0 0 0 0 0 0 0 0 0 0 0 0.004 
8210 10 0.00572301 0.0689564 -0.00497667 0 0 0 0.124893 -0.126164 0.669977 0 -8.0262e-05 0 0 0 0 0 0 0 0 0 0 0 0 0 0 0 0 0 0 0.004 
8097 6 0.0146636 0.0689607 -0.0025913 0 0 0 0.286363 -0.448101 1.00577 0 -8.0262e-05 0 0 0 0 0 0 0 0 0 0 0 0 0 0 0 0 0 0 0.004 
8246 1 0.0265769 0.0922061 -0.00323897 0 0 0 0 -0.741424 5.62878 0 -8.0262e-05 0 0 0 0 0 0 0 0 0 0 0 0 0 0 0 0 0 0 0.004 
8056 1 0.0050859 0.0985563 -0.00456202 0 0 0 -0.111123 0.423905 0.173194 0 -8.0262e-05 0 0 0 0 0 0 0 0 0 0 0 0 0 0 0 0 0 1 0.004 
7982 5 0.0133943 0.114539 -0.00385253 0 0 0 0.0072598 0.582857 0.194052 0 -8.0262e-05 0 0 0 0 0 0 0 0 0 0 0 0 0 0 0 0 0 0 0.004 
8005 9 0.0117623 0.134132 -0.00612058 0 0 0 -0.189511 0.284408 0.466191 0 -8.0262e-05 0 0 0 0 0 0 0 0 0 0 0 0 0 0 0 0 0 1 0.004 
8128 6 0.00508263 0.0745297 0.00107805 0 0 0 0.0154405 0.132731 0.528139 0 -8.0262e-05 0 0 0 0 0 0 0 0 0 0 0 0 0 0 0 0 0 0 0.004 
8164 12 0.00594025 0.0908501 -0.002484 0 0 0 0.130408 0.481192 -0.0770541 0 -8.0262e-05 0 0 0 0 0 0 0 0 0 0 0 0 0 0 0 0 0 0 0.004 
8146 8 0.0134536 0.0915665 0.000173596 0 0 0 0.23255 0.582066 -0.377442 0 -8.0262e-05 0 0 0 0 0 0 0 0 0 0 0 0 0 0 0 0 0 0 0.004 
8179 12 0.0460559 0.110882 0.000705869 0 0 0 -0.0537738 1.32038 1.21861 0 -8.0262e-05 0 0 0 0 0 0 0 0 0 0 0 0 0 0 0 0 0 0 0.004 
7970 12 0.0917135 0.055541 -0.00577811 0 0 0 -5.48046 -1.16943 -20.7558 0 -8.0262e-05 0 0 0 0 0 0 0 0 0 0 0 0 0 0 0 0 0 0 0.004 
8185 15 0.00502132 0.0846833 0.00254514 0 0 0 -0.0196819 0.532471 0.0204175 0 -8.0262e-05 0 0 0 0 0 0 0 0 0 0 0 0 0 0 0 0 0 0 0.004 
8109 11 0.0052572 0.107786 0.00424542 0 0 0 0.0142207 0.598312 0.132559 0 -8.0262e-05 0 0 0 0 0 0 0 0 0 0 0 0 0 0 0 0 0 0 0.004 
8149 10 0.00542671 0.117122 0.00132563 0 0 0 0.044816 0.601629 -0.290816 0 -8.0262e-05 0 0 0 0 0 0 0 0 0 0 0 0 0 0 0 0 0 0 0.004 
8211 6 0.041332 0.121005 0.00440893 0 0 0 -0.161937 1.59453 1.17249 0 -8.0262e-05 0 0 0 0 0 0 0 0 0 0 0 0 0 0 0 0 0 0 0.004 
8004 7 0.0173394 0.129545 0.00483674 0 0 0 0.230948 0.638968 0.318766 0 -8.0262e-05 0 0 0 0 0 0 0 0 0 0 0 0 0 0 0 0 0 0 0.004 
8200 13 0.00916292 0.068603 0.00740309 0 0 0 0.337497 0.130345 0.619537 0 -8.0262e-05 0 0 0 0 0 0 0 0 0 0 0 0 0 0 0 0 0 0 0.004 
8043 7 0.00504294 0.0928755 0.00610125 0 0 0 0.00708534 0.273643 0.0431419 0 -8.0262e-05 0 0 0 0 0 0 0 0 0 0 0 0 0 0 0 0 0 0 0.004 
8105 16 0.0566349 0.131225 0.00856966 0 0 0 0.445553 0.312012 0.218217 0 -8.0262e-05 0 0 0 0 0 0 0 0 0 0 0 0 0 0 0 0 0 0 0.004 
8003 7 0.00444105 0.130019 0.0111822 0 0 0 -0.302182 0.263621 0.625197 0 -8.0262e-05 0 0 0 0 0 0 0 0 0 0 0 0 0 0 0 0 0 0 0.004 
8135 12 0.0282965 0.138273 0.0110687 0 0 0 -0.086456 0.317375 0.49945 0 -8.0262e-05 0 0 0 0 0 0 0 0 0 0 0 0 0 0 0 0 0 1 0.004 
8096 3 0.0192951 0.145292 0.0104653 0 0 0 -0.136583 1.23403 0.641978 0 -8.0262e-05 0 0 0 0 0 0 0 0 0 0 0 0 0 0 0 0 0 0 0.004 
8094 12 0.00629126 0.072806 0.016024 0 0 0 0.115494 0.0411327 -0.285514 0 -8.0262e-05 0 0 0 0 0 0 0 0 0 0 0 0 0 0 0 0 0 0 0.004 
7760 15 0.0184193 0.0771963 0.0164199 0 0 0 -0.106374 -0.194758 -0.390434 0 -8.0262e-05 0 0 0 0 0 0 0 0 0 0 0 0 0 0 0 0 0 1 0.004 
8244 15 0.0147682 0.0897609 0.0185782 0 0 0 -0.699593 -0.259423 0.205688 0 -8.0262e-05 0 0 0 0 0 0 0 0 0 0 0 0 0 0 0 0 0 0 0.004 
7831 3 0.00537391 0.103967 0.0156285 0 0 0 0.0363538 0.412111 -0.023844 0 -8.0262e-05 0 0 0 0 0 0 0 0 0 0 0 0 0 0 0 0 0 1 0.004 
7877 8 0.033197 0.130399 0.0155936 0 0 0 -0.3783 0.557055 0.423752 0 -8.0262e-05 0 0 0 0 0 0 0 0 0 0 0 0 0 0 0 0 0 0 0.004 
7924 11 0.0298059 0.0663582 0.0223645 0 0 0 0.105562 -0.252134 -0.0733438 0 -8.0262e-05 0 0 0 0 0 0 0 0 0 0 0 0 0 0 0 0 0 0 0.004 
8136 3 0.011172 0.0791636 0.0214866 0 0 0 0.258095 -0.114214 0.754866 0 -8.0262e-05 0 0 0 0 0 0 0 0 0 0 0 0 0 0 0 0 0 1 0.004 
7859 11 0.0360378 0.0563696 0.021146 0 0 0 0.401738 3.8607 -7.5861 0 -8.0262e-05 0 0 0 0 0 0 0 0 0 0 0 0 0 0 0 0 0 1 0.004 
8197 8 0.0444675 0.0543686 0.0266443 0 0 0 -0.0836455 -1.20424 -0.160293 0 -8.0262e-05 0 0 0 0 0 0 0 0 0 0 0 0 0 0 0 0 0 0 0.004 
7969 8 0.0217566 0.0682061 0.0233458 0 0 0 0.0554455 -0.198601 -0.167058 0 -8.0262e-05 0 0 0 0 0 0 0 0 0 0 0 0 0 0 0 0 0 1 0.004 
7999 8 0.0127032 0.0712293 0.0232111 0 0 0 -0.0242414 -0.348414 -0.115183 0 -8.0262e-05 0 0 0 0 0 0 0 0 0 0 0 0 0 0 0 0 0 1 0.004 
7695 11 0.00500617 0.0748453 0.024235 0 0 0 0.015753 -0.243274 -9.19575e-05 0 -8.0262e-05 0 0 0 0 0 0 0 0 0 0 0 0 0 0 0 0 0 1 0.004 
8235 12 0.0364374 0.0813634 0.0263014 0 0 0 0.518016 -0.530954 -0.0972219 0 -8.0262e-05 0 0 0 0 0 0 0 0 0 0 0 0 0 0 0 0 0 0 0.004 
8054 11 0.0469116 0.0853786 0.0268742 0 0 0 -0.0313654 -0.393422 -0.135303 0 -8.0262e-05 0 0 0 0 0 0 0 0 0 0 0 0 0 0 0 0 0 1 0.004 
8226 2 0.0103151 0.0873716 0.024869 0 0 0 0.181944 -0.356823 1.0403 0.0021519 0.000943338 -0.00136178 0 1 0 0 0 0 0 0 0 0 0 0 0 0 0 0 1 0.004 
8035 13 0.0210256 0.0889789 0.0239296 0 0 0 -0.222245 -0.331154 0.108751 0 -8.0262e-05 0 0 0 0 0 0 0 0 0 0 0 0 0 0 0 0 0 0 0.004 
8186 6 0.0430106 0.131676 0.0259656 0 0 0 0.0112158 0.710426 0.571998 0 -8.0262e-05 0 0 0 0 0 0 0 0 0 0 0 0 0 0 0 0 0 0 0.004 
8048 7 0.0652972 0.0497703 0.0255242 0 0 0 -1.84786 5.85856 -9.80012 0 -8.0262e-05 0 0 0 0 0 0 0 0 0 0 0 0 0 0 0 0 0 1 0.004 
7973 8 0.00519194 0.0497957 0.0267134 0 0 0 0.0845777 1.31196 -1.85248 0 -8.0262e-05 0 0 0 0 0 0 0 0 0 0 0 0 0 0 0 0 0 0 0.004 
7951 2 0.0118292 0.0618053 0.0309893 0 0 0 -0.0663882 -0.10727 -0.028505 0 -8.0262e-05 0 0 0 0 0 0 0 0 0 0 0 0 0 0 0 0 0 1 0.004 
7759 14 0.0326853 0.0604354 0.0309537 0 0 0 -0.19563 -0.33373 -0.183744 0 -8.0262e-05 0 0 0 0 0 0 0 0 0 0 0 0 0 0 0 0 0 1 0.004 
7891 4 0.00583533 0.0672725 0.0306811 0 0 0 0.0238181 -0.339053 -0.0136369 0 -8.0262e-05 0 0 0 0 0 0 0 0 0 0 0 0 0 0 0 0 0 1 0.004 
8228 5 0.0388753 0.0750241 0.0309834 0 0 0 0.0113012 -0.778791 0.0949659 0 -8.0262e-05 0 0 0 0 0 0 0 0 0 0 0 0 0 0 0 0 0 0 0.004 
8183 12 0.0466652 0.0763685 0.0275572 0 0 0 -0.121011 -0.322802 0.13134 0 -8.0262e-05 0 0 0 0 0 0 0 0 0 0 0 0 0 0 0 0 0 0 0.004 
7802 8 0.00623735 0.079416 0.0309086 0 0 0 0.00249222 -0.361413 0.0532743 -3.74781e-05 6.59748e-05 7.2203e-05 0 0 0 0 0 0 0 1 0 0 0 0 0 0 0 0 1 0.004 
8055 11 0.0142117 0.0787348 0.0308154 0 0 0 0.00766628 -0.262408 -0.00624107 0 -8.0262e-05 0 0 0 0 0 0 0 0 0 0 0 0 0 0 0 0 0 0 0.004 
7913 3 0.00499882 0.0873167 0.0308424 0 0 0 -0.00602062 -0.334211 0.850461 -0.000631406 -0.00194909 0.0010421 0 1 0 0 0 0 0 1 0 0 0 0 0 0 0 0 2 0.004 
7985 13 0.0247542 0.0877499 0.0309718 0 0 0 0.205447 -0.269376 -0.0259086 0 -8.0262e-05 0 0 0 0 0 0 0 0 0 0 0 0 0 0 0 0 0 0 0.004 
8143 13 0.0101076 0.0957256 0.029004 0 0 0 -0.0783221 -0.262167 -0.0831075 0 -8.0262e-05 0 0 0 0 0 0 0 0 0 0 0 0 0 0 0 0 0 0 0.004 
8084 14 0.0290459 0.0969236 0.0308876 0 0 0 1.18152 -0.0685877 2.87087 0 -8.0262e-05 0 0 0 0 0 0 0 0 0 0 0 0 0 0 0 0 0 1 0.004 
7669 11 0.0210773 0.10029 0.0309323 0 0 0 0.280921 0.355901 -0.0814455 0 -8.0262e-05 0 0 0 0 0 0 0 0 0 0 0 0 0 0 0 0 0 3 0.004 
8075 10 0.00814191 0.103405 0.0307395 0 0 0 -0.037969 -0.225909 -0.0311189 0 -8.0262e-05 0 0 0 0 0 0 0 0 0 0 0 0 0 0 0 0 0 0 0.004 
8220 12 0.017183 0.123248 0.0282501 0 0 0 -0.107639 0.159943 1.41577 0 -8.0262e-05 0 0 0 0 0 0 0 0 0 0 0 0 0 0 0 0 0 0 0.004 
8180 16 0.0224727 0.115798 0.0335273 0 0 0 0.123999 0.277552 0.41483 0 -8.0262e-05 0 0 0 0 0 0 0 0 0 0 0 0 0 0 0 0 0 0 0.004 
8107 10 0.0114764 0.128685 0.0324951 0 0 0 -0.332738 0.765552 1.09899 0 -8.0262e-05 0 0 0 0 0 0 0 0 0 0 0 0 0 0 0 0 0 2 0.004 
8076 1 0.0661149 0.045501 0.0325399 0 0 0 0.360926 4.79119 -7.94261 0.0288295 0.0211439 -0.0308369 1 0 0 0 0 0 0 0 0 0 0 0 0 0 0 0 2 0.004 
7463 12 0.0739289 0.0420877 0.0365709 0 0 0 -3.00117 5.7363 -6.35947 0 -8.0262e-05 0 0 0 0 0 0 0 0 0 0 0 0 0 0 0 0 0 1 0.004 
8171 4 0.0902338 0.0422211 0.0366346 0 0 0 -0.369535 5.28256 -5.23101 0 -8.0262e-05 0 0 0 0 0 0 0 0 0 0 0 0 0 0 0 0 0 1 0.004 
8044 11 0.0113448 0.11651 0.0360643 0 0 0 -0.0338765 0.14941 0.549625 0 -8.0262e-05 0 0 0 0 0 0 0 0 0 0 0 0 0 0 0 0 0 1 0.004 
8205 13 0.0366904 0.136693 0.0365596 0 0 0 -0.463451 0.832976 0.112068 0 -8.0262e-05 0 0 0 0 0 0 0 0 0 0 0 0 0 0 0 0 0 0 0.004 
7923 9 0.0412818 0.1445 0.0397326 0 0 0 0.568918 0.797107 0.862592 0 -8.0262e-05 0 0 0 0 0 0 0 0 0 0 0 0 0 0 0 0 0 1 0.004 
8217 3 0.0629171 0.0398297 0.0371593 0 0 0 -1.86926 5.19529 -10.8054 -0.043572 -0.110314 0.0204152 1 0 0 0 0 0 0 0 0 0 0 0 0 0 0 0 1 0.004 
8100 9 0.10179 0.0379773 0.0404541 0 0 0 -5.45399 4.45724 -7.31171 0 -8.0262e-05 0 0 0 0 0 0 0 0 0 0 0 0 0 0 0 0 0 0 0.004 
8036 7 0.00305955 0.122746 0.0412599 0 0 0 -0.0618731 -0.13437 0.629695 0 -8.0262e-05 0 0 0 0 0 0 0 0 0 0 0 0 0 0 0 0 0 0 0.004 
7971 3 0.0543965 0.130873 0.0403336 0 0 0 0.283644 -0.486867 0.391898 0 -8.0262e-05 0 0 0 0 0 0 0 0 0 0 0 0 0 0 0 0 0 0 0.004 
8083 13 -0.00571518 0.141826 0.048834 0 0 0 -0.560528 0.0878135 0.527486 0 -8.0262e-05 0 0 0 0 0 0 0 0 0 0 0 0 0 0 0 0 0 0 0.004 
7922 8 0.0639267 0.0272737 0.0486113 0 0 0 0.446611 15.5944 -8.09496 0 -8.0262e-05 0 0 0 0 0 0 0 0 0 0 0 0 0 0 0 0 0 1 0.004 
8224 12 0.0953358 0.011704 0.0545935 0 0 0 1.03419 8.08249 -2.24135 0 -8.0262e-05 0 0 0 0 0 0 0 0 0 0 0 0 0 0 0 0 0 0 0.004 
8175 15 0.0833838 0.0235561 0.0505302 0 0 0 -0.432759 11.9329 -5.61751 0 -8.0262e-05 0 0 0 0 0 0 0 0 0 0 0 0 0 0 0 0 0 0 0.004 
7211 5 0.0363641 0.0128943 0.0778229 0 0 0 0.0444428 -1.42412 0.299589 0 -8.0262e-05 0 0 0 0 0 0 0 0 0 0 0 0 0 0 0 0 0 0 0.004 
8222 7 0.0673755 0.00697932 0.0552813 0 0 0 6.74721 22.3933 -2.66373 0 -8.0262e-05 0 0 0 0 0 0 0 0 0 0 0 0 0 0 0 0 0 0 0.004 
8139 7 0.134701 -0.028596 -0.0478712 0 0 0 1.27266 -13.6032 7.87364 0 -8.0262e-05 0 0 0 0 0 0 0 0 0 0 0 0 0 0 0 0 0 0 0.004 
7758 11 0.125909 -0.0240558 -0.0502404 0 0 0 4.07949 -8.55817 1.87033 0 -8.0262e-05 0 0 0 0 0 0 0 0 0 0 0 0 0 0 0 0 0 0 0.004 
8189 9 0.121774 -0.0303307 -0.0468414 0 0 0 4.37987 -8.05247 4.66353 0 -8.0262e-05 0 0 0 0 0 0 0 0 0 0 0 0 0 0 0 0 0 1 0.004 
8081 8 0.201103 -0.0338004 -0.0443986 0 0 0 0.504417 -8.64011 7.19837 0 -8.0262e-05 0 0 0 0 0 0 0 0 0 0 0 0 0 0 0 0 0 1 0.004 
7606 3 0.168113 -0.0425525 -0.0346261 0 0 0 0.355383 -4.73374 5.6847 0 -8.0262e-05 0 0 0 0 0 0 0 0 0 0 0 0 0 0 0 0 0 0 0.004 
8063 5 0.122289 -0.0416545 -0.0370596 0 0 0 2.09324 -7.16786 8.39896 0 -8.0262e-05 0 0 0 0 0 0 0 0 0 0 0 0 0 0 0 0 0 3 0.004 
8177 7 0.133471 -0.0416917 -0.0369735 0 0 0 5.27881 -7.07648 8.49335 0 -8.0262e-05 0 0 0 0 0 0 0 0 0 0 0 0 0 0 0 0 0 0 0.004 
7574 11 0.126634 -0.0306611 -0.0347102 0 0 0 7.36061 -10.8955 5.97542 0 -8.0262e-05 0 0 0 0 0 0 0 0 0 0 0 0 0 0 0 0 0 2 0.004 
8042 6 0.128214 -0.0460773 -0.0315721 0 0 0 3.54573 -4.44898 7.62403 0.000245547 -0.0195901 -0.0113107 0 0 0 0 0 0 0 0 0 0 0 0 0 0 0 0 0 0.004 
8182 10 0.159898 -0.0442001 -0.0340666 0 0 0 -0.504384 -3.7693 4.403 0 -8.0262e-05 0 0 0 0 0 0 0 0 0 0 0 0 0 0 0 0 0 0 0.004 
8051 4 0.124456 -0.0500053 -0.0249984 0 0 0 3.85126 -4.87688 8.46371 0 -8.0262e-05 0 0 0 0 0 0 0 0 0 0 0 0 0 0 0 0 0 0 0.004 
6818 9 0.115911 -0.0488077 -0.0237599 0 0 0 1.13628 -8.53468 13.6892 0 -8.0262e-05 0 0 0 0 0 0 0 0 0 0 0 0 0 0 0 0 0 6 0.004 
8009 10 0.17144 -0.050633 -0.0227651 0 0 0 -3.78831 -6.64472 12.1116 0 -8.0262e-05 0 0 0 0 0 0 0 0 0 0 0 0 0 0 0 0 0 0 0.004 
8091 2 0.155689 -0.0517949 -0.0205991 0 0 0 0.525576 -4.14408 10.8105 0 -8.0262e-05 0 0 0 0 0 0 0 0 0 0 0 0 0 0 0 0 0 2 0.004 
7581 3 0.182421 -0.0484259 -0.020538 0 0 0 2.4758 -2.04119 10.6322 0 -8.0262e-05 0 0 0 0 0 0 0 0 0 0 0 0 0 0 0 0 0 2 0.004 
7796 1 0.176474 -0.0532549 -0.0170926 0 0 0 2.0321 -3.61694 9.36552 -0.00362422 -0.0105842 -0.0104486 0 0 0 0 0 0 0 0 0 0 0 0 0 0 0 0 0 0.004 
7936 4 0.158975 -0.0528203 -0.0124984 0 0 0 2.17979 -5.66873 10.6269 0 -8.0262e-05 0 0 0 0 0 0 0 0 0 0 0 0 0 0 0 0 0 1 0.004 
8167 9 0.169114 -0.05478 -0.0103313 0 0 0 5.15207 -1.68117 8.40311 0 -8.0262e-05 0 0 0 0 0 0 0 0 0 0 0 0 0 0 0 0 0 0 0.004 
8157 8 0.109222 -0.0557204 -0.00172252 0 0 0 4.2799 -0.301334 11.0241 0 -8.0262e-05 0 0 0 0 0 0 0 0 0 0 0 0 0 0 0 0 0 0 0.004 
7963 7 0.198988 -0.0557014 -0.0024934 0 0 0 7.03788 -0.327573 12.0311 0 -8.0262e-05 0 0 0 0 0 0 0 0 0 0 0 0 0 0 0 0 0 0 0.004 
7449 12 0.212996 -0.0556563 -0.00396468 0 0 0 -7.22328 -0.396404 15.1528 0 -8.0262e-05 0 0 0 0 0 0 0 0 0 0 0 0 0 0 0 0 0 2 0.004 
7750 13 0.207325 -0.0556739 0.00423742 0 0 0 3.48191 -2.46493 8.38816 0 -8.0262e-05 0 0 0 0 0 0 0 0 0 0 0 0 0 0 0 0 0 3 0.004 
7637 4 0.12941 -0.0546657 0.0117339 0 0 0 -3.45393 2.47463 17.4007 0 -8.0262e-05 0 0 0 0 0 0 0 0 0 0 0 0 0 0 0 0 0 0 0.004 
7919 13 0.144209 -0.0547798 0.0114383 0 0 0 -1.71503 3.9816 27.623 0.0103108 -0.0731188 -0.0224437 0 0 0 0 0 0 0 0 0 0 0 0 0 0 0 0 0 0.004 
7765 11 0.215738 -0.0551297 0.00816283 0 0 0 3.30696 1.08949 7.63801 0 -8.0262e-05 0 0 0 0 0 0 0 0 0 0 0 0 0 0 0 0 0 0 0.004 
8124 9 0.152309 -0.0547873 0.0112417 0 0 0 1.11556 1.87725 12.4051 0 -8.0262e-05 0 0 0 0 0 0 0 0 0 0 0 0 0 0 0 0 0 0 0.004 
8158 8 0.110706 -0.052659 0.0183271 0 0 0 1.57405 3.64704 11.2844 0 -8.0262e-05 0 0 0 0 0 0 0 0 0 0 0 0 0 0 0 0 0 0 0.004 
7869 13 0.211161 -0.0533928 0.0160662 0 0 0 3.97055 2.95214 9.14676 0 -8.0262e-05 0 0 0 0 0 0 0 0 0 0 0 0 0 0 0 0 0 1 0.004 
8046 4 0.17937 -0.0523927 0.0192732 0 0 0 5.22491 3.0138 9.4279 0 -8.0262e-05 0 0 0 0 0 0 0 0 0 0 0 0 0 0 0 0 0 0 0.004 
7584 9 0.158563 -0.0499754 0.0247379 0 0 0 4.62733 5.22733 9.98863 0 -8.0262e-05 0 0 0 0 0 0 0 0 0 0 0 0 0 0 0 0 0 1 0.004 
7724 5 0.173324 -0.0426121 0.026292 0 0 0 -4.82782 6.70511 8.43547 0 -8.0262e-05 0 0 0 0 0 0 0 0 0 0 0 0 0 0 0 0 0 3 0.004 
8123 7 0.211354 -0.047425 0.0296546 0 0 0 1.48608 5.47122 10.4962 0 -8.0262e-05 0 0 0 0 0 0 0 0 0 0 0 0 0 0 0 0 0 0 0.004 
7728 10 0.176108 -0.04424 0.0339089 0 0 0 -5.36231 6.08011 7.96036 0 -8.0262e-05 0 0 0 0 0 0 0 0 0 0 0 0 0 0 0 0 0 4 0.004 
7699 10 0.200701 -0.0424485 0.0362715 0 0 0 -1.12267 7.59918 9.95735 0 -8.0262e-05 0 0 0 0 0 0 0 0 0 0 0 0 0 0 0 0 0 1 0.004 
8130 7 0.108001 -0.0362919 0.0423944 0 0 0 3.5395 13.1459 12.2194 0 -8.0262e-05 0 0 0 0 0 0 0 0 0 0 0 0 0 0 0 0 0 2 0.004 
7417 3 0.15444 -0.0336079 0.0446453 0 0 0 0.846976 10.1926 6.33481 0.00640601 -0.00868548 0.0152644 0 0 0 0 0 0 0 0 0 0 0 0 0 0 0 0 3 0.004 
7610 11 0.190737 -0.0333756 0.0447761 0 0 0 4.78402 6.98251 4.52219 0.000285596 -0.00960744 0.0148927 0 0 0 0 0 0 0 0 0 0 0 0 0 0 0 0 3 0.004 
7962 7 0.164526 -0.024379 0.0502073 0 0 0 3.08475 16.8082 7.16233 0.000798694 -0.0186786 0.0468667 0 0 0 0 0 0 0 0 0 0 0 0 0 0 0 0 0 0.004 
8195 14 0.147805 -0.00181217 0.0557591 0 0 0 -2.61235 12.8406 0.894674 0 -8.0262e-05 0 0 0 0 0 0 0 0 0 0 0 0 0 0 0 0 0 0 0.004 
8219 11 0.105195 -0.052429 -0.0147558 0 0 0 8.63166 -10.803 15.0812 0 -8.0262e-05 0 0 0 0 0 0 0 0 0 0 0 0 0 0 0 0 0 0 0.004 
8191 7 0.207018 -0.00273639 0.0556936 0 0 0 -2.18271 7.61755 0.536216 0 -8.0262e-05 0 0 0 0 0 0 0 0 0 0 0 0 0 0 0 0 0 0 0.004 
6537 5 0.218694 -0.0467096 -0.00884181 0 0 0 -3.71911 -0.233695 15.6522 0 -8.0262e-05 0 0 0 0 0 0 0 0 0 0 0 0 0 0 0 0 0 2 0.004 
7932 3 0.108921 -0.0079181 -0.0552695 0 0 0 -3.74769 -23.5334 4.6423 0.0315653 0.0133717 -0.0541938 0 0 0 0 0 0 0 0 0 0 0 0 0 0 0 0 0 0.004 
7826 1 0.121313 -0.00181754 -0.0558394 0 0 0 3.60875 -6.35039 1.06824 0.030088 -0.00796914 0.0150541 1 0 0 0 0 0 0 0 0 0 0 0 0 0 0 0 4 0.004 
8031 4 0.129196 -0.00312605 -0.055874 0 0 0 3.01642 -13.0472 0.708833 -0.0324357 0.00759291 -0.0197447 1 0 0 0 0 0 0 0 0 0 0 0 0 0 0 0 1 0.004 
7784 11 0.214281 -0.00214543 -0.0361067 0 0 0 -2.4989 -15.5116 -3.15288 0 -8.0262e-05 0 0 0 0 0 0 0 0 0 0 0 0 0 0 0 0 0 3 0.004 
8160 16 0.176732 -0.0015097 -0.055966 0 0 0 6.79879 -19.91 1.11773 -0.00144332 0.00178813 0.0680977 0 0 0 0 0 0 0 0 0 0 0 0 0 0 0 0 0 0.004 
7658 13 0.165113 -0.000180097 -0.0559919 0 0 0 3.31918 -16.5611 -0.471854 -0.617066 0.355601 0.143172 0 0 0 0 0 0 0 0 0 0 0 0 0 0 0 0 4 0.004 
8059 12 0.187392 0.120691 0.064625 0 0 0 0.991763 -0.699266 0.345104 0 -8.0262e-05 0 0 0 0 0 0 0 0 0 0 0 0 0 0 0 0 0 0 0.004 
7709 10 0.216319 0.0528171 0.0654102 0 0 0 0.878662 -1.37869 0.269861 0 -8.0262e-05 0 0 0 0 0 0 0 0 0 0 0 0 0 0 0 0 0 0 0.004 
8098 6 0.161439 0.018585 0.0526944 0 0 0 -2.16312 9.40695 -2.60666 0 -8.0262e-05 0 0 0 0 0 0 0 0 0 0 0 0 0 0 0 0 0 2 0.004 
8078 9 0.129224 0.0357804 0.0411061 0 0 0 0.00624276 10.1314 -4.96738 0 -8.0262e-05 0 0 0 0 0 0 0 0 0 0 0 0 0 0 0 0 0 0 0.004 
7764 11 0.186394 0.0404353 0.0383769 0 0 0 6.77164 4.9884 -4.9459 0 -8.0262e-05 0 0 0 0 0 0 0 0 0 0 0 0 0 0 0 0 0 0 0.004 
7841 4 0.13307 0.00462179 -0.0557036 0 0 0 1.27821 -13.521 -2.10412 0 -8.0262e-05 0 0 0 0 0 0 0 0 0 0 0 0 0 0 0 0 0 0 0.004 
8178 7 0.149108 0.000475253 -0.0559657 0 0 0 -1.01726 -18.9435 -0.568533 0 -8.0262e-05 0 0 0 0 0 0 0 0 0 0 0 0 0 0 0 0 0 0 0.004 
7927 1 0.179241 0.00985826 -0.0548853 0 0 0 -2.16542 -8.82571 -1.3783 0 -8.0262e-05 0 0 0 0 0 0 0 0 0 0 0 0 0 0 0 0 0 1 0.004 
7806 1 0.18755 0.0114256 -0.0519433 0 0 0 -1.07425 -10.3813 -2.27389 0 -8.0262e-05 0 0 0 0 0 0 0 0 0 0 0 0 0 0 0 0 0 1 0.004 
7964 7 0.208179 0.00475941 -0.0557578 0 0 0 2.24977 -17.5527 -2.92041 0 -8.0262e-05 0 0 0 0 0 0 0 0 0 0 0 0 0 0 0 0 0 0 0.004 
8209 8 0.121844 0.0151519 -0.0537253 0 0 0 0.803951 -12.609 -4.23806 0 -8.0262e-05 0 0 0 0 0 0 0 0 0 0 0 0 0 0 0 0 0 0 0.004 
8102 6 0.146306 0.0188089 -0.0524781 0 0 0 2.38607 -9.92105 -3.32555 0 -8.0262e-05 0 0 0 0 0 0 0 0 0 0 0 0 0 0 0 0 0 0 0.004 
8162 6 0.168744 0.00220687 -0.0469946 0 0 0 4.87872 -17.6414 0.840193 0 -8.0262e-05 0 0 0 0 0 0 0 0 0 0 0 0 0 0 0 0 0 1 0.004 
7952 4 0.105173 0.0247129 -0.049992 0 0 0 -0.438728 -8.95277 -4.80792 0 -8.0262e-05 0 0 0 0 0 0 0 0 0 0 0 0 0 0 0 0 0 0 0.004 
7628 7 0.139003 0.0248157 -0.0499848 0 0 0 3.39238 -14.1802 -7.69263 0 -8.0262e-05 0 0 0 0 0 0 0 0 0 0 0 0 0 0 0 0 0 0 0.004 
8011 4 0.20026 0.0246118 -0.0500678 0 0 0 5.3833 -11.8848 -6.40001 0 -8.0262e-05 0 0 0 0 0 0 0 0 0 0 0 0 0 0 0 0 0 3 0.004 