ITEM: TIMESTEP
16550000
ITEM: NUMBER OF ATOMS
493
ITEM: BOX BOUNDS ff ff ff
-0.01 0.45
-0.15 0.15
-0.08 0.1
ITEM: ATOMS id type x y z ix iy iz vx vy vz fx fy fz c_cc_1 c_cc_2 c_cc_3 c_cc_4 c_cc_5 c_cc_6 c_cc_7 c_cc_8 c_cc_9 c_cc_10 c_cc_11 c_cc_12 c_cc_13 c_cc_14 c_cc_15 c_cc_16 f_fppacc radius 
7878 9 0.021442 -0.0319787 -0.045674 0 0 0 1.32691 -3.25907 2.5461 0 -8.0262e-05 0 0 0 0 0 0 0 0 0 0 0 0 0 0 0 0 0 0 0.004 
8214 10 0.0752353 -0.0392068 -0.0397934 0 0 0 2.44849 -9.96643 11.6968 -0.00758495 -0.029341 -0.0161508 0 0 0 0 0 0 0 0 0 0 0 0 0 0 0 0 0 0.004 
8153 8 0.0899149 -0.0385214 -0.040135 0 0 0 -0.97639 -13.2247 6.42284 0 -8.0262e-05 0 0 0 0 0 0 0 0 0 0 0 0 0 0 0 0 0 0 0.004 
8224 12 0.0974222 -0.0475818 -0.0290481 0 0 0 -1.2491 -5.06205 8.50743 0 -8.0262e-05 0 0 0 0 0 0 0 0 0 0 0 0 0 0 0 0 0 0 0.004 
8203 6 0.00580204 -0.0424241 -0.0361278 0 0 0 0.370313 -1.05809 1.24345 0 -8.0262e-05 0 0 0 0 0 0 0 0 0 0 0 0 0 0 0 0 0 0 0.004 
8237 6 0.00514217 -0.0487919 -0.0262937 0 0 0 0.0949864 -0.739003 1.5826 0 -8.0262e-05 0 0 0 0 0 0 0 0 0 0 0 0 0 0 0 0 0 0 0.004 
8243 11 0.100038 -0.0531865 -0.0170132 0 0 0 1.40883 -4.40971 11.4673 0 -8.0262e-05 0 0 0 0 0 0 0 0 0 0 0 0 0 0 0 0 0 0 0.004 
8212 9 0.0677794 -0.0542842 0.00253818 0 0 0 1.29079 4.83259 15.4044 0 -8.0262e-05 0 0 0 0 0 0 0 0 0 0 0 0 0 0 0 0 0 0 0.004 
8130 7 0.0726552 -0.0524319 0.016061 0 0 0 -2.73938 2.16768 12.3357 0 -8.0262e-05 0 0 0 0 0 0 0 0 0 0 0 0 0 0 0 0 0 2 0.004 
8175 15 0.083353 -0.0535703 0.0155139 0 0 0 0.229785 2.5336 7.84808 0 -8.0262e-05 0 0 0 0 0 0 0 0 0 0 0 0 0 0 0 0 0 0 0.004 
7992 2 0.0904332 -0.0408725 0.038146 0 0 0 3.28384 9.18524 8.18824 -0.00743057 0.0318807 -0.0321163 0 0 0 0 0 0 0 0 0 0 0 0 0 0 0 0 0 0.004 
7638 8 0.0830005 -0.0281283 0.0409674 0 0 0 -1.70934 7.86332 4.87543 0 -8.0262e-05 0 0 0 0 0 0 0 0 0 0 0 0 0 0 0 0 0 3 0.004 
8232 7 0.0767281 -0.0296855 0.046717 0 0 0 -1.15216 9.9744 8.24914 0 -8.0262e-05 0 0 0 0 0 0 0 0 0 0 0 0 0 0 0 0 0 0 0.004 
8092 3 0.00889152 -0.0258342 0.0427793 0 0 0 -0.192229 2.18619 1.14222 0 -8.0262e-05 0 0 0 0 0 0 0 0 0 0 0 0 0 0 0 0 0 0 0.004 
8072 6 0.0332838 -0.0185756 0.0448057 0 0 0 3.68849 7.7051 5.39517 0 -8.0262e-05 0 0 0 0 0 0 0 0 0 0 0 0 0 0 0 0 0 0 0.004 
8193 10 0.0135163 -0.0319596 0.0456988 0 0 0 0.664821 2.7746 2.06126 0 -8.0262e-05 0 0 0 0 0 0 0 0 0 0 0 0 0 0 0 0 0 1 0.004 
8207 6 0.0844503 -0.024639 0.0480386 0 0 0 -1.37854 8.74344 4.45976 0 -8.0262e-05 0 0 0 0 0 0 0 0 0 0 0 0 0 0 0 0 0 0 0.004 
8133 9 0.00541603 -0.0246258 0.0499724 0 0 0 -0.915739 2.0772 0.974271 0 -8.0262e-05 0 0 0 0 0 0 0 0 0 0 0 0 0 0 0 0 0 0 0.004 
8073 7 0.0874813 -0.0173368 0.0528036 0 0 0 6.48053 10.8905 4.08473 0 -8.0262e-05 0 0 0 0 0 0 0 0 0 0 0 0 0 0 0 0 0 0 0.004 
8217 3 0.0974796 -0.0216398 0.0513733 0 0 0 -2.20466 7.52962 3.26756 0 -8.0262e-05 0 0 0 0 0 0 0 0 0 0 0 0 0 0 0 0 0 1 0.004 
8197 8 0.0793678 -0.0109406 0.0547899 0 0 0 5.29687 19.3751 4.94529 0 -8.0262e-05 0 0 0 0 0 0 0 0 0 0 0 0 0 0 0 0 0 0 0.004 
8245 15 0.0957215 -0.0140299 0.0539498 0 0 0 1.21327 6.98659 1.70535 0 -8.0262e-05 0 0 0 0 0 0 0 0 0 0 0 0 0 0 0 0 0 0 0.004 
7211 5 0.0374751 -0.0257743 0.0853126 0 0 0 0.0444428 -1.66937 0.299589 0 -8.0262e-05 0 0 0 0 0 0 0 0 0 0 0 0 0 0 0 0 0 0 0.004 
7693 7 0.096302 -0.0750507 0.0949569 0 0 0 0.0330845 -1.59099 0.388395 0 -8.0262e-05 0 0 0 0 0 0 0 0 0 0 0 0 0 0 0 0 0 1 0.004 
8236 5 0.0800562 -0.00223551 -0.0559153 0 0 0 2.43348 -16.5132 0.979048 -8.50897e-05 -0.00240167 -0.0176834 0 0 0 0 0 0 0 0 0 0 0 0 0 0 0 0 0 0.004 
8275 12 0.0541585 -0.00201795 -0.0558507 0 0 0 7.33153 -21.7721 3.01719 -0.00330202 0.00041857 0.00658988 0 0 0 0 0 0 0 0 0 0 0 0 0 0 0 0 0 0.004 
8148 9 0.0568783 0.135191 -0.0721695 0 0 0 0.134619 -0.15313 -0.561904 0 -8.0262e-05 0 0 0 0 0 0 0 0 0 0 0 0 0 0 0 0 0 0 0.004 
8220 12 0.014492 0.124181 0.0636444 0 0 0 -0.107639 -0.0853074 1.41577 0 -8.0262e-05 0 0 0 0 0 0 0 0 0 0 0 0 0 0 0 0 0 0 0.004 
8107 10 0.00315799 0.144758 0.0599698 0 0 0 -0.332738 0.520302 1.09899 0 -8.0262e-05 0 0 0 0 0 0 0 0 0 0 0 0 0 0 0 0 0 2 0.004 
8041 5 0.00352324 0.12455 -0.0552189 0 0 0 -0.0787882 -0.326951 -0.388505 0 -8.0262e-05 0 0 0 0 0 0 0 0 0 0 0 0 0 0 0 0 0 0 0.004 
8221 2 0.0691197 0.0109209 -0.0547578 0 0 0 9.4433 -18.4856 -4.96711 0 -8.0262e-05 0 0 0 0 0 0 0 0 0 0 0 0 0 0 0 0 0 0 0.004 
8158 8 0.0957349 0.0167584 -0.0531739 0 0 0 -1.04219 -8.52278 -2.86333 0 -8.0262e-05 0 0 0 0 0 0 0 0 0 0 0 0 0 0 0 0 0 0 0.004 
8085 16 0.0966939 0.0278443 -0.0483086 0 0 0 -0.778335 -6.25078 -3.37016 0 -8.0262e-05 0 0 0 0 0 0 0 0 0 0 0 0 0 0 0 0 0 0 0.004 
8106 2 -0.00609831 0.135391 -0.0497544 0 0 0 -0.265851 0.105688 -0.503652 0 -8.0262e-05 0 0 0 0 0 0 0 0 0 0 0 0 0 0 0 0 0 0 0.004 
8225 16 0.0537218 0.141554 -0.0469393 0 0 0 0.287057 0.263591 -0.29303 0 -8.0262e-05 0 0 0 0 0 0 0 0 0 0 0 0 0 0 0 0 0 0 0.004 
8234 9 0.0797589 0.0366064 -0.0421415 0 0 0 -2.4532 -8.85646 -6.92212 -6.61539e-05 0.00917597 -0.0121078 0 0 0 0 0 0 0 0 0 0 0 0 0 0 0 0 0 0.004 
7998 7 0.0705668 0.0397576 -0.0390404 0 0 0 -3.89724 -8.01103 -8.51365 0 -8.0262e-05 0 0 0 0 0 0 0 0 0 0 0 0 0 0 0 0 0 0 0.004 
8264 11 0.0142677 0.0302479 -0.0298743 0 0 0 0.0759492 -1.15834 0.0218756 0 -8.0262e-05 0 0 0 0 0 0 0 0 0 0 0 0 0 0 0 0 0 0 0.004 
8272 3 0.0156301 0.047063 -0.0307747 0 0 0 0 -1.04905 -0.0001 0 -8.0262e-05 0 0 0 0 0 0 0 0 0 0 0 0 0 0 0 0 0 0 0.004 
8233 7 0.0226325 0.0525386 -0.0309876 0 0 0 -0.404064 -1.06568 0.0206458 0 -8.0262e-05 0 0 0 0 0 0 0 0 0 0 0 0 0 0 0 0 0 0 0.004 
7859 11 0.0177105 0.0673455 -0.0307109 0 0 0 -1.08359 -0.689021 0.0536492 0 -8.0262e-05 0 0 0 0 0 0 0 0 0 0 0 0 0 0 0 0 0 1 0.004 
8256 6 0.0455679 0.0719073 -0.0310233 0 0 0 -1.16915 1.05669 0.519222 0.00652961 -0.00787022 -0.0365103 0 0 0 0 0 0 0 0 0 0 0 0 0 0 0 0 0 0.004 
8198 11 0.0127514 0.074154 -0.0301348 0 0 0 -0.128241 -0.592851 0.0462088 0 -8.0262e-05 0 0 0 0 0 0 0 0 0 0 0 0 0 0 0 0 0 0 0.004 
8270 14 0.0279103 0.0739559 -0.0306495 0 0 0 -1.29268 -0.000315269 0.727571 0 -8.0262e-05 0 0 0 0 0 0 0 0 0 0 0 0 0 0 0 0 0 0 0.004 
8258 10 0.0206708 0.0810939 -0.0309816 0 0 0 0.178382 -0.593473 0.0031719 0 -8.0262e-05 0 0 0 0 0 0 0 0 0 0 0 0 0 0 0 0 0 0 0.004 
8273 4 0.0399827 0.0782286 -0.0306537 0 0 0 -0.539115 1.12742 0.332027 0 -8.0262e-05 0 0 0 0 0 0 0 0 0 0 0 0 0 0 0 0 0 0 0.004 
8250 15 0.0465157 0.0875536 -0.0310677 0 0 0 -1.75642 0.718419 -0.80506 -0.174819 -0.24863 0.607745 0 0 0 0 0 0 0 0 0 0 0 0 0 0 0 0 0 0.004 
8269 11 0.0152105 0.0922409 -0.0308462 0 0 0 0 -1.0981 -0.0001 0 -8.0262e-05 0 0 0 0 0 0 0 0 0 0 0 0 0 0 0 0 0 0 0.004 
8253 7 0.0469099 0.0955967 -0.030573 0 0 0 0.46023 2.51656 -0.248389 0 -8.0262e-05 0 0 0 0 0 0 0 0 0 0 0 0 0 0 0 0 0 0 0.004 
8241 8 0.0320393 0.100529 -0.0306785 0 0 0 0.0659836 -0.171705 0.0712516 -0.00455535 0.00312865 -0.000283103 0 0 0 0 0 0 0 1 0 0 0 0 0 0 0 0 1 0.004 
8266 6 0.0248482 0.104018 -0.0308511 0 0 0 -0.301797 -0.625107 -0.0328963 0.00455535 -0.00328917 0.000283103 0 0 0 0 0 0 0 1 0 0 0 0 0 0 0 0 1 0.004 
8034 10 0.00931719 0.111175 -0.0301308 0 0 0 0.12522 -0.0580272 0.0266322 0 -8.0262e-05 0 0 0 0 0 0 0 0 0 0 0 0 0 0 0 0 0 0 0.004 
8170 14 0.00593522 0.0319617 -0.0268567 0 0 0 -0.0126381 -0.799301 0.0975288 0 -8.0262e-05 0 0 0 0 0 0 0 0 0 0 0 0 0 0 0 0 0 0 0.004 
8082 10 0.0815913 0.0450932 -0.032978 0 0 0 -2.02695 -7.14903 -11.214 0 -8.0262e-05 0 0 0 0 0 0 0 0 0 0 0 0 0 0 0 0 0 5 0.004 
8192 8 0.00523959 0.07378 -0.0267259 0 0 0 0.00954523 -0.167422 0.165115 0 -8.0262e-05 0 0 0 0 0 0 0 0 0 0 0 0 0 0 0 0 0 1 0.004 
8265 12 0.0315422 0.0724479 -0.0229446 0 0 0 -3.36193 -0.893316 3.36856 0 -8.0262e-05 0 0 0 0 0 0 0 0 0 0 0 0 0 0 0 0 0 0 0.004 
8060 16 0.0066994 0.0927075 -0.0278126 0 0 0 0.0589422 -0.0355457 0.107293 0 -8.0262e-05 0 0 0 0 0 0 0 0 0 0 0 0 0 0 0 0 0 2 0.004 
8173 9 0.0355404 0.0907124 -0.0264934 0 0 0 -0.908259 0.978556 0.381142 0 -8.0262e-05 0 0 0 0 0 0 0 0 0 0 0 0 0 0 0 0 0 0 0.004 
8268 11 0.0412143 0.110297 -0.0280239 0 0 0 0 -0.47968 0.39625 0 -8.0262e-05 0 0 0 0 0 0 0 0 0 0 0 0 0 0 0 0 0 0 0.004 
8021 3 0.0416692 0.145026 -0.0260372 0 0 0 -0.153412 1.20249 0.123426 0 -8.0262e-05 0 0 0 0 0 0 0 0 0 0 0 0 0 0 0 0 0 0 0.004 
8219 11 0.104369 0.0502521 -0.0242917 0 0 0 0.362988 -3.08484 -7.33048 0 -8.0262e-05 0 0 0 0 0 0 0 0 0 0 0 0 0 0 0 0 0 0 0.004 
8239 8 0.0144443 0.0624985 -0.0240986 0 0 0 0.168705 -0.366465 0.260852 0 -8.0262e-05 0 0 0 0 0 0 0 0 0 0 0 0 0 0 0 0 0 0 0.004 
8024 8 -0.00024647 0.119043 -0.0202752 0 0 0 -0.171357 -0.0878378 0.0331879 0 -8.0262e-05 0 0 0 0 0 0 0 0 0 0 0 0 0 0 0 0 0 0 0.004 
8267 8 0.0323595 0.061601 -0.015143 0 0 0 -0.914119 -0.374509 2.39919 0 -8.0262e-05 0 0 0 0 0 0 0 0 0 0 0 0 0 0 0 0 0 0 0.004 
8215 12 0.00781026 0.0724111 -0.018111 0 0 0 -0.0782859 -0.186028 0.255149 0 -8.0262e-05 0 0 0 0 0 0 0 0 0 0 0 0 0 0 0 0 0 4 0.004 
8169 10 0.047089 0.145793 -0.0193746 0 0 0 -0.0422027 1.02659 -0.022772 0 -8.0262e-05 0 0 0 0 0 0 0 0 0 0 0 0 0 0 0 0 0 0 0.004 
8097 6 0.0199519 0.0719753 -0.0147341 0 0 0 0.210028 0.522989 -1.85923 0 -8.0262e-05 0 0 0 0 0 0 0 0 0 0 0 0 0 0 0 0 0 0 0.004 
8086 5 0.00666544 0.0871095 -0.011812 0 0 0 0.0844779 -0.0139655 0.394167 0 -8.0262e-05 0 0 0 0 0 0 0 0 0 0 0 0 0 0 0 0 0 1 0.004 
8242 9 0.0185171 0.0904406 -0.0110819 0 0 0 -0.290367 -0.917678 0.76407 0 -8.0262e-05 0 0 0 0 0 0 0 0 0 0 0 0 0 0 0 0 0 0 0.004 
8150 14 -0.00260443 0.131883 -0.0129276 0 0 0 -0.21461 0.0918095 0.0610174 0 -8.0262e-05 0 0 0 0 0 0 0 0 0 0 0 0 0 0 0 0 0 1 0.004 
8260 11 0.00933537 0.0436459 -0.00929483 0 0 0 0 -0.907229 1.09041 0 -8.0262e-05 0 0 0 0 0 0 0 0 0 0 0 0 0 0 0 0 0 0 0.004 
8194 11 0.00714093 0.0789693 -0.00861992 0 0 0 -0.849855 0.62457 -0.796791 0 -8.0262e-05 0 0 0 0 0 0 0 0 0 0 0 0 0 0 0 0 0 0 0.004 
8240 9 0.0334403 0.0986759 -0.00887253 0 0 0 -0.0163032 0.26932 1.01383 0 -8.0262e-05 0 0 0 0 0 0 0 0 0 0 0 0 0 0 0 0 0 0 0.004 
8132 8 0.0002653 0.126647 -0.00735767 0 0 0 -0.208851 0.125564 0.101744 0 -8.0262e-05 0 0 0 0 0 0 0 0 0 0 0 0 0 0 0 0 0 0 0.004 
8129 7 0.0527804 0.141518 -0.00820617 0 0 0 0.247303 0.0745176 0.533984 0 -8.0262e-05 0 0 0 0 0 0 0 0 0 0 0 0 0 0 0 0 0 0 0.004 
8063 5 0.0855083 0.0487697 -0.0102301 0 0 0 -11.0216 -6.15778 -13.9068 0 -8.0262e-05 0 0 0 0 0 0 0 0 0 0 0 0 0 0 0 0 0 3 0.004 
8255 11 0.0216117 0.0565865 -0.0168905 0 0 0 1.38903 7.95446 -25.1524 0 -8.0262e-05 0 0 0 0 0 0 0 0 0 0 0 0 0 0 0 0 0 0 0.004 
8274 8 0.0474384 0.0543078 -0.00151548 0 0 0 0.914119 -1.17391 5.95436 0 -8.0262e-05 0 0 0 0 0 0 0 0 0 0 0 0 0 0 0 0 0 0 0.004 
8208 7 0.0911413 0.0543482 -0.0119421 0 0 0 -9.75988 -6.42 -20.2413 0 -8.0262e-05 0 0 0 0 0 0 0 0 0 0 0 0 0 0 0 0 0 0 0.004 
8019 10 0.0196396 0.119394 -0.00506297 0 0 0 0.100869 0.0923091 0.370316 0 -8.0262e-05 0 0 0 0 0 0 0 0 0 0 0 0 0 0 0 0 0 0 0.004 
8271 2 0.0270628 0.0348658 -0.00797882 0 0 0 -2.11074 -3.84665 -20.7542 0.013986 -0.0840025 -0.0075179 0 0 0 0 0 0 0 0 0 0 0 0 0 0 0 0 0 0.004 
7068 14 0.104158 0.0556291 -0.00429592 0 0 0 1.08243 -0.577325 -7.26713 0 -8.0262e-05 0 0 0 0 0 0 0 0 0 0 0 0 0 0 0 0 0 2 0.004 
6791 3 0.00711849 0.0837014 0.00130842 0 0 0 0.0245626 -0.716921 0.794727 0 -8.0262e-05 0 0 0 0 0 0 0 0 0 0 0 0 0 0 0 0 0 4 0.004 
8108 10 0.0452627 0.0867393 -0.0026562 0 0 0 -0.502726 5.37675 -2.7841 0 -8.0262e-05 0 0 0 0 0 0 0 0 0 0 0 0 0 0 0 0 0 1 0.004 
8230 16 0.03046 0.0859821 -0.00213796 0 0 0 0.252984 0.0919012 0.605831 0 -8.0262e-05 0 0 0 0 0 0 0 0 0 0 0 0 0 0 0 0 0 0 0.004 
8190 9 0.00817257 0.0963131 0.00022884 0 0 0 0.394914 -0.0653707 0.913159 0 -8.0262e-05 0 0 0 0 0 0 0 0 0 0 0 0 0 0 0 0 0 0 0.004 
8056 1 0.00512821 0.104722 0.00075172 0 0 0 0.0062411 0.11786 0.218128 0 -8.0262e-05 0 0 0 0 0 0 0 0 0 0 0 0 0 0 0 0 0 1 0.004 
7982 5 0.0146885 0.124944 0.000299182 0 0 0 0.0781966 0.267535 0.149521 0 -8.0262e-05 0 0 0 0 0 0 0 0 0 0 0 0 0 0 0 0 0 0 0.004 
8149 10 0.00729473 0.128969 -0.00194303 0 0 0 0.0880485 0.345916 -0.0476353 0 -8.0262e-05 0 0 0 0 0 0 0 0 0 0 0 0 0 0 0 0 0 0 0.004 
8125 15 0.0943972 0.05016 -0.00543532 0 0 0 -5.68869 -15.1839 -20.9292 0 -8.0262e-05 0 0 0 0 0 0 0 0 0 0 0 0 0 0 0 0 0 0 0.004 
7983 8 0.00570652 0.0588324 0.000668433 0 0 0 -3.74193 1.4758 -6.09478 0 -8.0262e-05 0 0 0 0 0 0 0 0 0 0 0 0 0 0 0 0 0 0 0.004 
8210 10 0.00760523 0.0671274 0.00109367 0 0 0 -0.693066 2.40895 -2.60546 0 -8.0262e-05 0 0 0 0 0 0 0 0 0 0 0 0 0 0 0 0 0 0 0.004 
8196 4 0.0161445 0.084236 0.00596235 0 0 0 0.262962 -0.115728 0.584313 0 -8.0262e-05 0 0 0 0 0 0 0 0 0 0 0 0 0 0 0 0 0 0 0.004 
8259 11 0.0327986 0.101597 0.00340506 0 0 0 -0.0638851 -0.0812945 1.75094 0 -8.0262e-05 0 0 0 0 0 0 0 0 0 0 0 0 0 0 0 0 0 0 0.004 
8005 9 0.00702456 0.138177 0.00553418 0 0 0 -0.189511 0.039158 0.466191 0 -8.0262e-05 0 0 0 0 0 0 0 0 0 0 0 0 0 0 0 0 0 1 0.004 
7760 15 0.013949 0.0760618 0.00666614 0 0 0 0.0104458 1.59129 -0.894122 0 -8.0262e-05 0 0 0 0 0 0 0 0 0 0 0 0 0 0 0 0 0 1 0.004 
8128 6 0.00500035 0.0771383 0.00818213 0 0 0 0.00677076 -0.135434 0.0571616 0 -8.0262e-05 0 0 0 0 0 0 0 0 0 0 0 0 0 0 0 0 0 0 0.004 
8185 15 0.00508029 0.085234 0.00998727 0 0 0 0.0186815 -0.0693195 0.315948 0 -8.0262e-05 0 0 0 0 0 0 0 0 0 0 0 0 0 0 0 0 0 0 0.004 
8164 12 0.00501113 0.0940094 0.00776529 0 0 0 0.0119877 -0.0363802 0.787346 0 -8.0262e-05 0 0 0 0 0 0 0 0 0 0 0 0 0 0 0 0 0 0 0.004 
8109 11 0.00561272 0.119678 0.00755939 0 0 0 0.0142207 0.353062 0.132559 0 -8.0262e-05 0 0 0 0 0 0 0 0 0 0 0 0 0 0 0 0 0 0 0.004 
8263 7 0.0404603 0.120768 0.0103263 0 0 0 -0.0751393 0.249276 2.39253 0 -8.0262e-05 0 0 0 0 0 0 0 0 0 0 0 0 0 0 0 0 0 0 0.004 
8134 11 0.0444557 0.139694 0.00889406 0 0 0 0.211845 1.49202 1.72488 0 -8.0262e-05 0 0 0 0 0 0 0 0 0 0 0 0 0 0 0 0 0 0 0.004 
8118 11 0.0881097 0.0555446 0.00500033 0 0 0 -4.35597 1.79689 -16.1739 0 -8.0262e-05 0 0 0 0 0 0 0 0 0 0 0 0 0 0 0 0 0 2 0.004 
8257 9 0.0111369 0.0651313 0.00963151 0 0 0 -1.05866 5.71516 -5.55638 0 -8.0262e-05 0 0 0 0 0 0 0 0 0 0 0 0 0 0 0 0 0 0 0.004 
7973 8 0.0118998 0.0723072 0.0134846 0 0 0 -1.04823 4.0218 0.756514 -0.0748563 -0.194055 -0.0855712 0 0 0 0 0 0 0 1 0 0 0 0 0 0 0 0 1 0.004 
8006 3 0.0346808 0.0708385 0.0127 0 0 0 0.181166 2.79078 -3.23071 0 -8.0262e-05 0 0 0 0 0 0 0 0 0 0 0 0 0 0 0 0 0 1 0.004 
8043 7 0.00501714 0.099128 0.0145926 0 0 0 0.0032552 0.254694 0.811233 0 -8.0262e-05 0 0 0 0 0 0 0 0 0 0 0 0 0 0 0 0 0 0 0.004 
8105 16 0.0677737 0.13596 0.0140251 0 0 0 0.445553 0.0667624 0.218217 0 -8.0262e-05 0 0 0 0 0 0 0 0 0 0 0 0 0 0 0 0 0 0 0.004 
8004 7 0.0228507 0.142692 0.0116898 0 0 0 0.183753 0.436266 0.118833 0 -8.0262e-05 0 0 0 0 0 0 0 0 0 0 0 0 0 0 0 0 0 0 0.004 
7687 7 0.0817856 0.0545861 0.0119186 0 0 0 -1.1505 3.36265 -11.6336 0 -8.0262e-05 0 0 0 0 0 0 0 0 0 0 0 0 0 0 0 0 0 3 0.004 
8238 7 0.0050467 0.0575169 0.0170704 0 0 0 0.0661234 1.2222 -0.124007 0 -8.0262e-05 0 0 0 0 0 0 0 0 0 0 0 0 0 0 0 0 0 0 0.004 
8200 13 0.0202953 0.0612144 0.01733 0 0 0 -0.733174 0.91982 -1.98846 0 -8.0262e-05 0 0 0 0 0 0 0 0 0 0 0 0 0 0 0 0 0 0 0.004 
8094 12 0.00507394 0.0748488 0.0182429 0 0 0 0.00776347 0.085105 0.323169 0 -8.0262e-05 0 0 0 0 0 0 0 0 0 0 0 0 0 0 0 0 0 0 0.004 
8247 8 0.0365265 0.077921 0.0171899 0 0 0 0.730856 0.291776 1.33307 0 -8.0262e-05 0 0 0 0 0 0 0 0 0 0 0 0 0 0 0 0 0 0 0.004 
8244 15 0.0104406 0.0834414 0.0159924 0 0 0 0.193729 -0.286857 0.204614 0 -8.0262e-05 0 0 0 0 0 0 0 0 0 0 0 0 0 0 0 0 0 0 0.004 
8249 12 0.0406214 0.0858596 0.0147836 0 0 0 -0.353301 -0.234769 0.595361 0 -8.0262e-05 0 0 0 0 0 0 0 0 0 0 0 0 0 0 0 0 0 0 0.004 
7831 3 0.00628276 0.111204 0.0150324 0 0 0 0.0363538 0.166861 -0.023844 0 -8.0262e-05 0 0 0 0 0 0 0 0 0 0 0 0 0 0 0 0 0 1 0.004 
8076 1 0.0428666 0.0649702 0.00986348 0 0 0 1.40775 16.4783 -19.3113 0 -8.0262e-05 0 0 0 0 0 0 0 0 0 0 0 0 0 0 0 0 0 2 0.004 
7924 11 0.0390689 0.0699041 0.0199472 0 0 0 2.59839 7.93948 -1.32809 0 -8.0262e-05 0 0 0 0 0 0 0 0 0 0 0 0 0 0 0 0 0 0 0.004 
8136 3 0.0182317 0.0689334 0.018759 0 0 0 0.388453 -0.389106 -0.0815913 0 -8.0262e-05 0 0 0 0 0 0 0 0 0 0 0 0 0 0 0 0 0 1 0.004 
8235 12 0.0470195 0.0709257 0.0157379 0 0 0 -0.869146 1.65061 -4.41065 0.121947 -0.00131894 -1.35341e-05 0 0 0 0 0 0 0 0 0 0 0 0 0 0 0 0 0 0.004 
8226 2 0.0128604 0.0753326 0.0208228 0 0 0 0.0948442 -0.58319 -0.266525 0.0748563 0.193894 0.0855712 0 0 0 0 0 0 0 1 0 0 0 0 0 0 0 0 2 0.004 
8035 13 0.0203111 0.0784243 0.0195234 0 0 0 0.0566322 -0.525938 -0.337365 0 -8.0262e-05 0 0 0 0 0 0 0 0 0 0 0 0 0 0 0 0 0 0 0.004 
8246 1 0.0469184 0.0877314 0.0199384 0 0 0 -0.0214873 -0.32044 0.348291 0 -8.0262e-05 0 0 0 0 0 0 0 0 0 0 0 0 0 0 0 0 0 0 0.004 
8252 2 0.0378834 0.114142 0.0226054 0 0 0 1.15609 0.636475 1.75598 0 -8.0262e-05 0 0 0 0 0 0 0 0 0 0 0 0 0 0 0 0 0 0 0.004 
8135 12 0.024034 0.143308 0.0204406 0 0 0 -0.168802 0.0516718 0.467496 0 -8.0262e-05 0 0 0 0 0 0 0 0 0 0 0 0 0 0 0 0 0 1 0.004 
7999 8 0.0134847 0.0595853 0.0242448 0 0 0 0.0891524 -0.582898 0.204266 0 -8.0262e-05 0 0 0 0 0 0 0 0 0 0 0 0 0 0 0 0 0 1 0.004 
7759 14 0.0273384 0.0651751 0.0195495 0 0 0 -0.631517 9.57438 -6.27312 0 -8.0262e-05 0 0 0 0 0 0 0 0 0 0 0 0 0 0 0 0 0 1 0.004 
8228 5 0.0468142 0.0628132 0.0216461 0 0 0 -0.638293 1.23245 -4.58762 0 -8.0262e-05 0 0 0 0 0 0 0 0 0 0 0 0 0 0 0 0 0 0 0.004 
7695 11 0.00531131 0.0658059 0.0238356 0 0 0 0.0108834 -0.48257 -0.0218875 0 -8.0262e-05 0 0 0 0 0 0 0 0 0 0 0 0 0 0 0 0 0 1 0.004 
8054 11 0.0469641 0.0748837 0.0260209 0 0 0 -0.00449791 -0.469563 0.0337471 0 -8.0262e-05 0 0 0 0 0 0 0 0 0 0 0 0 0 0 0 0 0 1 0.004 
8143 13 0.00814951 0.0861058 0.0269263 0 0 0 -0.0783221 -0.507417 -0.0831075 0 -8.0262e-05 0 0 0 0 0 0 0 0 0 0 0 0 0 0 0 0 0 0 0.004 
8262 6 0.0283701 0.0907816 0.0244129 0 0 0 1.00119 -1.80897 -0.0654264 0 -8.0262e-05 0 0 0 0 0 0 0 0 0 0 0 0 0 0 0 0 0 0 0.004 
8116 4 0.0232144 0.10869 0.0253171 0 0 0 -0.0718774 0.141869 0.175168 0 -8.0262e-05 0 0 0 0 0 0 0 0 0 0 0 0 0 0 0 0 0 2 0.004 
8003 7 -0.00311349 0.133544 0.0268121 0 0 0 -0.302182 0.0183708 0.625197 0 -8.0262e-05 0 0 0 0 0 0 0 0 0 0 0 0 0 0 0 0 0 0 0.004 
7951 2 0.0125213 0.0542266 0.0305977 0 0 0 0.029834 -0.427462 -0.0153789 0 -8.0262e-05 0 0 0 0 0 0 0 0 0 0 0 0 0 0 0 0 0 1 0.004 
7891 4 0.00508909 0.0586078 0.0301078 0 0 0 0.00720449 -0.42676 -0.019754 0 -8.0262e-05 0 0 0 0 0 0 0 0 0 0 0 0 0 0 0 0 0 1 0.004 
7969 8 0.0206812 0.0630928 0.0289712 0 0 0 0.0511438 -0.173028 -0.204107 0 -8.0262e-05 0 0 0 0 0 0 0 0 0 0 0 0 0 0 0 0 0 1 0.004 
8183 12 0.046815 0.0679247 0.0301394 0 0 0 -0.238308 0.890745 -0.907831 0 -8.0262e-05 0 0 0 0 0 0 0 0 0 0 0 0 0 0 0 0 0 0 0.004 
7802 8 0.00581649 0.0694081 0.0309823 0 0 0 -0.0180981 -0.513407 -0.00148208 0 -8.0262e-05 0 0 0 0 0 0 0 0 0 0 0 0 0 0 0 0 0 1 0.004 
8055 11 0.0138926 0.0713063 0.0299885 0 0 0 -0.0154727 -0.408703 -0.0466529 0 -8.0262e-05 0 0 0 0 0 0 0 0 0 0 0 0 0 0 0 0 0 0 0.004 
7985 13 0.0230837 0.0759994 0.0287896 0 0 0 -0.196036 -0.0117017 0.178468 0 -8.0262e-05 0 0 0 0 0 0 0 0 0 0 0 0 0 0 0 0 0 0 0.004 
8254 10 0.0350142 0.0733737 0.0295959 0 0 0 0.805426 0.386872 0.742006 0 -8.0262e-05 0 0 0 0 0 0 0 0 0 0 0 0 0 0 0 0 0 0 0.004 
7913 3 0.00614214 0.0772086 0.0282456 0 0 0 0.061703 -0.523295 -0.151211 0 -8.0262e-05 0 0 0 0 0 0 0 0 0 0 0 0 0 0 0 0 0 2 0.004 
8084 14 0.0466933 0.0866163 0.0296169 0 0 0 -0.0719238 -0.413878 -0.235724 0 -8.0262e-05 0 0 0 0 0 0 0 0 0 0 0 0 0 0 0 0 0 1 0.004 
8075 10 0.00719268 0.0946915 0.0299615 0 0 0 -0.037969 -0.471159 -0.0311189 0 -8.0262e-05 0 0 0 0 0 0 0 0 0 0 0 0 0 0 0 0 0 0 0.004 
8146 8 0.0272689 0.0964811 0.0307098 0 0 0 -0.0481267 -0.753828 -0.287292 0 -8.0262e-05 0 0 0 0 0 0 0 0 0 0 0 0 0 0 0 0 0 0 0.004 
7669 11 0.0295639 0.108255 0.0308997 0 0 0 0.500028 0.643955 -0.0354484 0 -8.0262e-05 0 0 0 0 0 0 0 0 0 0 0 0 0 0 0 0 0 3 0.004 
7877 8 0.026103 0.140854 0.0304178 0 0 0 -0.248759 0.28971 0.65564 0 -8.0262e-05 0 0 0 0 0 0 0 0 0 0 0 0 0 0 0 0 0 0 0.004 
8179 12 0.0447115 0.140826 0.0311712 0 0 0 -0.0537738 1.07513 1.21861 0 -8.0262e-05 0 0 0 0 0 0 0 0 0 0 0 0 0 0 0 0 0 0 0.004 
8171 4 0.0493013 0.0320023 0.0328507 0 0 0 -2.8636 8.59566 -11.4347 0 -8.0262e-05 0 0 0 0 0 0 0 0 0 0 0 0 0 0 0 0 0 1 0.004 
8186 6 0.043291 0.146371 0.0402655 0 0 0 0.0112158 0.465176 0.571998 0 -8.0262e-05 0 0 0 0 0 0 0 0 0 0 0 0 0 0 0 0 0 0 0.004 
8248 11 0.0581016 0.0393419 0.0395848 0 0 0 -0.565063 7.64515 -8.79831 0 -8.0262e-05 0 0 0 0 0 0 0 0 0 0 0 0 0 0 0 0 0 0 0.004 
8180 16 0.0255727 0.119671 0.0438981 0 0 0 0.123999 0.0323018 0.41483 0 -8.0262e-05 0 0 0 0 0 0 0 0 0 0 0 0 0 0 0 0 0 0 0.004 
8181 9 0.0308324 0.0361955 0.0424261 0 0 0 4.5323 9.81651 -7.64273 0 -8.0262e-05 0 0 0 0 0 0 0 0 0 0 0 0 0 0 0 0 0 0 0.004 
8044 11 0.0104979 0.11718 0.0498049 0 0 0 -0.0338765 -0.0958405 0.549625 0 -8.0262e-05 0 0 0 0 0 0 0 0 0 0 0 0 0 0 0 0 0 1 0.004 
7971 3 0.0614876 0.115636 0.0501311 0 0 0 0.283644 -0.732117 0.391898 0 -8.0262e-05 0 0 0 0 0 0 0 0 0 0 0 0 0 0 0 0 0 0 0.004 
8112 7 0.00599777 0.00938531 0.0550687 0 0 0 0.202942 -2.53365 0.651041 0 -8.0262e-05 0 0 0 0 0 0 0 0 0 0 0 0 0 0 0 0 0 1 0.004 
8251 1 0.0650138 0.0198231 0.0522076 0 0 0 -0.674346 17.4227 -5.27445 0 -8.0262e-05 0 0 0 0 0 0 0 0 0 0 0 0 0 0 0 0 0 0 0.004 
8098 6 0.0807512 0.0189021 0.0526029 0 0 0 -0.357731 7.91995 -2.19521 0 -8.0262e-05 0 0 0 0 0 0 0 0 0 0 0 0 0 0 0 0 0 2 0.004 
8036 7 0.00151272 0.116322 0.0570023 0 0 0 -0.0618731 -0.37962 0.629695 0 -8.0262e-05 0 0 0 0 0 0 0 0 0 0 0 0 0 0 0 0 0 0 0.004 
8009 10 0.193354 -0.00930347 -0.054966 0 0 0 -0.152072 -6.80017 1.24875 0 -8.0262e-05 0 0 0 0 0 0 0 0 0 0 0 0 0 0 0 0 0 0 0.004 
7963 7 0.210778 -0.0269339 -0.0488092 0 0 0 1.48379 -8.36047 4.83351 0 -8.0262e-05 0 0 0 0 0 0 0 0 0 0 0 0 0 0 0 0 0 0 0.004 
7904 12 0.189473 -0.0246758 -0.050002 0 0 0 1.43612 -13.4827 5.74912 0 -8.0262e-05 0 0 0 0 0 0 0 0 0 0 0 0 0 0 0 0 0 0 0.004 
7796 1 0.197568 -0.0233178 -0.0509075 0 0 0 0.910488 -7.22617 3.5247 -0.101036 0.148543 0.171435 0 0 0 0 0 0 0 0 0 0 0 0 0 0 0 0 0 0.004 
7806 1 0.21893 -0.0264763 -0.0485061 0 0 0 2.66628 -12.698 6.4743 0 -8.0262e-05 0 0 0 0 0 0 0 0 0 0 0 0 0 0 0 0 0 1 0.004 
8191 7 0.14992 -0.020655 -0.0518561 0 0 0 -0.239619 -7.65152 2.7186 0 -8.0262e-05 0 0 0 0 0 0 0 0 0 0 0 0 0 0 0 0 0 0 0.004 
6818 9 0.145001 -0.0133897 -0.0518185 0 0 0 -3.8356 -8.14391 4.01974 0 -8.0262e-05 0 0 0 0 0 0 0 0 0 0 0 0 0 0 0 0 0 6 0.004 
8199 13 0.136339 -0.0380748 -0.04086 0 0 0 1.9029 -15.3432 12.7809 0 -8.0262e-05 0 0 0 0 0 0 0 0 0 0 0 0 0 0 0 0 0 0 0.004 
7699 10 0.167225 -0.0352846 -0.0431101 0 0 0 -2.49136 -6.33888 5.34905 0 -8.0262e-05 0 0 0 0 0 0 0 0 0 0 0 0 0 0 0 0 0 1 0.004 
8095 16 0.107225 -0.033722 -0.0444549 0 0 0 -1.33346 -9.93593 8.29915 0 -8.0262e-05 0 0 0 0 0 0 0 0 0 0 0 0 0 0 0 0 0 2 0.004 
8216 2 0.116264 -0.0329885 -0.0448771 0 0 0 0.631903 -7.77699 5.74899 0 -8.0262e-05 0 0 0 0 0 0 0 0 0 0 0 0 0 0 0 0 0 1 0.004 
8081 8 0.170629 -0.0288167 -0.0478081 0 0 0 -0.672724 -5.22239 3.27847 0.00237458 -0.00215579 -0.0423759 0 0 0 0 0 0 0 0 0 0 0 0 0 0 0 0 1 0.004 
7932 3 0.114635 -0.0391452 -0.0400344 0 0 0 -1.41305 -5.53552 5.78928 -0.00591449 0.235355 0.240714 0 0 0 0 0 0 0 0 0 0 0 0 0 0 0 0 0 0.004 
8091 2 0.154169 -0.036314 -0.0422862 0 0 0 -2.15012 -7.7962 6.50571 0 -8.0262e-05 0 0 0 0 0 0 0 0 0 0 0 0 0 0 0 0 0 2 0.004 
7449 12 0.160129 -0.0335957 -0.0374797 0 0 0 -3.09588 -9.08933 8.18637 0 -8.0262e-05 0 0 0 0 0 0 0 0 0 0 0 0 0 0 0 0 0 2 0.004 
8157 8 0.167649 -0.0412264 -0.037346 0 0 0 1.6169 -6.88675 6.11425 0 -8.0262e-05 0 0 0 0 0 0 0 0 0 0 0 0 0 0 0 0 0 0 0.004 
7769 13 0.158305 -0.0456814 -0.0322114 0 0 0 0.418576 -3.89203 6.66779 0.000400831 -0.0173627 -0.0100745 0 0 0 0 0 0 0 0 0 0 0 0 0 0 0 0 2 0.004 
8184 12 0.114749 -0.0434031 -0.0317955 0 0 0 0.590883 -10.4806 6.18844 0 -8.0262e-05 0 0 0 0 0 0 0 0 0 0 0 0 0 0 0 0 0 0 0.004 
7724 5 0.167074 -0.049046 -0.0257611 0 0 0 -3.98227 -2.40126 3.66065 0 -8.0262e-05 0 0 0 0 0 0 0 0 0 0 0 0 0 0 0 0 0 3 0.004 
7574 11 0.148621 -0.0501647 -0.0188555 0 0 0 -1.23078 -9.41231 13.131 0 -8.0262e-05 0 0 0 0 0 0 0 0 0 0 0 0 0 0 0 0 0 2 0.004 
7584 9 0.196137 -0.0554844 -0.00689345 0 0 0 2.52156 -3.48081 17.4408 0 -8.0262e-05 0 0 0 0 0 0 0 0 0 0 0 0 0 0 0 0 0 1 0.004 
8189 9 0.138752 -0.0524031 0.0032022 0 0 0 -2.99568 4.33184 22.5825 0 -8.0262e-05 0 0 0 0 0 0 0 0 0 0 0 0 0 0 0 0 0 1 0.004 
8187 7 0.163416 -0.0555914 -0.00598098 0 0 0 -0.529769 0.0234301 6.68833 -0.000422244 -0.0298716 -0.000425189 0 0 0 0 0 0 0 0 0 0 0 0 0 0 0 0 0 0.004 
8167 9 0.17049 -0.0426779 -0.00512176 0 0 0 1.75829 -0.335439 8.35746 0 -8.0262e-05 0 0 0 0 0 0 0 0 0 0 0 0 0 0 0 0 0 0 0.004 
7915 6 0.110029 -0.0557825 0.000332652 0 0 0 5.45576 -0.383302 14.0193 0 -8.0262e-05 0 0 0 0 0 0 0 0 0 0 0 0 0 0 0 0 0 0 0.004 
7986 4 0.174795 -0.0556538 0.00482972 0 0 0 -6.17697 2.96424 17.8051 -0.00796394 -0.0332128 0.00832178 0 0 0 0 0 0 0 0 0 0 0 0 0 0 0 0 0 0.004 
8046 4 0.183558 -0.0522758 0.00881332 0 0 0 -3.72154 0.984753 28.6277 0 -8.0262e-05 0 0 0 0 0 0 0 0 0 0 0 0 0 0 0 0 0 0 0.004 
8123 7 0.198093 -0.0495608 0.000402061 0 0 0 -2.0387 -0.901383 13.1957 0 -8.0262e-05 0 0 0 0 0 0 0 0 0 0 0 0 0 0 0 0 0 0 0.004 
7637 4 0.135021 -0.0549813 0.00980228 0 0 0 -2.17368 3.08924 22.9383 0 -8.0262e-05 0 0 0 0 0 0 0 0 0 0 0 0 0 0 0 0 0 0 0.004 
7610 11 0.191915 -0.0548471 0.0104257 0 0 0 -0.876073 3.4397 23.9522 0 -8.0262e-05 0 0 0 0 0 0 0 0 0 0 0 0 0 0 0 0 0 3 0.004 
7581 3 0.205295 -0.0558549 0.00332054 0 0 0 1.905 1.01993 11.5872 0.0121645 0.286531 -0.0381455 0 0 0 0 0 0 0 0 0 0 0 0 0 0 0 0 2 0.004 
7993 8 0.165728 -0.054808 0.0105421 0 0 0 -2.54334 1.79754 12.5373 0 -8.0262e-05 0 0 0 0 0 0 0 0 0 0 0 0 0 0 0 0 0 1 0.004 
7417 3 0.217531 -0.0533597 0.0161643 0 0 0 6.96177 3.17385 9.82744 0 -8.0262e-05 0 0 0 0 0 0 0 0 0 0 0 0 0 0 0 0 0 3 0.004 
8127 4 0.155063 -0.0473462 0.0297574 0 0 0 0.362566 5.0017 9.56479 0 -8.0262e-05 0 0 0 0 0 0 0 0 0 0 0 0 0 0 0 0 0 0 0.004 
7994 9 0.193567 -0.0470222 0.0302832 0 0 0 2.59185 4.38441 6.30613 -0.00786878 0.127386 -0.094978 0 0 0 0 0 0 0 0 0 0 0 0 0 0 0 0 1 0.004 
8067 7 0.163756 -0.0310432 0.0284456 0 0 0 -4.88159 7.94975 8.48246 0 -8.0262e-05 0 0 0 0 0 0 0 0 0 0 0 0 0 0 0 0 0 0 0.004 
8124 9 0.123125 -0.0416048 0.0373976 0 0 0 1.3759 11.7574 15.3196 0.0739684 0.298966 -0.269919 0 0 0 0 0 0 0 0 0 0 0 0 0 0 0 0 0 0.004 
8261 4 0.111676 -0.0412673 0.0365405 0 0 0 8.78049 3.89807 13.4939 0 -8.0262e-05 0 0 0 0 0 0 0 0 0 0 0 0 0 0 0 0 0 0 0.004 
7997 5 0.21829 -0.0438853 0.0343833 0 0 0 -2.59663 6.59196 8.63622 0 -8.0262e-05 0 0 0 0 0 0 0 0 0 0 0 0 0 0 0 0 0 0 0.004 
8057 6 0.20488 -0.0431859 0.0353291 0 0 0 2.26732 5.6075 7.31654 0 -8.0262e-05 0 0 0 0 0 0 0 0 0 0 0 0 0 0 0 0 0 0 0.004 
7628 7 0.150062 -0.0354634 0.0432019 0 0 0 1.48966 13.2448 12.4231 0 -8.0262e-05 0 0 0 0 0 0 0 0 0 0 0 0 0 0 0 0 0 0 0.004 
7988 10 0.120022 -0.0315237 0.0415334 0 0 0 1.57246 5.48948 3.36871 0 -8.0262e-05 0 0 0 0 0 0 0 0 0 0 0 0 0 0 0 0 0 1 0.004 
7728 10 0.14195 -0.0311419 0.0462911 0 0 0 1.87836 12.3548 7.94379 -0.00101573 -0.0201036 0.0361233 0 0 0 0 0 0 0 0 0 0 0 0 0 0 0 0 4 0.004 
8008 9 0.150451 -0.0286854 0.0479376 0 0 0 0.857358 12.0827 8.14333 0 -8.0262e-05 0 0 0 0 0 0 0 0 0 0 0 0 0 0 0 0 0 1 0.004 
7463 12 0.167183 -0.0274294 0.0486857 0 0 0 1.59324 14.5274 9.49967 0 -8.0262e-05 0 0 0 0 0 0 0 0 0 0 0 0 0 0 0 0 0 1 0.004 
7949 10 0.199669 -0.0348639 0.0437054 0 0 0 4.36315 7.49158 6.75348 0 -8.0262e-05 0 0 0 0 0 0 0 0 0 0 0 0 0 0 0 0 0 0 0.004 
8195 14 0.190452 -0.0278904 0.0423461 0 0 0 0.914687 9.8899 3.70161 -0.0199152 0.0173045 -0.119852 0 0 0 0 0 0 0 0 0 0 0 0 0 1 0 0 1 0.004 
8078 9 0.111889 -0.0285378 0.0479239 0 0 0 -1.59227 4.68172 3.062 0 -8.0262e-05 0 0 0 0 0 0 0 0 0 0 0 0 0 0 0 0 0 0 0.004 
8152 7 0.13703 -0.0253085 0.0494315 0 0 0 -1.43058 12.6767 5.68687 0 -8.0262e-05 0 0 0 0 0 0 0 0 0 0 0 0 0 0 0 0 0 0 0.004 
8120 15 0.191836 -0.025378 0.0497714 0 0 0 0.104131 8.40193 3.88511 0.00831174 -0.0314398 0.0162661 0 0 0 0 0 0 0 0 0 0 0 0 0 1 0 0 1 0.004 
8229 11 0.119419 -0.0188203 0.0499292 0 0 0 -2.78689 4.61227 4.71351 0 -8.0262e-05 0 0 0 0 0 0 0 0 0 0 0 0 0 0 0 0 0 0 0.004 
8165 14 0.144312 -0.0223043 0.0511182 0 0 0 1.27058 8.77592 3.654 -0.00805899 -0.00131245 -0.00519443 0 0 0 0 0 0 0 0 0 0 0 0 0 1 0 0 1 0.004 
8222 7 0.151849 -0.0198715 0.0521399 0 0 0 0.836504 9.92902 4.51343 0.00805899 0.00115192 0.00519443 0 0 0 0 0 0 0 0 0 0 0 0 0 1 0 0 1 0.004 
8045 13 0.188942 -0.0155291 0.053622 0 0 0 1.10954 11.0518 2.64598 0.000659733 0.00629177 -0.0166018 0 0 0 0 0 0 0 0 0 0 0 0 0 0 0 0 0 0.004 
8100 9 0.16487 -0.0144347 0.0538487 0 0 0 3.19355 6.09559 1.48781 0 -8.0262e-05 0 0 0 0 0 0 0 0 0 0 0 0 0 0 0 0 0 0 0.004 
8166 8 0.117712 -0.0103554 0.0548499 0 0 0 -1.20204 8.1456 1.98946 0 -8.0262e-05 0 0 0 0 0 0 0 0 0 0 0 0 0 0 0 0 0 2 0.004 
8227 5 0.139314 -0.00764258 0.0553439 0 0 0 3.96629 6.30305 0.338855 9.14939e-05 -0.000938281 0.0156961 0 0 0 0 0 0 0 0 0 0 0 0 0 0 0 0 0 0.004 
8151 5 0.205098 -0.00505714 0.0555363 0 0 0 0.158464 11.1287 0.782662 0 -8.0262e-05 0 0 0 0 0 0 0 0 0 0 0 0 0 0 0 0 0 0 0.004 
8051 4 0.11942 -0.0033274 -0.0558767 0 0 0 2.27522 -24.7182 1.55025 -0.0619582 0.0306372 -0.0651718 0 0 0 0 0 0 0 0 0 0 0 0 0 0 0 0 0 0.004 
8202 3 0.111087 -0.00671492 -0.0536817 0 0 0 -3.5468 -23.9278 -12.4776 -0.0224967 -0.0334458 0.0196281 0 0 0 0 0 0 0 0 0 0 0 0 0 0 0 0 0 0.004 
8182 10 0.163049 -0.00105607 -0.0559878 0 0 0 2.20583 -18.9514 0.788738 -0.0617706 0.0505415 0.149914 0 0 0 0 0 0 0 0 0 0 0 0 0 0 0 0 0 0.004 
7922 8 0.188062 0.00320951 0.055708 0 0 0 5.0896 12.4289 -1.25065 0 -8.0262e-05 0 0 0 0 0 0 0 0 0 0 0 0 0 0 0 0 0 1 0.004 
8080 15 0.123053 0.00181474 0.0555383 0 0 0 -5.22716 16.369 -3.47466 0 -8.0262e-05 0 0 0 0 0 0 0 0 0 0 0 0 0 0 0 0 0 1 0.004 
8042 6 0.192031 0.00590581 -0.0554869 0 0 0 -1.26279 -6.0213 -0.935943 0 -8.0262e-05 0 0 0 0 0 0 0 0 0 0 0 0 0 0 0 0 0 0 0.004 
8139 7 0.166696 0.0142033 -0.0540643 0 0 0 0.881883 -10.1408 -3.35289 0 -8.0262e-05 0 0 0 0 0 0 0 0 0 0 0 0 0 0 0 0 0 0 0.004 
8059 12 0.212186 0.100144 0.0732526 0 0 0 0.991763 -0.944516 0.345104 0 -8.0262e-05 0 0 0 0 0 0 0 0 0 0 0 0 0 0 0 0 0 0 0.004 
7826 1 0.170098 0.0204984 -0.0499769 0 0 0 2.39858 -11.0722 -1.63663 0 -8.0262e-05 0 0 0 0 0 0 0 0 0 0 0 0 0 0 0 0 0 4 0.004 