ITEM: TIMESTEP
38700000
ITEM: NUMBER OF ATOMS
2688
ITEM: BOX BOUNDS ff ff ff
-0.01 0.45
-0.15 0.15
-0.08 0.1
ITEM: ATOMS id type x y z ix iy iz vx vy vz fx fy fz c_cc_1 c_cc_2 c_cc_3 c_cc_4 c_cc_5 c_cc_6 c_cc_7 c_cc_8 c_cc_9 c_cc_10 c_cc_11 c_cc_12 c_cc_13 c_cc_14 c_cc_15 c_cc_16 f_fppacc 
37396 12 0.00661962 -0.00777468 -0.0549643 0 0 0 0.293977 8.13815 -1.19118 0.0568756 0.00761438 0.0706781 0 0 0 0 0 0 0 0 0 0 0 0 0 0 0 0 14 
38166 12 0.0360001 -0.0274171 -0.0482663 0 0 0 -1.53049 6.84278 -3.89046 -0.000104253 0.0029252 0.00450143 0 0 0 0 0 0 0 0 0 0 0 0 0 0 0 0 0 
37288 15 0.0458911 -0.0205741 -0.0455332 0 0 0 -1.25749 6.99189 -4.31406 0 -0.000216769 0 0 0 0 0 0 0 0 0 0 0 0 0 0 0 0 0 15 
38070 8 0.03706 -0.0368225 -0.0416579 0 0 0 -9.93728 10.1396 -8.95514 -0.117736 -0.427084 -0.371784 0 0 0 0 0 0 0 2 0 0 0 0 0 0 0 0 2 
38155 16 0.00734033 -0.0221281 -0.0505865 0 0 0 1.15825 7.86654 -3.39961 -0.0584675 -0.022464 -0.0457238 0 0 0 0 0 0 0 0 0 0 0 0 0 0 0 0 0 
38092 12 0.0139573 -0.0132582 -0.0521929 0 0 0 3.07452 9.82714 -1.14891 0 -0.000227443 0 0 0 0 0 0 0 0 0 0 0 0 0 0 0 0 0 1 
38167 12 0.0177892 -0.0276923 -0.0481295 0 0 0 5.97207 9.90934 -5.64145 -0.00884263 0.0431048 0.0756788 0 0 0 0 0 0 0 0 0 0 0 0 0 0 0 0 0 
36937 14 0.044888 -0.0379733 -0.0380197 0 0 0 -5.18555 17.5724 -11.9134 -0.334722 0.324349 0.174165 0 0 0 0 0 0 0 1 0 0 0 0 0 0 0 0 14 
37737 12 0.0309771 -0.0411911 -0.0366907 0 0 0 -8.58515 4.75951 -10.9594 0.0387905 0.0673259 -0.0259484 0 0 0 0 0 0 0 1 0 0 0 0 0 0 0 0 8 
1201 8 0.0368562 -0.051532 -0.0142271 0 0 0 -0.00151885 7.11298 -25.7662 1.03961e-05 0.352529 0.0973045 0 0 0 0 0 0 0 1 0 0 0 0 0 0 0 0 1945 
38138 8 0.00698998 -0.0419496 -0.00422675 0 0 0 0.913272 1.34672 -6.3119 0 -0.000268443 0 0 0 0 0 0 0 0 0 0 0 0 0 0 0 0 0 0 
37833 8 0.0260642 -0.0475244 -0.0286759 0 0 0 -4.61605 2.73302 -4.57514 -0.00639744 0.0318991 0.0203799 0 0 0 0 0 0 0 0 0 0 0 0 0 0 0 0 10 
38145 14 0.038875 -0.0358439 -0.0319302 0 0 0 -4.30346 15.0953 -7.71183 -0.0806327 0.127156 0.176387 0 0 0 0 0 0 0 0 0 0 0 0 0 0 0 0 0 
38026 12 0.00948551 -0.0492193 -0.0256852 0 0 0 1.88013 4.92777 -9.45603 -0.0116731 0.0570956 0.0302285 0 0 0 0 0 0 0 0 0 0 0 0 0 0 0 0 1 
385 16 0.0472431 -0.0454422 -0.030586 0 0 0 0.00423745 15.2958 -22.7335 -9.33069e-06 0.311235 0.209327 0 0 0 0 0 0 0 0 0 0 0 0 0 0 0 1 2837 
38000 14 0.0314194 -0.0442187 -0.0188032 0 0 0 -2.43387 9.41305 -2.08493 0 -0.000206096 0 0 0 0 0 0 0 0 0 0 0 0 0 0 0 0 0 1 
965 11 0.0444323 -0.048031 -0.0265652 0 0 0 0.00189173 13.2971 -24.0034 -1.36925e-05 0.214906 0.119232 0 0 0 0 0 0 0 0 0 0 1 0 0 0 0 1 4063 
37914 8 0.024927 -0.0526489 -0.0176703 0 0 0 -5.30139 5.56413 -16.5473 -0.104937 -0.647282 -0.134882 0 0 0 0 0 0 0 1 0 0 0 0 0 0 0 0 4 
16581 4 0.0409307 -0.0505942 -0.0219685 0 0 0 -0.000642087 10.9842 -25.2972 4.68096e-06 0.293189 0.127302 0 0 0 0 0 0 0 0 0 0 1 0 0 0 0 0 271 
20630 6 0.0429625 -0.0376142 -0.0184927 0 0 0 3.48303 10.6905 -21.7991 -596.759 -52.1001 112.85 0 0 0 0 0 1 0 0 0 0 0 0 0 0 0 0 190 
22235 16 0.0460467 -0.0294011 -0.0178957 0 0 0 -0.254308 8.78197 -13.9302 1.27389 3.72143 -3.77946 0 0 0 0 0 1 0 0 0 0 0 0 0 0 0 1 200 
38159 12 0.00733652 -0.0544577 -0.0108929 0 0 0 -0.225754 1.42683 -7.91908 -0.080572 0.176423 0.0955072 0 0 0 0 0 0 0 0 0 0 0 1 0 0 0 0 1 
38135 16 0.0147919 -0.0491372 -0.0101403 0 0 0 -0.793821 3.33394 -15.0677 0.0729273 0.174883 -0.20054 0 0 0 0 0 0 0 0 0 0 0 1 0 0 0 1 2 
38081 14 0.0234902 -0.0462338 -0.0116118 0 0 0 -2.66644 6.33393 -16.0772 0.121061 0.0916538 0.20354 0 0 0 0 0 0 0 1 0 0 0 0 0 0 0 1 4 
22977 16 0.0390191 -0.0430682 -0.0124104 0 0 0 -0.0062557 6.19946 -21.5315 -0.000234737 0.294707 0.0846752 0 0 0 0 0 0 0 1 0 0 0 0 0 0 0 0 183 
27809 14 0.0394949 -0.0303121 -0.0114288 0 0 0 -0.0224697 5.7617 -15.0894 0.00728011 0.300414 0.291657 0 0 0 0 0 0 0 0 0 0 0 0 0 0 0 1 32 
37932 8 0.00650453 -0.0546187 0.00990171 0 0 0 0.0470542 -1.19189 -6.57272 0.00376325 0.0130227 -0.00893916 0 0 0 0 0 0 0 0 0 0 0 0 0 0 0 0 4 
38170 8 0.0468502 -0.0346569 0.0298682 0 0 0 -11.1661 -14.5163 -7.63615 0 -0.000268443 0 0 0 0 0 0 0 0 0 0 0 0 0 0 0 0 0 0 
37920 15 0.0189695 -0.0546026 0.010064 0 0 0 -5.11797 -2.07336 -11.3565 0.00611013 0.0713438 -0.0129632 0 0 0 0 0 0 0 0 0 0 0 0 0 0 0 0 1 
37357 14 0.0165955 -0.0513164 0.0211711 0 0 0 0.134541 -3.0479 -7.30918 -0.0336637 -0.0900899 0.0430551 0 0 0 0 0 0 0 0 0 0 0 0 0 0 0 0 11 
38142 12 0.02602 -0.0517751 0.0200441 0 0 0 0.512156 -3.86636 -10.0911 -0.00986485 0.0756545 -0.0292262 0 0 0 0 0 0 0 0 0 0 0 0 0 0 0 0 0 
38144 14 0.0174149 -0.0421407 0.0176461 0 0 0 -0.773201 -2.63516 -13.3059 0 -0.000206096 0 0 0 0 0 0 0 0 0 0 0 0 0 0 0 0 0 0 
37692 16 0.00675083 -0.046344 0.0298734 0 0 0 0.632525 -3.34782 -6.17534 -0.0603808 -0.0268578 -0.0142993 0 0 0 0 0 0 0 0 0 0 0 0 0 0 0 0 5 
37272 8 0.00730069 -0.0386143 0.0360428 0 0 0 0.673199 -4.56415 -6.26467 0 -0.000268443 0 0 0 0 0 0 0 0 0 0 0 0 0 0 0 0 0 7 
38164 16 0.00875939 -0.0263286 0.037005 0 0 0 0.895811 -7.4177 -2.80995 0 -0.000268494 0 0 0 0 0 0 0 0 0 0 0 0 0 0 0 0 0 0 
38183 14 0.0110373 -0.0335223 0.0442458 0 0 0 2.25655 -6.43636 -4.90822 0.00265527 0.0197388 -0.025971 0 0 0 0 0 0 0 0 0 0 0 0 0 0 0 0 0 
38181 12 0.0212612 -0.0323661 0.0451077 0 0 0 2.19126 -7.66697 -5.52158 -0.0208475 0.0437628 -0.0589188 0 0 0 0 0 0 0 0 0 0 0 0 0 0 0 0 0 
38120 12 0.00649826 -0.0177197 0.044154 0 0 0 0.0459824 -7.4204 -4.92281 -0.0055024 -0.0109632 0.00369376 0 0 0 0 0 0 0 0 0 0 0 1 0 0 0 0 1 
38137 8 0.0395521 -0.0236471 0.0479791 0 0 0 -9.53911 -19.2587 0.35117 0 -0.000268443 0 0 0 0 0 0 0 0 0 0 0 0 0 0 0 0 0 0 
37114 8 0.00957122 -0.0235552 0.0502697 0 0 0 -1.82522 -6.92704 -3.33476 0.00921052 0.0214506 -0.0261451 0 0 0 0 0 0 0 0 0 0 0 1 0 0 0 0 14 
37495 8 0.0276439 -0.0242238 0.0499516 0 0 0 -17.7868 -10.8138 -5.45369 -0.00773249 -0.00210208 0.0186048 0 0 0 0 0 0 0 0 0 0 0 0 0 0 0 0 9 
37709 8 0.0119233 -0.00622426 0.0537673 0 0 0 3.81717 -6.54267 -1.50219 0 -0.000268443 0 0 0 0 0 0 0 0 0 0 0 0 0 0 0 0 0 4 
37784 12 0.00836065 -0.00663422 0.0296079 0 0 0 0.0100707 -14.8073 -3.31785 -2.27688e-06 0.0384355 -0.171699 0 0 0 0 0 0 0 0 0 0 0 0 0 0 0 0 0 
37931 16 0.0457092 -0.0174832 0.0523955 0 0 0 -7.41624 -14.3929 -4.91299 -0.17356 -0.171885 0.609184 0 0 0 0 0 0 0 0 0 0 0 0 0 0 0 1 3 
37702 12 0.0451385 -0.0276868 0.0365611 0 0 0 -11.6903 -9.2516 -10.0371 0 -0.000227443 0 0 0 0 0 0 0 0 0 0 0 0 0 0 0 0 0 1 
38151 8 0.0408395 -0.00715742 0.054848 0 0 0 -2.32843 -17.1034 -2.15933 0 -0.000268443 0 0 0 0 0 0 0 0 0 0 0 0 0 0 0 0 0 0 
38125 16 0.0316765 -0.00498094 0.0549938 0 0 0 -2.32802 -8.60422 -0.935397 0.0113348 -0.00804731 0.00187128 0 0 0 0 0 0 0 0 0 0 0 0 0 0 0 0 0 
18622 14 0.000723001 -0.00346831 0.0584561 0 0 0 -1.15246e-14 1.23114e-15 1.86142e-14 8.38218e-15 4.32987e-15 -1.15463e-14 0 0 0 0 0 0 0 0 0 0 0 0 0 0 0 0 50 
37927 6 0.00597919 0.00314043 -0.05566 0 0 0 1.55161 3.21929 0.953599 0.145731 -0.0988709 0.0929194 0 0 0 0 0 1 0 0 0 0 0 0 0 0 0 0 3 
1027 11 0.025081 0.0179516 -0.051964 0 0 0 0.00532013 26.0108 8.95587 0.062043 -0.131147 0.131016 0 0 0 0 0 0 0 0 0 0 2 0 0 0 0 0 2807 
37882 4 0.0109761 0.0165382 -0.0557911 0 0 0 -4.49978 15.4255 0.0142913 0 -0.000227392 0 0 0 0 0 0 0 0 0 0 0 0 0 0 0 0 0 4 
58 1 0.0269748 0.02174 -0.0489101 0 0 0 0.00150222 24.4664 10.8945 0.0215743 0.02719 0.167331 1 0 0 0 0 0 0 0 0 0 1 0 0 0 0 0 2385 
37811 12 0.0449317 0.00907225 -0.0554794 0 0 0 0.872547 7.2453 0.178266 0 -0.000227443 0 0 0 0 0 0 0 0 0 0 0 0 0 0 0 0 0 5 
11811 8 0.0274167 0.0257984 -0.0483731 0 0 0 0.0149076 24.2047 12.9204 0.000957884 -0.188133 0.338636 1 0 0 0 0 0 0 1 0 0 0 0 0 0 0 0 395 
37736 8 0.0404256 0.0235782 -0.0509962 0 0 0 0.0750914 1.03988 4.05383 -0.00878628 0.00834888 0.00467055 0 0 0 0 0 0 0 1 0 0 0 0 0 0 0 0 4 
26944 15 0.00099892 0.0272208 -0.0545369 0 0 0 -5.38692e-16 9.09857e-17 4.62566e-17 0 1.11022e-16 -5.55112e-17 0 0 0 0 0 0 0 0 0 0 0 0 0 0 0 0 40 
37839 8 0.0373498 0.0319449 -0.054149 0 0 0 -3.98617 0.665881 2.13319 0 -0.000268443 0 0 0 0 0 0 0 0 0 0 0 0 0 0 0 0 0 2 
38115 16 0.017661 0.0359358 -0.0548732 0 0 0 -7.08263 1.94226 0.967505 0 -0.000268494 0 0 0 0 0 0 0 0 0 0 0 0 0 0 0 0 0 0 
37826 15 0.0464591 0.0382018 -0.0552231 0 0 0 -2.5928 2.58484 1.0115 -0.0105822 0.0290424 0.015368 0 0 0 0 0 0 0 0 0 0 0 0 0 0 1 0 4 
38018 16 0.0310121 0.0393342 -0.0536151 0 0 0 -0.505947 -1.03068 1.85408 0 -0.000268494 0 0 0 0 0 0 0 0 0 0 0 0 0 0 0 0 0 2 
37378 4 0.00806243 0.0458689 -0.0549772 0 0 0 -0.968245 -1.09749 0.535369 0 -0.000227392 0 0 0 0 0 0 0 0 0 0 0 0 0 0 0 0 0 10 
38122 14 0.022234 0.0441879 -0.0552274 0 0 0 -0.43782 -0.651087 1.274 0.0242348 -0.0621063 -0.00352645 0 0 0 0 0 0 0 0 0 0 0 0 0 1 0 0 1 
37946 12 0.0385901 0.0473582 -0.0527448 0 0 0 -0.16324 0.485343 2.90067 -0.0613964 0.0194821 -0.00400322 0 0 0 0 0 0 0 0 0 0 0 2 0 0 0 0 6 
38075 8 0.0156438 0.0502221 -0.0554994 0 0 0 -1.40189 -1.30604 -0.139337 -0.0272558 0.0301577 -0.00114552 0 0 0 0 0 0 0 2 0 0 0 0 0 1 0 0 3 
37704 14 0.0300404 0.0491377 -0.0547547 0 0 0 -0.186427 0.563759 1.7633 -0.516486 0.178458 -0.151236 0 0 0 0 0 0 0 0 0 0 0 1 0 1 0 0 4 
37526 4 0.00610192 0.0552354 -0.0555355 0 0 0 0.472403 0.55255 0.219293 0.0653936 -0.0931614 -0.0288645 0 0 0 3 0 0 0 0 0 0 0 0 0 0 0 0 5 
37998 14 0.0137948 0.0589073 -0.0547515 0 0 0 1.52735 0.160916 -0.0817934 -0.0321393 -0.0575071 -0.0247211 0 0 0 1 0 0 0 1 0 0 0 0 0 2 0 0 4 
37917 12 0.0231048 0.0552077 -0.055521 0 0 0 -1.60176 -0.869938 0.327241 0.00798997 0.000920766 -0.0437904 0 0 0 0 0 0 0 1 0 0 0 1 0 0 0 0 6 
37895 16 0.0361966 0.0560838 -0.0551999 0 0 0 -1.25934 -0.578106 0.0224634 0.503977 -0.193146 0.135825 0 0 0 0 0 0 0 0 0 0 0 0 0 1 0 1 3 
37911 8 0.0474499 0.057649 -0.0553788 0 0 0 -0.023833 -1.00017 0.079986 0 -0.000268443 0 0 0 0 0 0 0 0 0 0 0 0 0 0 0 0 0 2 
37356 12 0.00644676 0.0639214 -0.0553273 0 0 0 0.421492 0.626016 0.545524 -0.0709757 -0.00780849 -0.0351391 0 0 0 1 0 0 0 0 0 0 0 2 0 1 0 0 11 
37874 12 0.0317422 0.0642614 -0.0555039 0 0 0 0.400805 0.777091 0.0327917 0.000456058 -0.00132843 -0.00238342 0 0 0 0 0 0 0 0 0 0 0 0 0 0 0 0 5 
37625 12 0.0151868 0.0676834 -0.0555434 0 0 0 -0.119498 0.457266 0.150796 0.0765019 0.040425 0.038803 0 0 0 0 0 0 0 0 0 0 0 1 0 1 0 0 10 
36794 14 0.00704852 0.0728068 -0.0549685 0 0 0 -0.339105 1.14106 0.655579 0.0690694 0.10805 0.00668668 0 0 0 0 0 0 0 0 0 0 0 1 0 0 0 0 19 
37461 12 0.0237463 0.0704318 -0.055506 0 0 0 0.144554 -0.328531 0.0248299 0.0227495 0.0347054 -0.0273126 0 0 0 0 0 0 0 0 0 0 0 1 0 0 0 0 12 
34979 16 0.032069 0.0745924 -0.0552275 0 0 0 0.584249 -0.232738 0.00071251 0.0750246 0.0588552 0.0201787 0 0 0 0 0 0 0 0 0 0 0 0 0 0 0 3 94 
37829 8 0.0401186 0.0698932 -0.055519 0 0 0 0.548045 -0.200927 0.00304308 0.0410194 -0.0332901 0.000428354 0 0 0 0 0 0 0 1 0 0 0 0 0 0 0 0 8 
37816 8 0.00713503 0.0103214 -0.0488455 0 0 0 -2.39897 16.018 -2.10089 0 -0.000268443 0 0 0 0 0 0 0 0 0 0 0 0 0 0 0 0 0 2 
38165 8 0.012737 0.0217248 -0.0474686 0 0 0 -4.07698 19.8348 -0.229581 0 -0.000268443 0 0 0 0 0 0 0 0 0 0 0 0 0 0 0 0 0 0 
37794 14 0.0469438 0.0149199 -0.0489047 0 0 0 1.26419 4.44616 3.08538 0 -0.000206096 0 0 0 0 0 0 0 0 0 0 0 0 0 0 0 0 0 7 
31246 16 0.0296943 0.0302678 -0.0454292 0 0 0 0.00156206 22.7124 15.1396 -0.000134693 -0.189241 0.0161167 0 0 0 0 0 0 0 1 0 0 0 0 0 0 0 0 92 
37964 8 0.0185252 0.0299703 -0.0471044 0 0 0 -5.37735 12.5409 4.14856 -0.00990083 -0.0492307 0.00722999 0 0 0 0 0 0 0 1 0 0 0 0 0 0 0 0 5 
37838 16 0.0311226 0.0342616 -0.0421513 0 0 0 -0.0638897 21.1135 17.1144 0.130786 -0.323067 0.337415 0 0 0 0 0 0 0 0 0 0 0 0 0 0 0 1 2 
38161 14 0.0231965 0.0374531 -0.0457548 0 0 0 -5.24689 12.8602 5.85914 0.394032 -0.339085 0.133602 0 0 0 0 0 0 0 1 0 0 0 0 0 1 0 1 3 
38038 14 0.0469776 0.0305717 -0.0476441 0 0 0 0.904288 6.3874 1.31273 0 -0.000206096 0 0 0 0 0 0 0 0 0 0 0 0 0 0 0 0 0 0 
36412 16 0.000993177 0.0323524 -0.0465694 0 0 0 3.79536e-08 9.4988e-08 -3.11382e-07 2.57746e-08 5.77806e-08 -4.25759e-07 0 0 0 0 0 0 0 0 0 0 0 0 0 0 0 1 21 
2590 12 0.000859071 0.0410303 -0.0462783 0 0 0 -2.79234e-08 5.36778e-07 4.34154e-07 2.99706e-09 5.348e-07 4.75049e-07 0 0 0 0 0 0 0 0 0 0 0 0 0 0 0 1 817 
37459 8 0.0159186 0.0424305 -0.0465266 0 0 0 -15.879 1.90757 -3.85115 1.65703 -1.88675 0.42629 0 0 0 0 0 0 0 1 0 0 0 0 0 1 0 0 8 
37824 15 0.0393468 0.0390487 -0.0482077 0 0 0 -1.86604 -0.317797 5.06479 0.0395877 0.0203742 0.0265977 0 0 0 0 0 0 0 0 0 0 0 0 0 0 1 0 4 
37518 8 0.00779799 0.0577034 -0.0474464 0 0 0 -5.97722 10.1293 -2.10606 -0.602189 0.77127 0.00863875 0 0 0 1 0 0 0 2 0 0 0 0 0 0 0 0 7 
37701 8 0.0312379 0.0567219 -0.046703 0 0 0 -3.06903 3.40956 -2.03752 0.00295178 0.200016 -0.225325 0 0 0 0 0 0 0 1 0 0 0 0 0 0 0 0 6 
38112 4 0.0467811 0.0539441 -0.0474973 0 0 0 3.37346 -0.90625 0.326681 0.10348 0.0442855 -0.0754291 0 0 0 1 0 0 0 0 0 0 0 0 0 0 0 0 1 
37412 8 0.0159024 0.0636674 -0.0471236 0 0 0 -1.63351 1.17287 -2.07359 -0.500296 -0.708493 -0.122923 0 0 0 0 0 0 0 3 0 0 0 0 0 0 0 0 16 
36119 14 0.0240067 0.0627688 -0.0508049 0 0 0 -0.483466 -0.0784504 -0.191254 -0.0382164 -0.101472 -0.0105222 0 0 0 0 0 0 0 1 0 0 0 2 0 1 0 0 38 
37985 8 0.0390828 0.0630635 -0.0498137 0 0 0 0.715018 -0.869594 -0.550561 0.0403591 -0.057452 0.0217096 0 0 0 0 0 0 0 2 0 0 0 0 0 0 0 1 5 
36812 15 0.00752143 0.0666203 -0.0468107 0 0 0 -2.65443 -0.635084 0.645887 -0.588805 2.191 -0.140347 0 0 0 0 0 0 0 2 0 0 0 1 0 0 0 0 20 
37902 12 0.0312271 0.0658918 -0.046594 0 0 0 0.720669 -1.12547 -0.275432 -0.0465177 -0.0469804 -0.0266626 0 0 0 0 0 0 0 1 0 0 0 0 0 1 0 0 8 
24 14 0.0238669 0.0126181 -0.0518935 0 0 0 0.00920112 25.9784 6.29074 0.00336816 -0.0615133 0.275289 0 0 0 0 0 0 0 0 0 0 1 0 0 2 0 0 3968 
36679 12 0.0422876 0.0741997 -0.0478411 0 0 0 0.151754 -0.05264 0.685486 -0.012051 0.00353362 -0.00382835 0 0 0 0 0 0 0 0 0 0 0 1 0 0 0 0 34 
38141 12 0.0243971 0.0118197 -0.0432644 0 0 0 0.00899197 21.6264 5.90607 -0.000222128 -0.0686782 0.250796 0 0 0 0 0 0 0 0 0 0 0 0 0 1 0 0 1 
36946 15 0.0300545 0.0268991 -0.0358351 0 0 0 -0.0486516 17.9339 13.4571 0.0237501 -0.151696 0.194818 0 0 0 0 0 0 0 0 0 0 0 0 0 0 1 0 7 
38124 15 0.044977 0.0233758 -0.0425378 0 0 0 0.0979432 7.07934 2.9913 0 -0.000216769 0 0 0 0 0 0 0 0 0 0 0 0 0 0 0 0 0 0 
38153 12 0.0367355 0.0447805 -0.0376399 0 0 0 6.71718 17.8906 15.9186 0.568974 0.65905 1.65662 0 0 0 0 0 0 0 0 0 0 0 1 0 0 0 0 1 
37877 14 0.0466734 0.0419611 -0.0438828 0 0 0 1.46752 -0.730456 0.71421 -0.0450954 -0.0160362 -0.00879921 0 0 0 0 0 0 0 0 0 0 0 0 0 2 1 0 5 
38074 16 0.0111033 0.0498237 -0.0460079 0 0 0 -14.1252 4.49762 -0.931487 0.00835239 -0.539557 0.559978 0 0 0 0 0 0 0 2 0 0 0 0 0 0 0 2 7 
34546 12 0.0307618 0.048568 -0.0434239 0 0 0 2.30485 3.67959 3.82871 -0.107139 -0.207889 0.12485 0 0 0 0 0 0 0 1 0 0 0 2 0 0 0 0 88 
37941 14 0.0388867 0.0519591 -0.0446763 0 0 0 2.19272 5.53849 2.60243 0.0183132 -0.0251416 0.108107 0 0 0 1 0 0 0 0 0 0 0 1 0 0 0 0 2 
36540 12 0.0178661 0.0557812 -0.0437515 0 0 0 -4.56521 -1.44992 1.52119 -0.242102 -0.315606 -0.0620353 0 0 0 0 0 0 0 1 0 0 0 1 0 0 0 1 24 
37968 14 0.0249247 0.0613023 -0.0419341 0 0 0 0.9053 -1.81255 0.237438 -0.00333931 -0.000852373 -0.0009873 0 0 0 0 0 0 0 0 0 0 0 0 0 0 0 0 3 
37053 16 0.0391019 0.0645963 -0.0406592 0 0 0 -0.534897 -1.12203 -0.176013 -0.0271382 -0.0180384 -0.0427003 0 0 0 0 0 0 0 1 0 0 0 0 0 0 0 2 14 
36993 6 0.0144527 0.0741018 -0.0438061 0 0 0 -1.02843 0.837939 1.07016 0.0242598 -0.00559042 -0.015088 0 0 0 0 0 2 0 0 0 0 0 0 0 0 0 0 24 
37866 8 0.0217641 0.0699106 -0.0456894 0 0 0 -0.251721 1.92612 -1.9231 -0.0988726 -0.482232 -0.0218119 0 0 0 0 0 1 0 2 0 0 0 0 0 0 0 0 10 
36258 12 0.0342742 0.073637 -0.043461 0 0 0 0.0519604 -0.470715 0.131799 0.016057 -0.0207194 -0.034301 0 0 0 0 0 0 0 0 0 0 0 2 0 0 0 0 30 
37596 4 0.0373284 0.0311726 -0.03503 0 0 0 3.71908 12.23 7.16839 0.2025 0.186266 -0.00613079 0 0 0 1 0 0 0 0 0 0 0 0 0 0 1 0 8 
37632 16 0.0463656 0.0342484 -0.0386973 0 0 0 4.57467 0.178374 2.68983 0.0093776 0.0132305 -0.0121407 0 0 0 0 0 0 0 0 0 0 0 0 0 1 0 0 7 
38056 14 0.00887404 0.0406608 -0.0370469 0 0 0 -0.527745 -1.20161 4.71495 0 -0.000206096 0 0 0 0 0 0 0 0 0 0 0 0 0 0 0 0 0 0 
37006 8 0.0414318 0.0726962 -0.036853 0 0 0 -0.341123 -0.725388 -0.363783 0.00777272 -0.0725292 -0.0336647 0 0 0 0 0 0 0 3 0 0 0 0 0 0 0 1 25 
37697 8 0.00878492 0.0538845 -0.0381305 0 0 0 -11.6013 4.0184 4.0145 0.215511 -0.203889 0.111409 0 0 0 0 0 0 0 2 0 0 0 0 0 0 0 1 9 
37605 8 0.0255643 0.0495047 -0.0362463 0 0 0 -2.59699 1.95707 1.33787 -0.0826231 -0.060586 -0.00573598 0 0 0 0 0 0 0 0 0 0 0 1 0 0 0 0 7 
38079 12 0.0136349 0.0056603 -0.0537204 0 0 0 -0.246001 17.9572 1.93558 -0.0401794 -0.275761 -0.0238752 0 0 0 0 0 1 0 0 0 0 0 1 0 0 0 0 2 
1152 15 0.0217338 0.00835763 -0.0529343 0 0 0 -0.056801 26.4832 4.13616 0.0006285 -0.050302 0.291068 0 0 0 0 0 0 0 0 0 0 0 1 0 1 0 0 1777 
37974 4 0.0106257 0.0620913 -0.0390501 0 0 0 -1.36723 5.38228 4.66131 0.00403659 -0.0790133 -0.0217068 0 0 0 0 0 0 0 1 0 0 0 0 0 0 0 0 5 
38069 8 0.0181781 0.0590343 -0.0354319 0 0 0 -0.0904114 -1.35338 1.84712 -0.00150498 -0.00231384 0.0250861 0 0 0 0 0 0 0 0 0 0 0 1 0 0 0 0 1 
38027 14 0.0319092 0.0606334 -0.0363522 0 0 0 0.742701 -2.67264 0.807303 -0.0130577 -0.0058292 0.00166656 0 0 0 0 0 0 0 0 0 0 0 0 0 0 0 1 4 
35750 16 0.0472177 0.0595991 -0.0400444 0 0 0 -0.0394712 -0.714497 -0.0399832 -0.0165849 -0.00498308 -0.020803 0 0 0 0 0 0 0 0 0 0 0 0 0 0 0 1 45 
37822 14 0.0179807 0.0681951 -0.0372168 0 0 0 1.17868 -1.66922 0.414176 0 -0.000206096 0 0 0 0 0 0 0 0 0 0 0 0 0 0 0 0 0 1 
35771 15 0.00759848 0.0713797 -0.0391995 0 0 0 0.0193115 -1.63302 1.27113 -0.00736322 0.016814 0.014114 0 0 0 0 0 1 0 0 0 0 0 0 0 0 1 0 41 
37098 8 0.0281925 0.0689545 -0.0384417 0 0 0 0.906433 -1.51057 1.08842 0 -0.000268443 0 0 0 0 0 0 0 0 0 0 0 0 0 0 0 0 0 6 
37884 4 0.0293516 0.037372 -0.0307095 0 0 0 0.0254677 3.57258 13.9889 0.423661 -0.0703768 -1.16685 0 0 0 1 0 0 0 0 0 0 0 0 0 0 0 0 2 
38014 14 0.0399364 0.0383178 -0.0311449 0 0 0 9.03065 9.61289 7.34797 0.503417 0.318718 0.0260823 0 0 0 0 0 0 0 0 0 0 0 0 0 2 0 0 5 
37923 4 0.0110558 0.0556705 -0.0299512 0 0 0 -0.417948 -5.5999 5.51575 0.0408889 -0.0873791 -0.437918 0 0 0 2 0 0 0 0 0 0 0 0 0 0 0 0 4 
38178 8 0.0293955 0.0533837 -0.0291977 0 0 0 1.79551 -3.15524 2.35375 -0.0773412 -0.0651068 -0.0492392 0 0 0 0 0 0 0 1 0 0 0 0 0 0 0 0 1 
38024 12 0.0222264 0.042626 -0.0310709 0 0 0 1.53591 2.39058 7.90749 0 -0.000227443 0 0 0 0 0 0 0 0 0 0 0 0 0 0 0 0 0 1 
34831 8 0.0401906 0.0607722 -0.0322254 0 0 0 0.0202469 2.32809 2.04575 1.08294 4.07605 1.46955 0 0 0 0 0 0 0 3 0 0 0 0 0 0 0 0 52 
37241 16 0.00806885 0.0662535 -0.0311983 0 0 0 0.535856 -3.34881 0.338788 0 -0.000268494 0 0 0 0 0 0 0 0 0 0 0 0 0 0 0 0 0 10 
38084 16 0.0250843 0.0631748 -0.0305195 0 0 0 0.937854 -2.99393 1.65487 0 -0.000268494 0 0 0 0 0 0 0 0 0 0 0 0 0 0 0 0 0 3 
37672 16 0.0352905 0.0681793 -0.0298443 0 0 0 -0.417076 0.0235236 -0.408034 0.0617945 0.730293 0.207204 0 0 0 0 0 0 0 1 0 0 0 0 0 0 0 2 13 
38055 12 0.0438263 0.0332597 -0.0220225 0 0 0 0.774168 7.5896 7.77017 0 -0.000227443 0 0 0 0 0 0 0 0 0 0 0 0 0 0 0 0 0 1 
38042 8 0.0273087 0.0399531 -0.0229492 0 0 0 0.878596 -0.970277 12.1196 -0.667263 0.382557 2.05966 0 0 0 1 0 0 0 0 0 0 0 0 0 0 0 0 1 
32503 16 0.0366104 0.0406437 -0.0229229 0 0 0 2.33454 -0.595393 8.31522 0.119722 -0.360661 -0.0759552 0 0 0 0 0 0 0 0 0 0 0 0 0 1 0 0 108 
37409 8 0.0464736 0.0416087 -0.0245376 0 0 0 2.72937 6.68982 4.8759 0.00232663 0.00553057 -0.0114544 0 0 0 0 0 0 0 1 0 0 0 0 0 0 0 0 9 
37224 8 0.001 0.0507083 -0.0260501 0 0 0 2.90762e-14 -7.61547e-20 1.89177e-19 0 1.6263e-19 6.22049e-20 0 0 0 0 0 0 0 0 0 0 0 0 0 0 0 0 2 
37696 12 0.0139006 0.0515476 -0.0227156 0 0 0 5.93505 -4.94018 6.67158 0 -0.000227443 0 0 0 0 0 0 0 0 0 0 0 0 0 0 0 0 0 4 
38143 14 0.036186 0.0566731 -0.0244977 0 0 0 2.04668 -2.18232 2.02876 -0.0303746 -0.00225817 0.00963826 0 0 0 0 0 0 0 1 0 0 0 0 0 1 0 0 2 
37809 8 0.0164613 0.0614251 -0.0267342 0 0 0 1.43122 -1.89548 1.03266 -0.176021 -0.247535 -0.541817 0 0 0 1 0 0 0 1 0 0 0 0 0 0 0 0 5 
38045 16 0.0472032 0.0681857 -0.0253441 0 0 0 -0.0315753 -1.15934 -0.0856825 0.00695412 0.00499207 0.00821216 0 0 0 0 0 0 0 0 0 0 0 0 0 0 0 0 1 
37872 16 0.0181205 0.0708399 -0.0272706 0 0 0 0.131616 -1.95593 -0.714821 -0.150741 -0.109338 0.00705271 0 0 0 0 0 0 0 0 0 0 0 0 0 0 0 1 8 
37347 8 0.0270262 0.0723208 -0.0294616 0 0 0 -0.967127 -1.56165 -0.287751 0.025212 0.171315 -0.0466824 0 0 0 0 0 0 0 2 0 0 0 0 0 0 0 2 10 
38173 14 0.0208899 0.0479453 -0.0143602 0 0 0 4.93864 -7.24064 8.80495 0 -0.000206096 0 0 0 0 0 0 0 0 0 0 0 0 0 0 0 0 0 0 
38009 16 0.034429 0.0486331 -0.0185232 0 0 0 -2.05595 -0.439143 7.97906 -0.0923191 0.0952708 0.149351 0 0 0 0 0 0 0 0 0 0 0 0 0 0 0 2 2 
38011 12 0.0270613 0.0537362 -0.0201719 0 0 0 -3.62871 -1.27665 3.23522 -0.154558 0.153247 -0.0252091 0 0 0 0 0 0 0 0 0 0 0 0 0 0 0 1 4 
38035 12 0.0103483 0.0596006 -0.0176504 0 0 0 -1.184 -2.83484 0.091397 -0.101935 -0.107623 -0.0798214 0 0 0 0 0 0 0 0 0 0 0 1 0 0 0 0 3 
38002 15 0.0403998 0.0633783 -0.0204385 0 0 0 0.0799752 -0.458377 1.68963 -0.0732418 0.0347439 0.00734953 0 0 0 0 0 0 0 0 0 0 0 0 0 1 2 0 6 
36405 12 0.00646473 0.0683484 -0.0222474 0 0 0 -0.24097 -0.64197 0.17134 0.250877 0.117741 0.0426402 0 0 0 0 0 0 0 0 0 0 0 0 0 0 0 0 12 
38044 16 0.0181648 0.0651516 -0.0186636 0 0 0 1.14575 -0.444779 1.77295 -0.207774 -0.240766 -0.320842 0 0 0 0 0 0 0 1 0 0 0 0 0 0 0 3 4 
36962 4 0.0304739 0.0631742 -0.022435 0 0 0 1.79571 -2.72749 0.27869 0 -0.000227392 0 0 0 0 0 0 0 0 0 0 0 0 0 0 0 0 0 18 
37331 15 0.0134952 0.0730688 -0.0184892 0 0 0 -0.852527 -1.78186 0.519339 -0.0263568 0.0210366 0.0977992 0 0 0 0 0 0 0 0 0 0 0 0 0 0 1 1 14 
37981 12 0.0252604 0.0708403 -0.0207649 0 0 0 0.257866 -2.37367 0.0877156 0.01054 0.00760017 -0.0218108 0 0 0 0 0 0 0 1 0 0 0 0 0 0 0 0 4 
37455 16 0.0149148 0.0518573 -0.00628999 0 0 0 8.40447 1.22778 11.6011 -0.837631 -0.662863 -2.9156 0 0 0 0 0 0 0 0 0 0 0 0 0 0 0 1 4 
37509 8 0.0396651 0.0554802 -0.0153291 0 0 0 1.46433 -0.93077 3.15411 0.0988934 0.227459 0.138672 0 0 0 0 0 0 0 1 0 0 0 0 0 0 0 1 9 
26442 16 0.001 0.058944 -0.0149246 0 0 0 -1.45434e-13 -2.23739e-17 4.19083e-16 0 4.72373e-17 -3.14283e-16 0 0 0 0 0 0 0 0 0 0 0 0 0 0 0 0 55 
37667 16 0.0306746 0.0580112 -0.0121384 0 0 0 -1.20087 -2.20432 4.25974 0.0271625 -0.0205652 -0.0129746 0 0 0 0 0 0 0 0 0 0 0 0 0 0 0 1 11 
36695 6 0.0119703 0.0660922 -0.0122587 0 0 0 0.214372 -2.9462 0.756537 -0.0744035 -0.0861253 0.0639456 0 0 0 0 0 2 0 0 0 0 0 1 0 0 0 1 31 
38126 14 0.0254464 0.0656053 -0.0132785 0 0 0 -0.11314 -1.8832 2.74739 -0.138623 -0.219114 -0.321186 0 0 0 0 0 0 0 0 0 0 0 0 0 3 0 2 5 
37026 16 0.034561 0.0700608 -0.0178274 0 0 0 -0.84412 -1.16155 0.427263 -0.0489421 0.00515366 0.0338897 0 0 0 0 0 0 0 0 0 0 0 0 0 0 1 0 14 
37937 16 0.0472231 0.0713861 -0.0162986 0 0 0 -0.071231 -0.859828 -0.0981891 -0.00949109 -0.0109117 -0.00711276 0 0 0 0 0 0 0 0 0 0 0 0 0 0 0 0 4 
37970 15 0.0287836 0.0507411 -0.00390253 0 0 0 0.608392 -4.6008 8.54144 -0.0514959 -0.0110254 0.153574 0 0 0 0 0 0 0 0 0 0 0 0 0 0 0 0 2 
36943 6 0.0415698 0.0521513 -0.00649156 0 0 0 2.08736 -2.0009 4.42593 0 -0.000206046 0 0 0 0 0 0 0 0 0 0 0 0 0 0 0 0 0 9 
38080 14 0.0393574 0.063254 -0.0108591 0 0 0 0.455869 -0.529033 2.45698 -0.0807295 0.104841 0.0454019 0 0 0 0 0 0 0 1 0 0 0 0 0 2 0 0 3 
37334 12 0.0393571 0.0749002 -0.0249807 0 0 0 0.067816 -0.470543 -0.502707 -0.0880568 0.103726 0.0593601 0 0 0 0 0 0 0 0 0 0 0 1 0 0 0 1 16 
32179 4 0.0324996 0.0681654 -0.00921036 0 0 0 0.458144 -1.345 1.21526 -0.0118543 0.128129 0.184724 0 0 0 0 0 0 0 0 0 0 0 0 0 2 0 0 127 
37574 16 0.00729822 0.0736416 -0.0109652 0 0 0 0.594646 -2.90414 -0.738779 -0.0856399 -0.0428163 0.00173607 0 0 0 0 0 1 0 0 0 0 0 0 0 0 0 1 8 
38057 14 0.0182975 0.0717357 -0.0108537 0 0 0 0.349978 -2.6948 0.123281 0.0216997 0.00031962 0.0632664 0 0 0 0 0 1 0 0 0 0 0 0 0 3 0 0 5 
37925 4 0.0269357 0.0739739 -0.011781 0 0 0 -0.122695 -1.45643 0.199354 0.00966843 -0.0112436 0.0647277 0 0 0 1 0 0 0 0 0 0 0 0 0 1 0 0 8 
37383 16 0.040629 0.0728084 -0.00953236 0 0 0 -0.223974 -1.84382 0.172778 -0.00157963 -0.0052903 -0.0120441 0 0 0 0 0 0 0 0 0 0 0 0 0 0 0 2 11 
37748 6 0.00685204 0.0522952 0.000378462 0 0 0 10.866 -2.63592 19.5243 0 -0.000206046 0 0 0 0 0 0 0 0 0 0 0 0 0 0 0 0 0 4 
38174 15 0.0368854 0.0575542 -0.00109079 0 0 0 -0.990148 -2.93969 1.29159 0.000782905 0.00105371 0.00527973 0 0 0 0 0 0 0 0 0 0 0 0 0 0 1 0 1 
38182 12 0.0171185 0.0545856 0.00183705 0 0 0 2.50211 -2.93726 12.979 0.837631 0.662367 2.9156 0 0 0 0 0 0 0 0 0 0 0 0 0 0 0 1 1 
38078 12 0.014649 0.0660763 -0.00396251 0 0 0 0.2348 -4.42546 0.565635 0 -0.000227443 0 0 0 0 0 0 0 0 0 0 0 0 0 0 0 0 0 0 
37103 16 0.0243174 0.067061 -0.00422328 0 0 0 -0.971733 -1.39051 -0.359147 0.318274 0.250261 0.690422 0 0 0 0 0 0 0 0 0 0 0 0 0 1 0 1 21 
37785 8 0.0397606 0.0680262 -0.00162863 0 0 0 0.137465 -1.80039 0.0552739 0.027328 0.133867 -0.0721547 0 0 0 0 0 0 0 0 0 0 0 0 0 0 0 1 5 
36331 12 0.00650273 0.0697837 -0.00274856 0 0 0 0.176407 -5.27365 -1.29942 -0.0309998 -0.0937176 -0.0264669 0 0 0 0 0 0 0 0 0 0 0 0 0 0 0 1 39 
37972 4 0.0308284 0.0737876 -0.00328665 0 0 0 -1.29906 -1.0227 0.378759 0.0467736 0.0284961 0.0344966 0 0 0 2 0 0 0 0 0 0 0 0 0 0 0 0 8 
37582 14 0.0474415 0.0733036 -0.00305561 0 0 0 -0.118514 -0.0901136 0.236784 0 -0.000206096 0 0 0 0 0 0 0 0 0 0 0 0 0 0 0 0 0 9 
38156 16 0.00849388 0.0438803 0.00488531 0 0 0 3.82528 -1.03984 11.1757 0 -0.000268494 0 0 0 0 0 0 0 0 0 0 0 0 0 0 0 0 0 0 
28288 16 0.0328201 0.0683593 0.00518595 0 0 0 -0.398567 -1.18539 -0.23158 0.0346545 -0.0204881 -0.0264104 0 0 0 0 0 0 0 0 0 0 0 0 0 0 0 3 207 
38179 12 0.0149423 0.0629501 0.00544773 0 0 0 0.502504 -3.39725 -0.330948 -0.000806607 0.0216761 -0.00124733 0 0 0 0 0 0 0 0 0 0 0 1 0 0 0 0 1 
38192 14 0.0372802 0.0470536 0.00400363 0 0 0 1.7143 -3.51054 5.24378 0 -0.000206096 0 0 0 0 0 0 0 0 0 0 0 0 0 0 0 0 0 0 
38059 15 0.0262628 0.056073 0.00287055 0 0 0 1.88334 -0.134657 6.79357 0.0514959 0.0105918 -0.153574 0 0 0 0 0 0 0 0 0 0 0 0 0 0 0 0 0 
37733 16 0.046953 0.0616676 -0.000727785 0 0 0 1.02652 -2.0593 0.0332842 0 -0.000268494 0 0 0 0 0 0 0 0 0 0 0 0 0 0 0 0 0 5 
38040 15 0.0156298 0.0719062 0.00545083 0 0 0 -0.548537 -3.0379 -0.0500435 0.0155006 -0.0437787 0.00705076 0 0 0 0 0 0 0 0 0 0 0 1 0 0 1 0 2 
38123 14 0.0235804 0.0675704 0.00500874 0 0 0 -0.472366 -1.40192 -0.372103 -0.0300664 -0.00410781 0.051073 0 0 0 0 0 0 0 0 0 0 0 0 0 1 0 2 3 
37726 8 0.0401251 0.0626447 0.00552986 0 0 0 0.232383 -1.03804 -0.222959 -0.062658 -0.138328 0.11722 0 0 0 0 0 0 0 0 0 0 0 0 0 0 1 1 13 
37827 16 0.0384833 0.0522758 -0.0343902 0 0 0 7.24526 10.8303 6.27635 1.71998 5.31537 3.51311 0 0 0 0 0 0 0 1 0 0 0 0 0 0 0 1 6 
38019 16 0.0435591 0.0533648 0.00921616 0 0 0 -0.999005 -0.470467 4.35364 0 -0.000268494 0 0 0 0 0 0 0 0 0 0 0 0 0 0 0 0 0 0 
37606 12 0.00681867 0.066971 0.00559582 0 0 0 -0.203818 -4.09757 -0.286597 -0.0012743 -0.114432 -0.0084247 0 0 0 0 0 0 0 0 0 0 0 0 0 0 0 0 4 
37939 8 0.0401533 0.0739796 0.00518048 0 0 0 -0.144494 -0.754497 -0.366654 -0.052853 -0.0164736 -0.0151985 0 0 0 0 0 0 0 1 0 0 0 0 0 0 0 1 6 
37926 6 0.0341657 0.0547617 0.00713155 0 0 0 3.22581 -3.05376 5.2432 0 -0.000206046 0 0 0 0 0 0 0 0 0 0 0 0 0 0 0 0 0 7 
37655 12 0.0395085 0.0346356 0.01997 0 0 0 8.48734 -6.75664 8.28974 0.00946869 0.0137809 0.00823905 0 0 0 0 0 0 0 0 0 0 0 1 0 0 0 0 8 
295 3 0.0145573 0.0483845 0.0267868 0 0 0 -0.00291835 -13.433 24.1675 0.000537482 -0.216375 -0.119983 0 0 2 0 0 0 0 0 0 0 0 0 0 0 0 0 3380 
37728 12 0.00654637 0.0301704 0.0285861 0 0 0 0.389564 -10.5067 17.1884 -0.428731 -0.0649282 -0.0933982 0 0 0 0 0 0 0 0 0 0 0 1 0 0 0 0 5 
38109 15 0.0135673 0.0356143 0.0272734 0 0 0 0.154205 -13.6579 17.852 0.0917546 -0.209056 -0.120824 0 0 0 0 0 0 0 0 0 0 0 1 0 0 1 0 3 
38160 14 0.027803 0.0399731 0.0262969 0 0 0 4.90734 -2.90231 13.5877 0 -0.000206096 0 0 0 0 0 0 0 0 0 0 0 0 0 0 0 0 0 0 
38184 14 0.046966 0.038558 0.0230465 0 0 0 6.8958 -6.40829 12.7485 -0.00946869 -0.0142144 -0.00823905 0 0 0 0 0 0 0 0 0 0 0 1 0 0 0 0 1 
1068 8 0.0164156 0.0454356 0.0307867 0 0 0 -0.0142197 -15.3906 22.7136 -9.52515e-05 -0.310452 -0.210806 0 0 1 0 0 0 0 1 0 0 0 0 0 0 0 0 4394 
38185 14 0.0452602 0.0476178 0.023123 0 0 0 13.0118 -3.1665 12.5596 0 -0.000206096 0 0 0 0 0 0 0 0 0 0 0 0 0 0 0 0 0 0 
38172 8 0.00640138 0.021761 0.0326645 0 0 0 -0.0953039 -15.1312 9.84945 0.0315248 -0.287693 -0.02941 0 0 0 0 0 0 0 1 0 0 0 0 0 0 0 0 1 
37857 6 0.0171998 0.0255583 0.0294063 0 0 0 0.0149852 -14.2333 12.9199 -0.0784846 -0.212006 -0.00287501 0 0 0 0 0 1 0 0 0 0 0 0 0 0 0 0 9 
38176 16 0.0123706 0.0371345 0.0358749 0 0 0 1.60301 -20.0264 19.1606 -0.39654 -0.673672 -0.227074 0 0 0 0 0 0 0 0 0 0 0 0 0 0 1 3 4 
37345 15 0.0393367 0.0395701 0.0278299 0 0 0 10.011 -7.1505 10.1722 0 -0.000216769 0 0 0 0 0 0 0 0 0 0 0 0 0 0 0 0 0 16 
38052 8 0.00657132 0.0456404 0.0317231 0 0 0 1.26933 -7.98445 10.3758 0.124447 -0.498713 -0.0659456 0 0 0 0 0 0 0 0 0 0 0 0 0 0 0 0 0 
1434 12 0.0182404 0.042708 0.0340474 0 0 0 0.00917901 -17.0503 21.3853 -0.0221567 -0.258034 -0.216613 0 0 0 0 0 0 0 1 0 0 0 1 0 0 0 1 5470 
2618 12 0.0134322 0.0498558 0.0226676 0 0 0 -0.0153676 -11.3265 24.9072 0.00664934 -0.289604 -0.125235 0 0 1 0 0 0 0 0 0 0 0 1 0 0 0 0 1631 
38094 14 0.00649457 0.0131687 0.0377329 0 0 0 0.137712 -20.4745 11.3959 -0.025091 0.0103403 -0.00679434 0 0 0 0 0 0 0 0 0 0 0 0 0 0 0 0 2 
36984 12 0.0260685 0.0221963 0.0323071 0 0 0 0.418462 -12.1258 9.0426 -0.355847 -0.102183 -0.176142 0 0 0 0 0 0 0 0 0 0 0 2 0 0 0 0 13 
38131 16 0.0103138 0.028326 0.037544 0 0 0 -2.5148 -19.5588 16.5713 0.254733 -1.0295 -0.235049 0 0 0 0 0 0 0 1 0 0 0 0 0 0 0 1 2 
37576 16 0.0205285 0.029679 0.0364526 0 0 0 1.77876 -17.8235 15.7574 -0.015357 -0.592614 0.0542109 0 0 0 0 0 1 0 0 0 0 0 0 0 0 0 2 9 
38136 16 0.0321189 0.0338619 0.0325859 0 0 0 8.20632 -8.0312 10.1571 0 -0.000268494 0 0 0 0 0 0 0 0 0 0 0 0 0 0 0 0 0 0 
37698 16 0.0439861 0.0340723 0.0375503 0 0 0 16.7861 -9.44751 12.9959 -0.168999 0.203441 0.182266 0 0 0 0 0 0 0 0 0 0 0 0 0 0 0 1 6 