ITEM: TIMESTEP
3900000
ITEM: NUMBER OF ATOMS
2561
ITEM: BOX BOUNDS ff ff ff
-0.01 0.45
-0.15 0.15
-0.08 0.1
ITEM: ATOMS id type x y z ix iy iz vx vy vz fx fy fz c_cc_1 c_cc_2 c_cc_3 c_cc_4 c_cc_5 c_cc_6 c_cc_7 c_cc_8 c_cc_9 c_cc_10 c_cc_11 c_cc_12 c_cc_13 c_cc_14 c_cc_15 c_cc_16 f_fppacc 
5087 6 0.0432022 -0.0121796 -0.0544773 0 0 0 -5.05711 9.93823 -2.09294 -0.0431384 0.0159094 0.0623432 0 0 0 0 0 0 0 0 0 0 0 0 0 0 0 0 2 
5088 6 0.00713017 -0.00761305 -0.0553051 0 0 0 0.638518 6.63129 -0.991742 0.0506004 0.019138 0.153954 0 0 0 0 0 0 0 0 0 0 0 0 0 0 0 0 0 
5147 8 0.0154054 -0.000414589 -0.055502 0 0 0 -0.799517 9.95824 -0.0987404 0.00381577 -0.000480471 0.00728223 0 0 0 0 0 0 0 0 0 0 0 0 0 0 0 0 2 
4864 8 0.0317646 -0.0263123 -0.0373819 0 0 0 -4.80837 13.0943 -13.9643 0 -0.000268443 0 0 0 0 0 0 0 0 0 0 0 0 0 0 0 0 0 8 
5172 12 0.0194634 -0.0268703 -0.0483482 0 0 0 3.88024 3.9422 -1.95797 0 -0.000227443 0 0 0 0 0 0 0 0 0 0 0 0 0 0 0 0 0 0 
4405 14 0.0221932 -0.0189695 -0.052161 0 0 0 1.57775 5.48036 -1.98937 0.00155515 0.000901078 0.00290729 0 0 0 0 0 0 0 0 0 0 0 0 0 0 0 0 4 
4959 16 0.0413492 -0.0187715 -0.0484128 0 0 0 -7.9237 6.8207 -3.63683 0 -0.000268494 0 0 0 0 0 0 0 0 0 0 0 0 0 0 0 0 0 0 
5138 12 0.0246293 -0.0376122 -0.0408461 0 0 0 -1.5921 8.41164 -7.68905 0.0408356 0.0538931 0.0613403 0 0 0 0 0 0 0 0 0 0 0 0 0 0 0 0 0 
5128 15 0.0331953 -0.034485 -0.0411085 0 0 0 -3.23873 9.95221 -9.08688 0 -0.000216769 0 0 0 0 0 0 0 0 0 0 0 0 0 0 0 0 0 1 
5207 12 0.00814988 -0.0289007 -0.041004 0 0 0 0.920841 1.03772 -1.06263 0 -0.000227443 0 0 0 0 0 0 0 0 0 0 0 0 0 0 0 0 0 0 
5235 12 0.016473 -0.0371492 -0.036098 0 0 0 -1.20161 7.26171 -4.47405 0 -0.000227443 0 0 0 0 0 0 0 0 0 0 0 0 0 0 0 0 0 0 
4958 15 0.00742657 -0.0455532 -0.0316986 0 0 0 0.40929 1.35437 -1.96129 0 -0.000216769 0 0 0 0 0 0 0 0 0 0 0 0 0 0 0 0 0 0 
4921 14 0.0070399 -0.0388683 0.0041467 0 0 0 -2.83978 -0.570161 -18.7211 -0.663615 -0.765877 0.542699 0 0 0 0 0 0 0 0 0 0 0 0 0 2 0 0 6 
4789 14 0.0229362 -0.0442579 0.00524741 0 0 0 16.375 -0.530911 -22.6702 -0.73356 -0.196965 0.0187969 0 0 0 0 0 0 0 0 0 0 0 0 0 1 0 0 3 
5124 12 0.0231024 -0.0462989 -0.0306406 0 0 0 -2.62988 5.96145 -8.92927 0.0566967 0.183021 0.02621 0 0 0 0 0 0 0 0 0 0 0 0 0 0 0 0 3 
4897 16 0.0304697 -0.0391674 -0.0313342 0 0 0 -4.43112 10.0607 -10.211 0 -0.000268494 0 0 0 0 0 0 0 0 0 0 0 0 0 0 0 0 0 2 
5143 15 0.0404917 -0.0369102 -0.0335234 0 0 0 -2.78592 9.13354 -14.6517 0 -0.000216769 0 0 0 0 0 0 0 0 0 0 0 0 0 0 0 0 0 0 
4579 8 0.0248712 -0.030824 -0.0287564 0 0 0 -2.62773 5.07643 -3.07712 0 -0.000268443 0 0 0 0 0 0 0 0 0 0 0 0 0 0 0 0 0 2 
4178 8 0.015139 -0.0523484 -0.0186468 0 0 0 -0.908584 4.94086 -11.2511 0.0418312 -0.534563 0.0200826 0 0 0 0 0 0 0 1 0 0 0 0 0 0 0 0 9 
5225 16 0.0242192 -0.0511281 -0.0211371 0 0 0 0.401946 4.04967 -8.12756 -0.00930416 0.929935 0.109901 0 0 0 0 0 0 0 0 0 0 0 0 0 0 0 1 1 
4936 14 0.0325236 -0.0469816 -0.0226335 0 0 0 0.723041 2.08643 -11.1537 0 -0.000206096 0 0 0 0 0 0 0 0 0 0 0 0 0 0 0 0 0 5 
4222 14 0.0106485 -0.0201699 -0.0226645 0 0 0 -0.00725642 11.3296 -10.0825 0.000105134 0.105909 0.118958 0 0 0 0 0 0 0 0 0 0 0 0 0 1 0 0 7 
4757 16 0.00670908 -0.0533841 -0.0144177 0 0 0 -1.30714 0.648694 -6.83367 -0.224849 -0.431154 -0.357592 0 0 0 0 0 0 0 0 0 0 0 0 0 0 0 1 3 
3315 8 0.0283293 -0.053872 -0.0134723 0 0 0 -3.92068 2.02125 -6.74335 0.100887 -0.0527242 0.366173 0 0 0 0 0 0 0 0 0 0 0 0 0 0 0 1 19 
4465 12 0.0207025 -0.0366067 -0.0143454 0 0 0 3.06782 6.55325 -8.05656 0.265825 0.774146 0.236344 0 0 0 0 0 0 0 0 0 0 0 1 0 0 0 0 6 
4340 16 0.0108158 -0.0258515 -0.0153047 0 0 0 -0.00989593 7.65045 -12.9224 0.000118556 0.176816 0.104628 0 0 0 0 0 0 0 0 0 0 0 0 0 1 0 0 7 
5160 12 0.0157729 -0.0548862 -0.00831662 0 0 0 2.91555 1.33974 -9.0298 -0.0106891 -0.0177553 -4.15769e-05 0 0 0 0 0 0 0 0 0 0 0 0 0 0 0 0 0 
4031 12 0.00639279 -0.0480222 -0.00729455 0 0 0 1.37144 3.98375 -16.3304 -0.281244 0.0677551 -0.645424 0 0 0 0 0 0 0 0 0 0 0 0 0 0 0 1 27 
4619 15 0.0183478 -0.0450061 -0.0148063 0 0 0 1.72418 6.30175 -16.7636 -0.132452 -0.284461 -0.0709393 0 0 0 0 0 0 0 1 0 0 0 1 0 0 1 0 12 
5168 8 0.0318924 -0.0553056 -0.00543097 0 0 0 2.62428 1.46807 -10.571 0.427955 0.291293 0.826341 0 0 0 0 0 0 0 0 0 0 0 0 0 0 0 0 0 
4385 12 0.0100279 -0.0418908 -0.00308923 0 0 0 3.59509 6.10206 -18.0168 1.37375 -0.730577 0.193437 0 0 0 0 0 0 0 0 0 0 0 1 0 1 0 0 7 
4762 12 0.0218512 -0.0445826 -0.00657374 0 0 0 10.7394 -0.897578 -19.0301 0.246909 -0.0837411 -0.942668 0 0 0 0 0 0 0 0 0 0 0 1 0 0 1 0 4 
5216 16 0.00648357 -0.0553749 0.00236979 0 0 0 -0.749185 -0.0881526 -13.5625 2.12922 -0.623615 0.728033 0 0 0 0 0 0 0 0 0 0 0 0 0 0 0 2 2 
4728 15 0.0236792 -0.0555343 -0.00047986 0 0 0 5.8079 -0.178505 -15.586 -1.29913 -1.80328 -0.980288 0 0 0 0 0 0 0 0 0 0 0 0 0 0 1 0 7 
4494 8 0.0349628 -0.0548104 0.00290246 0 0 0 12.3372 -0.371934 -14.2216 -1.12937 0.888929 -0.131887 0 0 0 0 0 0 0 1 0 0 0 0 0 0 0 0 6 
5152 14 0.0176848 -0.0392421 0.00011995 0 0 0 8.04491 -0.583799 -16.9796 0.344717 0.215019 0.29347 0 0 0 0 0 0 0 0 0 0 0 1 0 0 0 0 3 
5081 14 0.0170567 -0.04952 -0.000913567 0 0 0 9.31904 -5.11048 -27.3333 1.13262 1.78626 -0.719309 0 0 0 0 0 0 0 0 0 0 0 1 0 1 1 0 6 
5233 8 0.0435104 -0.0555612 0.00335194 0 0 0 11.7782 -0.376042 -10.1817 1.10898 -0.701301 0.517653 0 0 0 0 0 0 0 0 0 0 0 0 0 0 0 0 0 
4241 14 0.030335 -0.0474611 0.00142715 0 0 0 19.9278 1.92192 -20.5775 -0.952115 0.592771 0.0286059 0 0 0 0 0 0 0 1 0 0 0 0 0 0 0 0 13 
5231 8 0.0145035 -0.0557227 0.00534471 0 0 0 0.967346 -2.55169 -20.3696 2.22508 -1.59041 1.30268 0 0 0 0 0 0 0 2 0 0 0 0 0 0 0 1 3 
5173 12 0.00623892 -0.0470868 0.00474098 0 0 0 2.23289 2.33623 -20.5771 1.20378 -1.24368 1.0961 0 0 0 0 0 0 0 0 0 0 0 1 0 1 0 1 3 
5192 14 0.0150268 -0.0192178 -0.0345264 0 0 0 2.77723 1.87066 3.18937 0 -0.000206096 0 0 0 0 0 0 0 0 0 0 0 0 0 0 0 0 0 0 
5251 15 0.0143778 -0.046422 0.00671606 0 0 0 9.85512 -1.00375 -32.1952 -0.2166 0.334661 1.01233 0 0 0 0 0 0 0 0 0 0 0 1 0 2 1 0 4 
1499 14 0.0209416 -0.0533705 0.0083406 0 0 0 0.208047 -3.97544 -26.7083 0.109578 0.0618282 -0.0108701 0 0 0 0 0 0 0 1 0 0 0 0 0 1 0 0 4021 
3709 16 0.00945061 -0.0416131 0.0332944 0 0 0 0.0143715 -16.6379 -20.6041 0.718071 0.431715 -0.0545596 0 0 0 0 0 0 0 0 0 0 0 0 0 0 0 3 43 
4994 16 0.00755045 -0.0171317 0.0524839 0 0 0 1.03954 -7.86776 -2.51733 0.0509939 0.0238005 -0.0758047 0 0 0 0 0 0 0 0 0 0 0 0 0 0 0 0 1 
4746 12 0.0298982 -0.0214022 0.0501229 0 0 0 2.75688 -13.9658 -5.06182 -0.144453 -0.0104946 0.0528089 0 0 0 0 0 0 0 0 0 0 0 1 0 0 0 0 8 
4686 14 0.00323527 -0.0407786 0.0371685 0 0 0 -1.9742 -8.36786 -21.8642 -0.234387 -1.56757 5.5258 0 0 0 0 0 0 0 0 0 0 0 0 0 0 0 1 7 
5210 15 0.00577044 -0.0524767 0.0162449 0 0 0 1.54167 1.77524 -13.1239 12.3577 -0.783259 1.21915 0 0 0 0 0 0 0 0 0 0 0 0 0 0 2 0 2 
2618 12 0.0113506 -0.0461202 0.030408 0 0 0 -0.0258333 -15.2105 -23.0547 0.0361885 0.283335 -0.174946 0 0 0 0 0 0 0 0 0 0 0 0 0 0 0 1 915 
5234 12 0.0328061 -0.0524499 0.0139795 0 0 0 7.41908 -0.0566934 -6.81722 0 -0.000227443 0 0 0 0 0 0 0 0 0 0 0 0 0 0 0 0 0 0 
5159 12 0.0304697 -0.0125563 0.0541044 0 0 0 9.6834 -14.0296 -3.19493 -0.0286118 -0.0165536 0.234465 0 0 0 0 0 0 0 0 0 0 0 0 0 0 0 0 0 
2667 12 0.0398738 -0.013162 0.0493716 0 0 0 9.7677 -14.01 1.93413 -0.462562 1.20231 -0.802661 0 0 0 0 0 0 0 0 0 0 0 1 0 0 0 0 581 
5201 16 0.00874163 -0.0295526 0.0417542 0 0 0 10.711 -17.2055 -9.16601 0 -0.000268494 0 0 0 0 0 0 0 0 0 0 0 0 0 0 0 0 0 0 
4979 15 0.0157653 -0.0208998 0.0376982 0 0 0 18.4237 -5.55058 -7.08239 0 -0.000216769 0 0 0 0 0 0 0 0 0 0 0 0 0 0 0 0 0 4 
4984 7 0.0120349 -0.0550296 0.0133169 0 0 0 -4.38251 -4.45367 -21.0271 0.748992 -2.09122 0.639023 0 0 0 0 0 0 3 0 0 0 0 0 0 0 1 0 8 
5162 14 0.0405313 -0.0520999 0.0193351 0 0 0 11.368 -4.10116 -10.8766 -0.162059 0.460356 -0.131672 0 0 0 0 0 0 0 0 0 0 0 0 0 1 0 0 1 
5104 8 0.00621515 -0.0446616 0.0185783 0 0 0 -4.56953 -3.04372 -12.0164 -0.536032 0.453892 0.975493 0 0 0 0 0 0 0 0 0 0 0 0 0 0 1 0 1 
5086 4 0.0278798 -0.0191611 0.0381375 0 0 0 11.8367 -15.9233 -3.30301 0 -0.000227392 0 0 0 0 0 0 0 0 0 0 0 0 0 0 0 0 0 0 
1434 12 0.0184497 -0.0529099 0.0137671 0 0 0 -0.145175 -6.99064 -26.5092 -0.00424955 0.299285 -0.0363015 0 0 0 0 0 0 1 0 0 0 0 2 0 0 0 0 4543 
4919 14 0.0187939 -0.0424496 0.0134621 0 0 0 -0.200526 -6.66752 -21.1032 0.0540528 0.282124 0.0686951 0 0 0 0 0 0 0 0 0 0 0 0 0 1 0 0 5 
1068 8 0.0165211 -0.0517033 0.0180923 0 0 0 0.0594791 -8.95171 -25.8208 -0.0154073 0.337317 -0.117279 0 0 0 0 0 0 1 1 0 0 0 1 0 0 0 0 3495 
5112 8 0.0431439 -0.0484599 0.0269992 0 0 0 5.95004 -4.13796 -7.44984 0.00368077 -0.0859939 0.0053484 0 0 0 0 0 0 0 1 0 0 0 0 0 1 0 0 3 
4605 16 0.0416664 -0.0398476 0.0240854 0 0 0 3.64142 -3.93345 -7.33522 0.00381603 0.106126 0.0101488 0 0 0 0 0 0 0 1 0 0 0 0 0 0 0 0 2 
4832 16 0.0404758 -0.0302803 0.0260519 0 0 0 1.50557 -6.71902 -3.78432 0 -0.000268494 0 0 0 0 0 0 0 0 0 0 0 0 0 0 0 0 0 5 
5085 4 0.0339734 -0.0472997 0.0296564 0 0 0 2.71152 -6.52512 -10.3611 0.0477865 -0.123058 0.0992887 0 0 0 0 0 0 0 0 0 0 0 0 0 0 0 0 1 
295 3 0.0144272 -0.0494855 0.0230192 0 0 0 0.00530024 -11.4999 -24.7431 -0.000493147 0.221127 -0.102697 0 0 0 0 0 0 0 1 0 0 0 0 0 0 0 0 2798 
5067 14 0.00418443 -0.0396726 0.0282953 0 0 0 -0.245738 -5.92011 -9.05628 4.56071 -0.711773 0.391797 0 0 0 0 0 0 0 0 0 0 0 0 0 1 0 1 2 
4578 16 0.0118392 -0.0356154 0.027141 0 0 0 -0.291355 -12.5738 -18.1535 0.478943 1.38072 -0.402781 0 0 0 0 0 0 0 0 0 0 0 0 0 1 0 0 5 
5229 16 0.00643609 -0.0305929 0.0321353 0 0 0 3.08344 -7.93456 -9.50214 0.421853 0.686618 -0.0620281 0 0 0 0 0 0 0 0 0 0 0 0 0 0 0 0 0 
5238 8 0.0387314 -0.0218431 0.0509968 0 0 0 3.66283 -10.1189 -4.95673 -0.00704492 -1.05793 0.48787 0 0 0 0 0 0 0 1 0 0 0 2 0 0 0 0 3 
4999 16 0.0369077 -0.00423995 0.0550467 0 0 0 -0.490652 -8.11991 -0.573958 0.00569238 0.00162036 0.0139295 0 0 0 0 0 0 0 0 0 0 0 0 0 0 0 0 0 
5004 14 0.00878737 0.00839252 -0.0532012 0 0 0 1.3343 -2.42012 3.23985 -0.240275 0.258027 -0.0190238 0 0 0 0 0 0 0 0 0 0 0 0 0 1 0 0 1 
3513 16 0.00100058 0.0132705 -0.0537407 0 0 0 0.0671016 -0.021003 -0.00626565 -0.0380734 0.0548642 0.00405979 0 0 0 0 0 0 0 0 0 0 0 0 0 1 0 0 23 
4828 4 0.0189696 0.0161454 -0.055154 0 0 0 1.52931 7.12191 0.243637 0 -0.000227392 0 0 0 0 0 0 0 0 0 0 0 0 0 0 0 0 0 5 
2732 15 0.0273091 0.0189742 -0.0514213 0 0 0 2.34864 5.62819 3.66532 0 -0.000216769 0 0 0 0 0 0 0 0 0 0 0 0 0 0 0 0 0 530 
5186 8 0.0221469 0.0266639 -0.0551452 0 0 0 0.930654 5.20126 0.432011 0 -0.000268443 0 0 0 0 0 0 0 0 0 0 0 0 0 0 0 0 0 0 
4912 12 0.0127837 0.0319734 -0.0529378 0 0 0 0.293792 1.16204 -0.238844 0.200222 -0.132894 0.0225553 0 0 0 0 0 0 0 0 0 0 0 1 0 0 0 0 5 
5220 12 0.030077 0.0378732 -0.0549365 0 0 0 -2.36861 1.39087 -0.363164 0 -0.000227443 0 0 0 0 0 0 0 0 0 0 0 0 0 0 0 0 0 0 
4924 15 0.0463644 0.0350124 -0.0554666 0 0 0 -1.00454 1.87092 0.138944 0 -0.000216769 0 0 0 0 0 0 0 0 0 0 0 0 0 0 0 0 0 2 
4655 8 0.00643246 0.0382311 -0.0532558 0 0 0 0.0496275 0.56536 -0.458042 0.0974576 0.0686837 0.0332495 0 0 0 0 0 0 0 2 0 0 0 1 0 0 0 0 5 
4726 15 0.0142988 0.0419394 -0.0553284 0 0 0 1.20365 -0.477451 0.484102 0.0419288 0.0139247 -0.0137217 0 0 0 0 0 0 0 1 0 0 0 0 0 0 0 0 11 
5189 14 0.030957 0.0465796 -0.0528174 0 0 0 -0.27542 0.75904 2.33405 0.0340153 -0.0103167 0.00408414 0 0 0 0 0 0 0 0 0 0 0 0 0 1 0 0 1 
5174 14 0.0399269 0.0469789 -0.0531308 0 0 0 0.0508334 0.447316 1.34053 -0.0179821 -0.0122281 0.0247692 0 0 0 0 0 0 0 0 0 0 0 0 0 1 0 0 1 
5196 4 0.0252476 0.0524811 -0.0558142 0 0 0 -1.06501 0.0812206 0.169377 0.0242452 -0.0148458 -0.0343651 0 0 0 1 0 0 0 0 0 0 0 0 0 0 0 0 1 
5130 4 0.0350581 0.0536086 -0.0558282 0 0 0 -0.213261 0.042658 0.150433 -0.00759904 -0.0184906 0.0142917 0 0 0 1 0 0 0 0 0 0 0 0 0 2 0 0 5 
5056 14 0.0132285 0.0540105 -0.05555 0 0 0 -0.176414 -0.857601 -0.128948 -0.0130313 -0.041465 0.0785761 0 0 0 0 0 0 0 0 0 0 0 0 0 2 0 0 2 
689 13 0.00617391 0.0589588 -0.0557304 0 0 0 -0.0354492 -0.815229 -0.134429 -0.000403728 -4.60051e-05 0.0520079 0 0 0 0 0 0 0 0 0 0 0 0 0 1 0 0 3280 
5069 14 0.0210966 0.0600872 -0.0551537 0 0 0 0.149869 0.630077 -1.22893 0.0615758 -0.265695 0.0471814 0 0 0 1 0 0 0 0 0 0 0 0 0 3 0 0 7 
4983 7 0.0404187 0.0600483 -0.0557915 0 0 0 0.398961 -0.433957 0.0847173 -0.00247195 0.0081963 -0.000804061 0 0 0 1 0 0 1 0 0 0 0 0 0 0 0 0 6 
5000 8 0.0149116 0.0665332 -0.0547444 0 0 0 0.130715 0.229872 0.395389 -0.0332356 0.153028 0.0105655 0 0 0 0 0 0 0 1 0 0 0 0 0 1 0 0 4 
4006 4 0.0233056 0.0684661 -0.0558102 0 0 0 0.261988 -0.541863 0.0815933 -0.023904 0.176549 -0.0664919 0 0 0 1 0 0 0 1 0 0 0 0 0 1 0 0 9 
4574 12 0.0329294 0.0676427 -0.0555635 0 0 0 -0.013096 0.608841 0.24782 -0.0743047 -0.108334 0.163333 0 0 0 0 0 0 0 0 0 0 0 2 0 0 0 0 7 
4950 16 0.020359 0.0655266 -0.0363727 0 0 0 -0.842593 -2.18416 -0.450265 -1.27392 0.0603268 -1.4512 0 0 0 0 0 0 0 0 0 0 0 0 0 0 0 0 0 
4348 8 0.00649033 0.0695935 -0.055309 0 0 0 0.0554998 -0.169829 0.163935 -0.0368084 -0.0123967 -0.00249405 0 0 0 0 0 0 0 0 0 0 0 0 0 0 0 0 7 
5149 8 0.0113536 0.0176158 -0.0497781 0 0 0 0.275353 5.93458 1.87051 0 -0.000268443 0 0 0 0 0 0 0 0 0 0 0 0 0 0 0 0 0 0 
4883 16 0.001 0.0237071 -0.0512752 0 0 0 8.61487e-14 -9.6773e-21 -1.46034e-98 0 0 2.04453e-98 0 0 0 0 0 0 0 0 0 0 0 0 0 0 0 0 2 
5263 14 0.0171756 0.0269315 -0.0464268 0 0 0 1.53101 4.51482 2.39489 0 -0.000206096 0 0 0 0 0 0 0 0 0 0 0 0 0 0 0 0 0 0 
2590 12 0.00100039 0.0355608 -0.0466392 0 0 0 0.00624963 -0.00120702 -0.00809386 -0.000806651 -0.000928995 0.00151939 0 0 0 0 0 0 0 1 0 0 0 1 0 0 0 0 684 
5179 15 0.0473423 0.0423079 -0.0501987 0 0 0 -0.186699 1.24114 1.29852 0 -0.000216769 0 0 0 0 0 0 0 0 0 0 0 0 0 0 0 0 0 0 
5103 16 0.00718724 0.0490838 -0.0503316 0 0 0 -0.205177 -0.979519 -0.0326903 0 -0.000268494 0 0 0 0 0 0 0 0 0 0 0 0 0 0 0 0 0 0 
4898 16 0.0135021 0.0589173 -0.047738 0 0 0 0.276322 0.188481 -1.04304 0.101349 -0.109512 0.198558 0 0 0 0 0 0 0 0 0 0 0 0 0 1 0 3 7 
5197 4 0.0211277 0.054339 -0.0486716 0 0 0 0.389931 0.228364 -1.49889 0.090322 -0.0533713 0.0119129 0 0 0 0 0 0 0 0 0 0 0 0 0 1 0 1 2 
5157 16 0.0311782 0.0606153 -0.0499019 0 0 0 -1.01549 1.46508 1.78653 -0.00897166 -0.12037 0.131475 0 0 0 0 0 0 0 0 0 0 0 1 0 0 0 2 3 
3975 12 0.00646039 0.0646579 -0.0464784 0 0 0 0.119158 -0.226875 0.560853 -0.0182264 0.00295157 -0.0408585 0 0 0 0 0 0 0 0 0 0 0 0 0 0 0 1 12 
2827 4 0.0409271 0.0692099 -0.0516433 0 0 0 0.170744 -0.13969 -0.233914 -0.0761697 0.0122097 0.00789069 0 0 0 3 0 0 0 0 0 0 0 0 0 0 0 0 746 
4329 8 0.0229242 0.0710295 -0.046366 0 0 0 -0.244339 -0.210293 0.902876 0.00713494 0.00606101 0.00255492 0 0 0 0 0 0 0 1 0 0 0 0 0 0 0 0 22 
583 7 0.0328108 0.0726074 -0.0484247 0 0 0 -0.111763 0.308379 0.191431 -0.00256252 -0.0457051 -0.0027376 0 0 0 0 0 0 4 0 0 0 0 1 0 0 0 0 4861 
5254 8 0.0106826 0.000878886 -0.0414217 0 0 0 -0.756562 -2.70403 -0.990819 0 -0.000268443 0 0 0 0 0 0 0 0 0 0 0 0 0 0 0 0 0 0 
4216 12 0.0275607 0.00263158 -0.0555039 0 0 0 2.9829 9.94461 0.0333036 5.1289e-05 0.000122301 -0.00239568 0 0 0 0 0 0 0 0 0 0 0 0 0 0 0 0 12 
5053 12 0.0152884 0.0385739 -0.043956 0 0 0 -3.45734 1.75967 3.13999 0 -0.000227443 0 0 0 0 0 0 0 0 0 0 0 0 0 0 0 0 0 2 
5145 16 0.0368581 0.0485041 -0.0408665 0 0 0 5.23953 10.0351 10.1725 0 -0.000268494 0 0 0 0 0 0 0 0 0 0 0 0 0 0 0 0 0 0 
5171 8 0.0142538 0.0497298 -0.0422317 0 0 0 0.155678 -0.438097 0.76945 0.0282939 -0.171613 -0.193909 0 0 0 0 0 0 0 1 0 0 0 0 0 0 0 0 1 
4826 15 0.0292556 0.0525623 -0.0458008 0 0 0 -0.115526 -0.0258536 0.640163 0.00260816 7.4957e-05 -0.00118596 0 0 0 0 0 0 0 0 0 0 0 0 0 0 0 1 3 
4707 14 0.0474416 0.0514974 -0.0449724 0 0 0 -0.0862174 -0.499067 0.815773 0 -0.000206096 0 0 0 0 0 0 0 0 0 0 0 0 0 0 0 0 0 3 
5068 14 0.00650045 0.0565883 -0.0420838 0 0 0 0.685848 0.279003 1.24161 0.152544 -0.0845573 -0.0248064 0 0 0 0 0 0 0 0 0 0 0 0 0 0 0 1 2 
4899 8 0.0396479 0.0561401 -0.045725 0 0 0 -0.208141 -0.489339 -0.0698055 0 -0.000268443 0 0 0 0 0 0 0 0 0 0 0 0 0 0 0 0 0 0 
4928 6 0.0231775 0.0621013 -0.044963 0 0 0 -1.06183 1.45095 1.35889 0 -0.000206046 0 0 0 0 0 0 0 0 0 0 0 0 0 0 0 0 0 1 
4457 8 0.0151477 0.0672724 -0.0439137 0 0 0 -0.514232 0.158679 1.02296 -0.00729186 -0.00533519 -0.00143364 0 0 0 0 0 0 0 0 0 0 0 0 0 0 0 0 10 
4730 4 0.0290262 0.0675427 -0.0412082 0 0 0 0.326839 -0.190841 0.467966 0 -0.000227392 0 0 0 0 0 0 0 0 0 0 0 0 0 0 0 0 0 4 
4901 12 0.0368096 0.0658539 -0.0447794 0 0 0 1.06795 0.918844 0.92237 0.00317331 -0.014024 0.0249699 0 0 0 1 0 0 1 0 0 0 0 0 0 0 0 1 3 
3877 12 0.00642145 0.0731466 -0.0438523 0 0 0 0.170068 0.345267 0.183369 0.0113151 0.0131099 0.0233569 0 0 0 0 0 0 0 0 0 0 0 1 0 0 0 0 18 
406 12 0.0472613 0.0710754 -0.0460265 0 0 0 0.100919 0.0243659 0.026457 0.0190195 0.00730408 0.00518035 0 0 0 1 0 0 0 0 0 0 0 0 0 0 0 0 4164 
1914 14 0.000999972 0.0413194 -0.0399269 0 0 0 0.000522263 0.000761158 -0.00122549 0.000110842 0.000712795 -0.000572914 0 0 0 0 0 0 0 0 0 0 0 1 0 0 0 0 1323 
4773 12 0.0474465 0.0644104 -0.0389062 0 0 0 0.767262 -0.220485 0.731173 0 -0.000227443 0 0 0 0 0 0 0 0 0 0 0 0 0 0 0 0 0 3 
4569 15 0.0210291 0.0429485 -0.0363882 0 0 0 -0.720101 -1.12371 3.22571 0 -0.000216769 0 0 0 0 0 0 0 0 0 0 0 0 0 0 0 0 0 2 
5228 16 0.0070623 0.0498473 -0.0355564 0 0 0 -0.213807 0.491848 1.33306 0 -0.000268494 0 0 0 0 0 0 0 0 0 0 0 0 0 0 0 0 0 0 
4908 16 0.0156593 0.0569331 -0.0366084 0 0 0 -2.33041 0.122941 -0.382297 0.0255066 0.110769 0.193656 0 0 0 0 0 0 0 1 0 0 0 0 0 0 0 2 5 
5146 16 0.0251811 0.0547788 -0.0371003 0 0 0 -1.69131 -1.83033 0.352761 -0.390802 -0.538376 -0.707535 0 0 0 0 0 0 0 0 0 0 0 0 0 0 0 0 0 
322 2 0.0407536 0.0716941 -0.0388369 0 0 0 -0.470866 -0.0986305 0.900948 0.00161165 -0.00123643 -0.000663199 0 1 0 0 0 0 0 0 0 0 0 0 0 0 0 0 4795 
4628 10 0.00616494 0.0663638 -0.037948 0 0 0 0.0084004 1.02787 0.0111768 0.0411273 -0.00155386 0.00262355 0 0 0 0 0 0 0 0 0 1 0 0 0 0 0 0 5 
4722 12 0.0475 0.0547981 -0.0552789 0 0 0 -0.00250511 -0.519558 0.097467 0 -0.000227443 0 0 0 0 0 0 0 0 0 0 0 0 0 0 0 0 0 4 
5253 8 0.0126527 0.0253591 -0.0301542 0 0 0 0.767514 7.80615 5.65875 0 -0.000268443 0 0 0 0 0 0 0 0 0 0 0 0 0 0 0 0 0 0 
1675 16 0.039057 0.0355854 -0.0270623 0 0 0 0.0044872 13.5332 17.8012 2.87375e-05 -0.243702 0.185276 0 0 0 0 0 0 0 0 0 0 0 0 0 0 0 1 45 
385 16 0.0453612 0.0501743 -0.021138 0 0 0 -0.102241 10.6177 25.0834 -0.0212239 -0.361249 0.15616 0 0 0 0 0 0 0 0 0 0 0 0 0 0 0 2 2394 
5025 14 0.0369093 0.0534755 -0.0220671 0 0 0 -6.87952 5.11889 14.5759 -0.67648 0.799842 0.916606 0 0 0 0 0 0 0 0 0 0 0 0 0 2 0 1 6 
5242 8 0.0422647 0.0568824 -0.0309662 0 0 0 -0.963769 -1.30954 5.49723 0 -0.000268443 0 0 0 0 0 0 0 0 0 0 0 0 0 0 0 0 0 0 
5029 15 0.0120525 0.0641411 -0.0320146 0 0 0 -0.880939 -0.0210682 0.488073 0.0489392 0.0421966 0.0435466 0 0 0 0 0 0 0 0 0 0 0 0 0 0 2 0 6 
5110 16 0.0279758 0.0621229 -0.0318947 0 0 0 -3.20002 0.788192 -4.36211 0.892644 -0.351526 0.721578 0 0 0 0 0 0 0 0 0 0 0 0 0 0 0 1 2 
1469 8 0.00649881 0.072945 -0.031698 0 0 0 0.0119464 -0.129849 0.697197 -0.0013805 -0.000646083 -0.000577783 0 0 0 0 0 0 0 0 0 0 0 0 0 0 0 0 3108 
4013 12 0.0155951 0.0741652 -0.0330199 0 0 0 0.0133853 -0.41422 -0.168461 0 -0.000227443 0 0 0 0 0 0 0 0 0 0 0 0 0 0 0 0 0 13 
2573 15 0.0248981 0.0736392 -0.0340969 0 0 0 -0.466917 0.596573 -0.344224 0.101579 0.0107836 0.00839393 0 0 0 0 0 0 0 0 0 0 0 0 0 0 2 0 472 
3602 12 0.0329289 0.0711021 -0.0307297 0 0 0 -1.18691 -0.74413 0.935175 0 -0.000227443 0 0 0 0 0 0 0 0 0 0 0 0 0 0 0 0 0 16 
530 16 0.0108724 0.0222353 -0.0201952 0 0 0 -0.00692261 10.0824 11.1047 -0.000261568 -0.150626 0.136599 0 0 0 0 0 0 0 0 0 0 0 0 0 0 0 0 0 
4232 14 0.043 0.0339089 -0.0169914 0 0 0 4.92559e-12 8.49571 16.9545 -1.85479e-13 -0.178096 0.0892422 0 0 0 0 0 0 0 0 0 0 0 0 0 0 0 0 0 
5127 14 0.024067 0.0459751 -0.0226626 0 0 0 0.149508 -1.28232 2.73765 0 -0.000206096 0 0 0 0 0 0 0 0 0 0 0 0 0 0 0 0 0 0 
4489 4 0.00673052 0.0514154 -0.0263958 0 0 0 0.183165 -0.827626 1.9593 -0.00544142 -0.00380407 -0.00660396 0 0 0 1 0 0 0 0 0 0 0 0 0 0 0 0 13 
5092 16 0.0335584 0.0615465 -0.0244235 0 0 0 -8.30052 3.97962 -0.647093 0.591919 -0.562225 0.563967 0 0 0 0 0 0 0 0 0 0 0 0 0 1 0 1 2 
3350 4 0.0424227 0.0593068 -0.016631 0 0 0 -4.87883 11.5992 15.6965 0.572202 -0.337894 -0.183037 0 0 0 1 0 0 0 0 0 0 0 0 0 0 0 0 44 
5079 12 0.0199617 0.0586042 -0.0285437 0 0 0 -1.5734 -2.70673 -0.0683116 -0.00314169 0.00229501 -0.00914763 0 0 0 0 0 0 0 0 0 0 0 1 0 0 0 0 1 
4976 14 0.022504 0.0680022 -0.0276574 0 0 0 -3.21673 -0.176365 -1.63416 0.359953 0.112351 0.542689 0 0 0 0 0 0 0 0 0 0 0 0 0 1 1 1 3 
5032 4 0.0408495 0.0668904 -0.0257856 0 0 0 -0.944446 -1.21429 0.169223 0.0827834 -0.173438 0.0384009 0 0 0 2 0 0 0 0 0 0 0 0 0 0 0 0 3 
4282 12 0.0142287 0.0695087 -0.0250802 0 0 0 -3.07697 -0.145471 1.57165 -0.158057 -0.0380462 -0.0402836 0 0 0 0 0 0 0 0 0 0 0 2 0 1 0 0 16 
4766 16 0.0210229 0.074499 -0.00132492 0 0 0 -0.474106 -1.50677 1.71288 -0.107467 -0.023541 0.0756243 0 0 0 0 0 0 0 0 0 0 0 0 0 0 0 3 10 
5126 14 0.00835919 0.0424915 -0.0187944 0 0 0 -0.235447 -1.08775 1.6069 0 -0.000206096 0 0 0 0 0 0 0 0 0 0 0 0 0 0 0 0 0 0 
840 8 0.0123732 0.0508297 -0.0198007 0 0 0 0.438097 -1.66049 1.51065 0.00544142 0.00330823 0.00660396 0 0 0 1 0 0 0 0 0 0 0 0 0 0 0 0 4967 
5187 12 0.0305861 0.0494733 -0.0155023 0 0 0 -4.0998 3.25234 8.05113 0 -0.000227443 0 0 0 0 0 0 0 0 0 0 0 0 0 0 0 0 0 0 
5204 16 0.0271495 0.059803 -0.0175425 0 0 0 -6.21691 1.40073 3.9581 0.0770155 -0.151487 -0.46166 0 0 0 0 0 0 0 0 0 0 0 0 0 0 0 1 1 
4765 14 0.0465701 0.0669465 -0.0193021 0 0 0 -0.681117 8.75285 1.04485 -0.0897411 -1.27933 -0.265459 0 0 0 1 0 0 0 0 0 0 0 0 0 1 0 0 5 
779 14 0.0063826 0.0639928 -0.0226856 0 0 0 -0.347621 -0.261101 0.504781 0.367742 -0.0399938 -0.0999748 0 0 0 0 0 0 0 0 0 0 0 0 0 1 0 0 5568 
4656 8 0.0318061 0.0697874 -0.0213954 0 0 0 -4.3495 7.49532 -1.762 -0.0767145 -0.481722 -0.027736 0 0 0 0 0 0 0 1 0 0 0 0 0 0 0 1 6 
3697 16 0.00765168 0.0742707 -0.0208745 0 0 0 -3.41603 0.698464 0.91405 -0.23653 0.252261 -0.089618 0 0 0 0 0 0 0 0 0 0 0 1 0 0 0 1 24 
5211 15 0.0193189 0.0408168 -0.0144042 0 0 0 4.91253 3.315 2.82535 0 -0.000216769 0 0 0 0 0 0 0 0 0 0 0 0 0 0 0 0 0 0 
4940 8 0.0344441 0.0423821 -0.0113784 0 0 0 -4.3887 4.86734 14.1799 0 -0.000268443 0 0 0 0 0 0 0 0 0 0 0 0 0 0 0 0 0 5 
4915 16 0.0419959 0.0477191 -0.00994521 0 0 0 -5.86879 1.16559 15.1788 -1.43936 0.505285 0.672289 0 0 0 0 0 0 0 0 0 0 0 0 0 0 0 3 7 
4641 12 0.00724672 0.0563234 -0.0146044 0 0 0 0.357902 -1.01319 0.989232 0 -0.000227443 0 0 0 0 0 0 0 0 0 0 0 0 0 0 0 0 0 4 
4965 14 0.0348301 0.059976 -0.012663 0 0 0 -8.13797 6.77067 7.13547 0.0868745 -0.690611 -0.350282 0 0 0 1 0 0 0 0 0 0 0 0 0 1 0 1 3 
5075 16 0.0189557 0.0616362 -0.01344 0 0 0 -6.86223 -3.28703 8.11821 0.850314 -0.494643 0.156476 0 0 0 0 0 0 0 0 0 0 0 0 0 0 0 2 5 
5108 12 0.0110774 0.0654121 -0.0153849 0 0 0 -2.50075 1.46771 1.30481 0.945429 -0.146395 -0.102269 0 0 0 0 0 0 0 0 0 0 0 1 0 1 0 1 3 
1011 14 0.0171727 0.0734078 -0.0175644 0 0 0 -0.401428 0.0991748 0.640029 0.0133766 -0.00998538 0.0142537 0 0 0 0 0 0 0 0 0 0 0 1 0 2 0 0 5747 
5261 12 0.00841621 0.0378403 -0.0109658 0 0 0 1.55896 0.497831 1.21777 0 -0.000227443 0 0 0 0 0 0 0 0 0 0 0 0 0 0 0 0 0 0 
4806 8 0.0129221 0.0446782 -0.00630011 0 0 0 -0.115326 1.1308 3.94123 0.0123047 -0.388823 -0.256969 0 0 0 0 0 0 0 1 0 0 0 0 0 0 0 0 4 
5252 4 0.0418467 0.0555309 -0.00624258 0 0 0 -10.1603 3.92441 7.61213 -0.736345 0.666601 0.11813 0 0 0 1 0 0 0 0 0 0 0 0 0 0 0 1 2 
5094 12 0.0298915 0.0680602 -0.012358 0 0 0 -1.17337 -0.859924 -0.495194 0.00389803 0.00113695 0.00200643 0 0 0 0 0 0 0 0 0 0 0 1 0 0 0 0 2 
5136 8 0.0387437 0.0676776 -0.0109239 0 0 0 -1.2683 2.58295 2.33188 0.0755797 0.859638 0.305892 0 0 0 0 0 0 0 1 0 0 0 1 0 1 0 0 3 
1019 6 0.00604009 0.0714457 -0.0125026 0 0 0 -1.70495 0.521196 -0.816413 0.420593 0.270023 0.210635 0 0 0 0 0 0 0 0 0 0 0 1 0 0 0 1 3682 
4421 14 0.0136817 0.0746231 -0.00934273 0 0 0 -0.404182 0.9366 0.708083 0.121627 -0.0839363 -0.0685053 0 0 0 0 0 0 0 0 0 0 0 0 0 2 0 0 6 
4820 12 0.0211904 0.0698366 -0.00985309 0 0 0 -0.478044 0.0696187 1.28639 0.208544 -0.196875 -0.0584277 0 0 0 0 0 0 0 0 0 0 0 1 0 1 0 1 8 
5249 15 0.0352527 0.0493346 -0.00442478 0 0 0 -11.8894 -2.82746 9.68552 -0.67249 -0.51962 -0.0803202 0 0 0 0 0 0 0 0 0 0 0 0 0 0 0 1 1 
3772 8 0.00651336 0.0546358 -0.00177584 0 0 0 -0.224441 -3.43019 0.774558 -0.101437 0.257358 0.203432 0 0 0 0 0 0 0 1 0 0 0 0 0 0 0 0 13 
5236 14 0.0148767 0.0532878 -0.00465939 0 0 0 0.821704 -1.8297 4.65388 0.089132 0.130722 0.0535365 0 0 0 0 0 0 0 2 0 0 0 0 0 0 0 0 2 
648 15 0.0458709 0.0619165 -0.00256496 0 0 0 -1.48222 2.08103 0.942853 0.00589118 -0.0264552 -0.182049 0 0 0 1 0 0 0 0 0 0 0 0 0 0 3 0 5290 
5223 14 0.0067031 0.0685123 -0.0039901 0 0 0 -0.984144 -0.0273449 0.312694 -0.0570829 -0.00870006 -0.00977992 0 0 0 0 0 0 0 0 0 0 0 0 0 2 0 0 2 
5154 12 0.0155563 0.0673515 -0.00340628 0 0 0 -0.995303 -0.813451 1.35828 0.00984883 -0.114284 -0.0916855 0 0 0 0 0 0 0 0 0 0 0 1 0 1 0 1 3 
4318 12 0.0384636 0.0690514 -0.00209617 0 0 0 -1.21504 1.69968 1.49307 0.0374011 0.208258 0.310837 0 0 0 0 0 0 0 1 0 0 0 0 0 0 0 0 6 
4910 8 0.029401 0.0708229 -0.00337433 0 0 0 0.488719 -0.838473 0.564475 0 -0.000268443 0 0 0 0 0 0 0 0 0 0 0 0 0 0 0 0 0 1 
1201 8 0.0368544 0.0422011 -0.0327977 0 0 0 0.000299793 16.3983 21.1014 6.0627e-07 -0.288727 0.224354 0 0 0 0 0 0 0 0 0 0 0 0 0 0 0 1 1682 
5212 4 0.019424 0.039741 0.00323845 0 0 0 2.01698 0.701814 5.16531 0 -0.000227392 0 0 0 0 0 0 0 0 0 0 0 0 0 0 0 0 0 0 
5123 12 0.0467917 0.0385516 0.00680727 0 0 0 -3.38756 -2.95164 19.9717 0.109396 0.443679 -0.0149237 0 0 0 0 0 0 0 0 0 0 0 1 0 0 0 0 2 
4875 15 0.0326697 0.0496231 0.00416691 0 0 0 0.313333 -5.9283 2.59246 -1.15702 1.07402 1.36249 0 0 0 0 0 0 0 0 0 0 0 0 0 0 0 0 4 
5062 16 0.00957509 0.0474792 0.00976851 0 0 0 2.50735 -0.322606 5.11363 0 -0.000268494 0 0 0 0 0 0 0 0 0 0 0 0 0 0 0 0 0 6 
5111 16 0.0251209 0.0553557 0.00430003 0 0 0 1.02437 -5.99894 -0.810725 0 -0.000268494 0 0 0 0 0 0 0 0 0 0 0 0 0 0 0 0 0 1 
4957 15 0.00651028 0.0614285 0.00519725 0 0 0 0.0661933 -0.0473213 -0.38073 0 -0.000216769 0 0 0 0 0 0 0 0 0 0 0 0 0 0 0 0 0 1 
3816 14 0.0472415 0.0644469 0.00564909 0 0 0 0.661543 2.23772 0.300547 0.102408 -0.104381 -0.0518776 0 0 0 0 0 0 0 0 0 0 0 0 0 0 1 0 27 
4925 15 0.0163207 0.0648733 0.00515349 0 0 0 1.07915 -1.74545 1.06733 -0.0156339 -0.054364 0.0689367 0 0 0 0 0 0 0 0 0 0 0 1 0 0 0 0 11 
4807 12 0.0254309 0.0677589 0.00453181 0 0 0 1.89994 -3.39336 -0.394731 0 -0.000227443 0 0 0 0 0 0 0 0 0 0 0 0 0 0 0 0 0 3 
5014 12 0.037621 0.0643081 0.00550042 0 0 0 -0.534849 -0.37111 0.351018 0.0234644 0.0347871 -0.0534138 0 0 0 0 0 0 0 0 0 0 0 0 0 0 0 0 2 
780 16 0.00706723 0.0710291 0.00496885 0 0 0 -0.86361 -0.2034 0.636372 -0.208021 -0.0575531 0.0766266 0 0 0 0 0 0 0 0 0 0 0 0 0 0 0 1 4377 
5019 16 0.03219 0.074673 0.00518403 0 0 0 0.0707735 -0.426866 0.396102 0.0599835 -0.0717624 0.313311 0 0 0 0 0 0 0 0 0 0 0 0 0 0 0 1 6 
4759 8 0.0474995 0.0739035 0.00523044 0 0 0 0.52173 1.15272 2.92301 0.105431 -0.090544 -0.239785 0 0 0 0 0 0 0 2 0 0 0 0 0 0 0 0 6 
5177 14 0.0338927 0.0547748 -0.0336099 0 0 0 -0.86103 -0.0331317 3.05763 0 -0.000206096 0 0 0 0 0 0 0 0 0 0 0 0 0 0 0 0 0 0 
5239 14 0.0446965 0.046959 0.00581713 0 0 0 -13.0482 -3.54324 22.4952 -0.278054 0.657885 0.141233 0 0 0 0 0 0 0 0 0 0 0 1 0 1 0 0 2 
965 11 0.0412124 0.0479315 -0.0269651 0 0 0 0.167103 13.3264 23.7998 -0.067911 -0.214869 0.0895047 0 0 0 0 0 0 0 0 0 0 0 0 0 1 0 1 3450 
4975 14 0.0378874 0.0646503 -0.034932 0 0 0 -0.125606 -0.413803 1.75042 0 -0.000206096 0 0 0 0 0 0 0 0 0 0 0 0 0 0 0 0 0 0 
2089 12 0.00782311 0.0232632 0.0194791 0 0 0 0.0223675 -9.74581 11.639 0.000138251 -0.135405 -0.11258 0 0 0 0 0 0 0 0 0 0 0 0 0 0 0 0 879 
5180 4 0.00860997 0.0362558 0.0154253 0 0 0 1.05713 -4.87106 8.71759 -0.00486138 -0.0859777 -0.0715828 0 0 0 1 0 0 0 0 0 0 0 0 0 0 0 0 1 
5259 8 0.010765 0.033359 0.0260924 0 0 0 0.198856 -3.88459 13.3839 0 -0.000268443 0 0 0 0 0 0 0 0 0 0 0 0 0 0 0 0 0 0 
3536 12 0.00661378 0.044227 0.0180732 0 0 0 0.350389 -3.00257 3.207 0.0250421 0.0432574 0.00831727 0 0 0 1 0 0 0 0 0 0 0 0 0 0 0 0 9 
3638 7 0.0170422 0.0419192 0.020846 0 0 0 2.88546 -3.30857 9.99955 0 -0.000216719 0 0 0 0 0 0 0 0 0 0 0 0 0 0 0 0 0 16 
5191 14 0.0152709 0.0505335 0.0215314 0 0 0 4.14099 -2.26142 7.33841 0 -0.000206096 0 0 0 0 0 0 0 0 0 0 0 0 0 0 0 0 0 0 
5144 14 0.0418801 0.049876 0.0243662 0 0 0 -0.507187 -3.52139 7.16265 -0.00453526 -0.0258448 -0.012614 0 0 0 0 0 0 0 0 0 0 0 0 0 0 0 0 0 
5080 12 0.0410991 0.041205 0.0279107 0 0 0 2.48692 -2.24582 13.0209 0 -0.000227443 0 0 0 0 0 0 0 0 0 0 0 0 0 0 0 0 0 0 
5041 12 0.00649452 0.0494318 0.0253175 0 0 0 -0.121505 -1.35342 2.62746 0.00653194 0.00501242 -0.0190207 0 0 0 0 0 0 0 0 0 0 0 0 0 0 0 0 1 
5131 4 0.0275397 0.01736 0.0346316 0 0 0 9.65602e-05 -17.3211 8.67142 0.000119914 -0.103649 -0.20421 0 0 0 0 0 0 0 0 0 0 0 0 0 0 0 0 0 
5023 12 0.0285277 0.0278812 0.0353436 0 0 0 -0.00230978 -17.6645 13.9363 0.000554522 -0.162598 -0.203995 0 0 0 0 0 0 0 0 0 0 0 0 0 0 0 0 0 
1152 15 0.0224423 0.0375173 0.038851 0 0 0 0.0133442 -19.4236 18.7689 5.2869e-05 -0.207431 -0.214599 0 0 0 0 0 0 0 0 0 0 0 0 0 0 1 0 1344 
5232 8 0.00710077 0.0277707 0.0370343 0 0 0 1.01631 -8.85948 5.04483 0 -0.000268443 0 0 0 0 0 0 0 0 0 0 0 0 0 0 0 0 0 0 
5260 12 0.0406737 0.0232424 0.0418542 0 0 0 0.814351 -8.15283 13.6936 0 -0.000227443 0 0 0 0 0 0 0 0 0 0 0 0 0 0 0 0 0 0 
24 14 0.0247814 0.0313966 0.0449902 0 0 0 -0.00161379 -22.4942 15.6981 -5.08752e-06 -0.164903 -0.236279 0 0 0 0 0 0 0 0 0 0 0 0 0 1 1 0 3209 
3855 14 0.0392582 0.0383888 0.0387603 0 0 0 -1.2163 -6.65659 7.80749 0 -0.000206096 0 0 0 0 0 0 0 0 0 0 0 0 0 0 0 0 0 12 
5265 14 0.0381175 0.00167534 0.0427114 0 0 0 1.82421 -23.0226 1.08408 0 -0.000206096 0 0 0 0 0 0 0 0 0 0 0 0 0 0 0 0 0 0 
5001 8 0.00963965 0.0147812 0.0535367 0 0 0 1.28028 -9.5062 3.85418 0.754674 0.194316 -0.834975 0 0 0 0 0 0 0 1 0 0 0 0 0 0 0 0 4 