ITEM: TIMESTEP
38900000
ITEM: NUMBER OF ATOMS
2661
ITEM: BOX BOUNDS ff ff ff
-0.01 0.45
-0.15 0.15
-0.08 0.1
ITEM: ATOMS id type x y z ix iy iz vx vy vz fx fy fz c_cc_1 c_cc_2 c_cc_3 c_cc_4 c_cc_5 c_cc_6 c_cc_7 c_cc_8 c_cc_9 c_cc_10 c_cc_11 c_cc_12 c_cc_13 c_cc_14 c_cc_15 c_cc_16 f_fppacc 
37917 12 0.0111735 -0.00514495 -0.0552943 0 0 0 -4.43962 13.9101 -1.23629 0.0364345 -0.0199872 -0.121032 0 0 0 0 0 0 0 0 0 0 0 0 0 0 0 0 8 
38301 16 0.0472943 -0.0124988 -0.0537692 0 0 0 1.07246 3.24939 -0.697361 0.00336377 -0.00772146 -0.00909152 0 0 0 0 0 0 0 0 0 0 0 0 0 0 0 1 1 
38335 12 0.0341236 -0.022154 -0.0449469 0 0 0 -6.37935 7.92628 -0.257224 0 -0.000227443 0 0 0 0 0 0 0 0 0 0 0 0 0 0 0 0 0 0 
37809 8 0.0195186 -0.0364294 -0.0419073 0 0 0 6.2234 8.03601 -6.9413 0.000294108 0.0492356 0.0548667 0 0 0 0 0 0 0 0 0 0 0 0 0 0 0 0 5 
36695 6 0.00747085 -0.0295878 -0.0407244 0 0 0 0.742022 6.3844 -5.77418 0 -0.000206046 0 0 0 0 0 0 0 0 0 0 0 0 0 0 0 0 0 32 
38035 12 0.0100654 -0.0146175 -0.0535703 0 0 0 -4.09843 13.0148 -3.50941 -0.0237935 0.0216524 0.0821496 0 0 0 0 0 0 0 0 0 0 0 0 0 0 0 0 7 
1152 15 0.0217384 -0.0061445 -0.0532533 0 0 0 -0.00171317 26.6377 -3.04609 3.17319e-05 0.0334176 0.29437 0 0 0 0 0 0 0 0 0 0 0 0 0 0 1 0 1779 
38162 16 0.0366744 -0.0160561 -0.0526858 0 0 0 -3.56378 6.71944 -2.38282 0 -0.000268494 0 0 0 0 0 0 0 0 0 0 0 0 0 0 0 0 0 0 
24 14 0.0238199 -0.00153462 -0.0531998 0 0 0 0.00191734 26.6053 -0.782519 -6.83019e-06 0.00832293 0.279517 0 0 0 0 0 0 0 0 0 0 0 0 0 1 1 0 3972 
38340 15 0.0106901 -0.0235725 -0.0477594 0 0 0 -0.479048 9.36486 -5.40396 0 -0.000216769 0 0 0 0 0 0 0 0 0 0 0 0 0 0 0 0 0 0 
38155 16 0.0378529 -0.0473949 -0.0285765 0 0 0 -5.92348 6.30461 -8.69211 -0.890954 0.0860202 -0.703081 0 0 0 0 0 0 0 0 0 0 0 0 0 0 0 0 4 
21275 14 0.0472221 -0.00233107 -0.0302573 0 0 0 6.51822e-05 15.0957 -1.16213 7.98323e-08 0.0123122 0.158213 0 0 0 0 0 0 0 0 0 0 0 0 0 0 0 0 1 
38267 12 0.0100069 -0.0476708 -0.0284834 0 0 0 0.887793 7.05097 -11.7214 0.0523804 0.201738 0.120797 0 0 0 0 0 0 0 0 0 0 0 0 0 0 0 0 2 
38094 14 0.0208049 -0.0500893 -0.0239585 0 0 0 -1.59078 5.73978 -12.1485 0.0194881 -0.285462 -0.118173 0 0 0 0 0 0 0 0 0 0 0 0 0 0 0 0 2 
37331 15 0.0325283 -0.0489936 -0.0209516 0 0 0 -8.07073 7.4142 -9.76138 0.338204 0.0882323 -0.168829 0 0 0 0 0 0 0 0 0 0 0 0 0 0 1 0 18 
38075 8 0.0343697 -0.0541377 -0.0128002 0 0 0 -6.37432 1.91048 -12.7765 -1.66683 0.459236 -3.12374 0 0 0 0 0 0 0 2 0 0 0 0 0 0 0 0 6 
38220 14 0.0252658 -0.0470713 -0.0160989 0 0 0 -5.35385 6.73327 -7.66107 -0.338204 -0.0886552 0.168829 0 0 0 0 0 0 0 0 0 0 0 0 0 0 1 0 3 
37836 16 0.0412246 -0.0429008 -0.0212995 0 0 0 -3.31687 15.551 -15.3701 -0.749601 0.407375 -0.649383 0 0 0 0 0 0 0 0 0 0 0 0 0 0 0 1 1 
38294 16 0.0199012 -0.0545697 -0.00865938 0 0 0 -5.37888 2.10946 -12.9844 0.0148665 -0.313642 0.00245507 0 0 0 0 0 0 0 0 0 0 0 0 0 0 0 0 0 
385 16 0.0472064 -0.0519259 -0.01756 0 0 0 0.004636 8.78656 -25.966 -0.00112127 0.354467 0.119083 0 0 0 0 0 0 0 0 0 0 0 0 0 0 0 1 2839 
37567 14 0.0119174 -0.0535138 -0.0133735 0 0 0 -6.32761 -2.04819 -14.955 0 -0.000206096 0 0 0 0 0 0 0 0 0 0 0 0 0 0 0 0 0 7 
38015 14 0.0289669 -0.0546836 -0.00565376 0 0 0 -6.48427 -1.15774 -16.2431 -0.115459 0.0769433 0.480965 0 0 0 0 0 0 0 1 0 0 0 0 0 0 0 0 4 
965 11 0.044407 -0.0533514 -0.013087 0 0 0 0.0251142 6.53808 -26.6677 -0.0150902 0.234105 0.0661221 0 0 0 0 0 0 0 0 0 0 1 0 0 0 0 1 4067 
37518 8 0.0174496 -0.0454947 -0.00993382 0 0 0 -9.74466 1.29391 -17.5685 0 -0.000268443 0 0 0 0 0 0 0 0 0 0 0 0 0 0 0 0 0 8 
20630 6 0.0429533 -0.0411084 -0.00810585 0 0 0 0.730023 4.48631 -22.645 162.865 -10.0842 51.8771 0 0 0 0 0 1 0 0 0 0 0 0 0 0 0 0 192 
22235 16 0.0460426 -0.0331398 -0.00959164 0 0 0 0.225714 4.87838 -16.8229 0.272982 -0.183865 0.638369 0 0 0 0 0 1 0 0 0 0 0 0 0 0 0 1 204 
38289 14 0.00985026 -0.055504 0.00252124 0 0 0 -0.591664 0.269103 -9.07258 0.0615546 -0.256188 0.0287834 0 0 0 0 0 0 0 0 0 0 0 0 0 1 0 0 1 
16581 4 0.0409616 -0.0545642 -0.00792954 0 0 0 0.173223 3.98346 -27.2857 -0.13861 0.295113 -0.150658 0 0 0 0 0 0 0 1 0 0 1 0 0 0 0 0 274 
38353 8 0.00994577 -0.0444253 -0.00198677 0 0 0 -1.34046 2.58017 -15.9587 0 -0.000268443 0 0 0 0 0 0 0 0 0 0 0 0 0 0 0 0 0 0 
38185 14 0.0257126 -0.0418358 0.00278824 0 0 0 -3.14995 -2.07587 -12.7988 0 -0.000206096 0 0 0 0 0 0 0 0 0 0 0 0 0 0 0 0 0 2 
27809 14 0.039503 -0.0322671 -0.00309187 0 0 0 0.0575145 1.46184 -16.1433 0.016867 0.121799 -0.0381866 0 0 0 0 0 0 0 0 0 0 0 0 0 0 0 1 34 
22977 16 0.0390185 -0.0447719 -0.000664671 0 0 0 -0.0403709 -0.858351 -22.7065 -0.00590897 1.34939 0.193884 0 0 0 0 0 0 0 0 0 0 0 0 0 0 0 1 185 
38026 12 0.0187204 -0.0554242 0.00329782 0 0 0 1.38117 -0.927694 -14.3307 -0.134133 0.0958156 0.143698 0 0 0 0 0 0 0 0 0 0 0 0 0 1 0 0 2 
1201 8 0.0368552 -0.0534562 -0.000204769 0 0 0 -0.025269 0.0314845 -26.7377 0.00892696 0.456842 0.0486798 0 0 0 0 0 0 0 0 0 0 0 0 0 0 0 1 1947 
38310 14 0.00747155 -0.0419826 0.00684512 0 0 0 -7.2157 -4.00589 -14.1805 0 -0.000206096 0 0 0 0 0 0 0 0 0 0 0 0 0 0 0 0 0 0 
37509 8 0.0109329 -0.0172635 0.0527534 0 0 0 0.193016 -5.90962 -2.01754 0.0112189 -0.00717728 0.0218127 0 0 0 0 0 0 0 0 0 0 0 0 0 0 0 0 10 
36943 6 0.00733363 -0.0154168 0.0450358 0 0 0 0.050192 -7.61509 -2.72488 0 -0.000206046 0 0 0 0 0 0 0 0 0 0 0 0 0 0 0 0 0 9 
38229 14 0.0205815 -0.0100472 0.0543442 0 0 0 -5.05782 -7.04914 2.08118 0 -0.000206096 0 0 0 0 0 0 0 0 0 0 0 0 0 0 0 0 0 2 
38092 12 0.0252053 -0.00152832 0.0523624 0 0 0 -2.30565 -7.05647 0.561856 0 -0.000227443 0 0 0 0 0 0 0 0 0 0 0 0 0 0 0 0 0 5 
38053 12 0.00646292 -0.0540157 0.0129793 0 0 0 0.495668 -0.597822 -4.05143 0.105207 0.193584 -0.0730377 0 0 0 0 0 0 0 0 0 0 0 0 0 0 0 0 2 
37980 12 0.015299 -0.0540967 0.0114748 0 0 0 1.68579 -3.96643 -12.3792 0.0729074 -0.197344 0.0895928 0 0 0 0 0 0 0 0 0 0 0 0 0 0 0 0 4 
38300 8 0.024416 -0.0544277 0.0110601 0 0 0 -3.47312 -2.73089 -13.6022 -0.0463561 0.106075 -0.0228843 0 0 0 0 0 0 0 0 0 0 0 0 0 0 0 0 0 
38228 12 0.0183671 -0.045748 0.0122376 0 0 0 -0.194875 -1.15249 -10.6458 -0.391627 0.000136304 -0.0302538 0 0 0 0 0 0 0 0 0 0 0 1 0 0 0 0 1 
38327 4 0.0112861 -0.0515086 0.0217066 0 0 0 3.70958 -2.11042 -4.37125 0.0769181 0.408915 0.0518929 0 0 0 1 0 0 0 0 0 0 0 0 0 0 0 0 1 
37937 16 0.0188987 -0.039274 0.0187863 0 0 0 -2.23042 -3.5907 -6.04164 0.00270445 -0.16233 -0.049135 0 0 0 0 0 0 0 0 0 0 0 1 0 0 0 0 9 
38245 12 0.00846249 -0.0443337 0.0253524 0 0 0 -2.22594 -2.16215 -7.54118 -0.138663 0.461184 -0.00720814 0 0 0 1 0 0 0 0 0 0 0 0 0 0 0 0 2 
37939 8 0.00758691 -0.02524 0.0349074 0 0 0 0.477504 -2.85042 -5.58991 0 -0.000268443 0 0 0 0 0 0 0 0 0 0 0 0 0 0 0 0 0 8 
38235 4 0.0182829 -0.0277145 0.0323932 0 0 0 1.84826 -2.83989 -5.15571 0 -0.000227392 0 0 0 0 0 0 0 0 0 0 0 0 0 0 0 0 0 1 
37931 16 0.0153229 -0.0398411 0.0382164 0 0 0 -1.38972 -4.42117 -4.59406 0.000654175 0.000663557 -0.000918233 0 0 0 0 0 0 0 0 0 0 0 0 0 0 0 0 3 
37357 14 0.0327073 -0.0391448 0.039349 0 0 0 4.57354 -3.96795 -3.91441 0.000179665 -0.00178235 0.00143758 0 0 0 0 0 0 0 0 0 0 0 0 0 0 0 0 13 
37831 8 0.0346574 -0.0308365 0.0461672 0 0 0 4.5654 -7.85037 -5.2874 -0.00883357 -0.0161429 0.0277466 0 0 0 0 0 0 0 0 0 0 0 0 0 0 0 0 5 
37347 8 0.0211288 -0.0274294 0.0423501 0 0 0 1.54674 -10.7147 -4.45644 0 -0.000268443 0 0 0 0 0 0 0 0 0 0 0 0 0 0 0 0 0 11 
37985 8 0.0295939 -0.0115423 0.0543353 0 0 0 -3.43446 -16.7149 -2.83606 0.107416 0.188297 -0.570133 0 0 0 0 0 0 0 0 0 0 0 0 0 0 0 0 7 
38347 16 0.0470027 -0.0264394 0.048481 0 0 0 -11.774 -15.7124 -8.43043 -0.0327071 0.0771576 -0.131277 0 0 0 0 0 0 0 0 0 0 0 0 0 0 0 0 0 
36984 12 0.0379881 -0.00784632 0.0549848 0 0 0 -1.51575 -13.3171 -2.12371 0.0286643 0.0271465 -0.0651009 0 0 0 0 0 0 0 0 0 0 0 0 0 0 0 0 14 
18622 14 0.000686024 -0.0034696 0.0584704 0 0 0 -3.08055e-15 1.13019e-15 2.42505e-15 2.01783e-14 4.16334e-17 1.77636e-15 0 0 0 0 0 0 0 0 0 0 0 0 0 0 0 0 50 
37345 15 0.045073 -0.00156741 0.0554934 0 0 0 -7.54172 -15.0865 -0.0506737 0.100448 0.155189 -0.0710934 0 0 0 0 0 0 0 0 0 0 0 0 0 0 0 0 18 
31246 16 0.029651 0.0173573 -0.0517988 0 0 0 0.000845922 25.9021 8.67846 0.120431 -0.0406826 0.327852 0 0 0 0 0 0 0 0 0 0 0 0 0 0 0 1 94 
37838 16 0.0312036 0.021997 -0.0495946 0 0 0 -0.000485222 24.7951 11.0013 -0.00119939 -0.149742 0.341075 0 0 0 0 0 0 0 0 0 0 0 0 0 0 0 0 2 
11811 8 0.0273839 0.0122472 -0.0534809 0 0 0 -0.000216664 26.7477 6.12261 0.0007581 -0.0831463 0.366179 0 0 0 0 0 0 0 1 0 0 0 0 0 0 0 1 400 
38312 14 0.0234455 0.0265965 -0.0548924 0 0 0 -6.80257 19.2445 1.04401 0 -0.000206096 0 0 0 0 0 0 0 0 0 0 0 0 0 0 0 0 0 0 
37713 14 0.0313504 0.0338726 -0.0532745 0 0 0 -19.3147 22.2313 5.18883 0.920973 -0.518472 -0.166568 0 0 0 0 0 0 0 0 0 0 0 0 0 0 0 0 5 
38339 14 0.0398369 0.0334604 -0.0554411 0 0 0 -13.5044 1.79511 3.82482 -1.48396 -2.28664 0.473817 0 0 0 0 0 0 0 0 0 0 0 0 0 1 0 0 1 
26944 15 0.000999315 0.0272203 -0.0545823 0 0 0 -1.44566e-13 9.26376e-10 -1.68153e-09 -8.52096e-15 6.1674e-10 -1.1195e-09 0 0 0 0 0 0 0 0 0 0 0 0 0 0 0 0 40 
38337 14 0.00886263 0.0320181 -0.0514411 0 0 0 2.53098 -2.11766 2.0231 0 -0.000206096 0 0 0 0 0 0 0 0 0 0 0 0 0 0 0 0 0 0 
37973 4 0.0315607 0.042659 -0.0555205 0 0 0 -11.9542 29.3959 -3.80727 0.361894 -0.118729 0.509862 0 0 0 1 0 0 0 0 0 0 0 0 0 0 0 0 2 
38049 16 0.0173495 0.0408138 -0.055159 0 0 0 1.03448 -3.59569 -0.0117382 0 -0.000268494 0 0 0 0 0 0 0 0 0 0 0 0 0 0 0 0 0 1 
38295 8 0.0408732 0.0417647 -0.0557238 0 0 0 -3.84879 3.98264 1.47009 -1.00833 -2.1602 0.435604 0 0 0 0 0 0 0 2 0 0 0 0 0 1 0 0 3 
38048 16 0.00806996 0.0435708 -0.0550555 0 0 0 0.86735 -2.91961 -2.33458 0 -0.000268494 0 0 0 0 0 0 0 0 0 0 0 0 0 0 0 0 0 2 
38222 15 0.0466944 0.047396 -0.0536355 0 0 0 -1.4128 3.76042 4.33145 -0.0616703 -1.15665 0.456293 0 0 0 0 0 0 0 1 0 0 0 0 0 0 1 0 2 
37704 14 0.0382635 0.0500744 -0.055492 0 0 0 -3.68359 3.66243 0.578043 0.0721995 0.224246 0.0645198 0 0 0 0 0 0 0 1 0 0 0 0 0 1 0 0 9 
37709 8 0.00654043 0.0545623 -0.055482 0 0 0 0.103443 -2.12984 0.0284154 0 -0.000268443 0 0 0 0 0 0 0 0 0 0 0 0 0 0 0 0 0 4 
38252 12 0.0150206 0.0577923 -0.0554514 0 0 0 -0.0440159 -1.12128 0.0725226 0 -0.000227443 0 0 0 0 0 0 0 0 0 0 0 0 0 0 0 0 0 0 
38074 16 0.0285547 0.0538076 -0.0552356 0 0 0 0.840348 -1.01723 -0.42146 0.110621 0.0368998 0.00826215 0 0 0 0 0 0 0 0 0 0 0 0 0 0 0 1 10 
38283 15 0.0395145 0.0587975 -0.0554303 0 0 0 -0.594408 1.6492 0.721304 -0.100322 0.565604 0.0697262 0 0 0 0 0 0 0 0 0 0 0 0 0 1 2 0 3 
37998 14 0.0224262 0.063379 -0.0555093 0 0 0 0.134627 -0.360852 -0.0694615 0.032821 -0.0307423 0.0110982 0 0 0 0 0 0 0 0 0 0 0 0 0 1 0 0 5 
37895 16 0.0317554 0.0636162 -0.0552772 0 0 0 -0.487685 0.258732 -0.227348 -0.103285 0.226189 0.0435439 0 0 0 0 0 0 0 0 0 0 0 0 0 0 1 2 7 
37356 12 0.00649222 0.0636121 -0.0554438 0 0 0 0.119093 -1.69054 0.0304215 -0.0183973 0.00883073 -0.00160141 0 0 0 0 0 0 0 0 0 0 0 0 0 0 0 0 11 
37625 12 0.014545 0.0676415 -0.0554865 0 0 0 -0.0619894 -0.682984 -0.248281 -0.00841852 0.0187987 0.0344691 0 0 0 0 0 0 0 0 0 0 0 1 0 1 0 0 12 
37829 8 0.0405361 0.0693889 -0.0555195 0 0 0 -0.300897 1.7907 -0.351154 -0.112806 0.185697 -0.0694105 0 0 0 0 0 0 0 3 0 0 0 0 0 0 0 0 13 
36794 14 0.00710281 0.0726174 -0.0554941 0 0 0 -0.761727 -1.34126 0.0266203 -0.0403183 0.0226748 -0.00546212 0 0 0 0 0 0 0 0 0 0 0 1 0 0 0 0 21 
37461 12 0.0229861 0.0741132 -0.055553 0 0 0 -0.40304 -0.393191 0.0491012 -0.0714202 0.0651852 -0.0250861 0 0 0 0 0 0 0 0 0 0 0 4 0 0 0 0 18 
34979 16 0.0321496 0.073085 -0.0551835 0 0 0 -0.652972 -0.0673388 -0.347717 -0.182877 0.115651 -0.103487 0 0 0 0 0 0 0 1 0 0 0 1 0 0 0 2 102 
38253 12 0.0357637 0.0449516 -0.0482899 0 0 0 1.02361 2.55181 1.51189 -0.44473 -0.280785 -0.932302 0 0 0 1 0 0 0 0 0 0 0 0 0 0 0 0 3 
38195 16 0.0115208 0.0498079 -0.0485489 0 0 0 2.26837 -4.29823 -1.40544 0 -0.000268494 0 0 0 0 0 0 0 0 0 0 0 0 0 0 0 0 0 0 
37697 8 0.0206508 0.0516561 -0.0511391 0 0 0 1.26892 -0.636193 0.266595 -0.367091 -0.0963389 0.342444 0 0 0 0 0 0 0 0 0 0 0 0 0 0 0 1 11 
38308 12 0.0294802 0.0507888 -0.0456306 0 0 0 2.58515 1.40054 1.21604 -0.0661337 0.472992 0.226643 0 0 0 0 0 0 0 0 0 0 0 3 0 0 0 0 3 
38062 4 0.0212251 0.0604078 -0.0473303 0 0 0 -0.863589 -1.58159 -0.198882 0 -0.000227392 0 0 0 0 0 0 0 0 0 0 0 0 0 0 0 0 0 3 
37378 4 0.0296561 0.059033 -0.0479795 0 0 0 0.557828 0.0476148 -0.234549 0.145736 0.149467 0.153203 0 0 0 2 0 0 0 0 0 0 0 1 0 0 0 1 19 
37866 8 0.0287155 0.067925 -0.0477039 0 0 0 0.0740703 -0.520516 0.187627 -0.0837386 0.0385794 -0.0130671 0 0 0 0 0 0 0 2 0 0 0 0 0 0 0 1 16 
36812 15 0.00674521 0.0679948 -0.047568 0 0 0 0.266366 -3.79259 -0.571855 -0.000507882 0.205174 -0.367699 0 0 0 0 0 0 0 0 0 0 0 0 0 0 0 0 21 
37868 12 0.0198979 0.0692058 -0.0484365 0 0 0 -0.0731136 -1.96004 0.138609 -0.0324144 -0.0177864 0.0117506 0 0 0 0 0 0 0 1 0 0 0 1 0 0 0 0 9 
37672 16 0.0230898 0.0183293 -0.0433926 0 0 0 -3.69662 17.5312 4.10828 0 -0.000268494 0 0 0 0 0 0 0 0 0 0 0 0 0 0 0 0 0 13 
38211 14 0.0288558 0.0326803 -0.0431947 0 0 0 -6.95708 22.5713 11.3843 -0.610556 0.109207 0.105591 0 0 0 0 0 0 0 0 0 0 0 0 0 1 0 0 3 
38244 12 0.0334032 0.0394446 -0.0413546 0 0 0 3.49328 21.1561 11.8265 1.07073 1.87349 0.849551 0 0 0 0 0 0 0 0 0 0 0 1 0 1 0 0 3 
38344 16 0.0417577 0.0345088 -0.0430302 0 0 0 0.946865 3.54838 4.60105 0 -0.000268494 0 0 0 0 0 0 0 0 0 0 0 0 0 0 0 0 0 0 
2590 12 0.000858018 0.0411608 -0.046227 0 0 0 -3.27109e-14 9.67021e-13 3.22316e-13 2.13163e-14 -2.77112e-13 -9.23706e-14 0 0 0 0 0 0 0 0 0 0 0 0 0 0 0 0 818 
38112 4 0.0262394 0.0431736 -0.0436413 0 0 0 -3.1488 5.47932 3.77158 -0.6645 0.0116528 0.0379702 0 0 0 0 0 0 0 0 0 0 0 2 0 0 0 0 5 
36962 4 0.041045 0.0502732 -0.0413433 0 0 0 1.92426 2.11901 0.843616 0.0660352 -0.17408 -0.0361186 0 0 0 2 0 0 0 0 0 0 0 0 0 0 0 0 20 
38122 14 0.0378472 0.0568171 -0.046191 0 0 0 0.147926 0.189818 0.00231235 0.109539 0.0182131 0.00305101 0 0 0 1 0 0 0 0 0 0 0 0 0 0 0 0 4 
37722 16 0.0470957 0.0579692 -0.0453174 0 0 0 0.0396733 1.4446 2.97396 0.206535 0.222083 -0.229492 0 0 0 0 0 0 0 0 0 0 0 0 0 0 0 3 9 
38024 12 0.00665912 0.057503 -0.0445757 0 0 0 -0.673292 -6.70079 -0.758622 0 -0.000227443 0 0 0 0 0 0 0 0 0 0 0 0 0 0 0 0 0 2 
38045 16 0.0155764 0.0593735 -0.0403472 0 0 0 0.109816 -2.62216 0.778747 0 -0.000268494 0 0 0 0 0 0 0 0 0 0 0 0 0 0 0 0 0 2 
37834 12 0.0335797 0.0632542 -0.0415432 0 0 0 -0.132787 0.197474 -0.158298 -0.153003 0.293253 -0.0163657 0 0 0 1 0 0 0 0 0 0 0 1 0 0 0 0 3 
37874 12 0.0409475 0.0724075 -0.0451 0 0 0 0.545012 0.726965 0.159996 0.0141401 0.187323 -0.0146847 0 0 0 0 0 0 0 0 0 0 0 1 0 0 0 0 7 
38333 8 0.0410971 0.0425511 -0.037414 0 0 0 1.19618 3.00629 2.62941 -0.0948345 -0.134151 -0.0862345 0 0 0 1 0 0 0 2 0 0 0 0 0 0 0 0 3 
38332 8 0.0188135 0.0440079 -0.0370175 0 0 0 5.58657 -0.856499 0.278803 -0.0190873 -0.398111 -0.187905 0 0 0 0 0 0 0 1 0 0 0 0 0 0 0 0 1 
36993 6 0.0133248 0.0746098 -0.0469717 0 0 0 -0.415215 -2.18571 0.104173 -0.0141682 0.00578633 -0.0122502 0 0 0 0 0 1 0 0 0 0 0 1 0 0 0 0 26 
38194 16 0.00925977 0.0505076 -0.0368912 0 0 0 2.288 0.609531 2.64801 0 -0.000268494 0 0 0 0 0 0 0 0 0 0 0 0 0 0 0 0 0 1 
37902 12 0.0384791 0.0729316 -0.0366213 0 0 0 0.153422 -0.53513 -0.120219 0.105097 0.172722 0.0225792 0 0 0 0 0 0 0 0 0 0 0 3 0 0 0 0 12 
58 1 0.0267663 0.00770394 -0.0528292 0 0 0 0.0130534 26.451 3.86036 -5.76476e-06 -0.0223176 0.152884 1 0 0 0 0 0 0 1 0 0 0 0 0 0 0 0 2389 
38292 16 0.0260589 0.05641 -0.0391916 0 0 0 2.60131 0.539373 1.33235 -0.103422 0.115955 0.0153739 0 0 0 0 0 0 0 0 0 0 0 1 0 0 0 2 3 
38227 12 0.0368482 0.0563464 -0.0368796 0 0 0 0.547307 1.88372 -0.566695 0.0795459 -0.079466 -0.0148536 0 0 0 1 0 0 0 0 0 0 0 2 0 0 0 0 4 
697 12 0.0302752 0.0713179 -0.0395661 0 0 0 0.181369 -0.201592 -0.245064 -0.0495395 0.0221307 0.024056 0 0 0 0 0 0 0 1 0 0 0 4 0 0 0 0 7851 
37737 12 0.00648868 0.0634648 -0.0375341 0 0 0 0.130446 -4.80008 -0.646642 -0.0135306 0.00480773 0.00451841 0 0 0 0 0 0 0 0 0 0 0 0 0 0 0 0 8 
37526 4 0.0243417 0.0651063 -0.0397534 0 0 0 -0.455532 0.0448474 -0.0695264 -0.0853065 -0.0146025 0.00731539 0 0 0 1 0 0 0 0 0 0 0 1 0 0 0 1 10 
37429 8 0.0424162 0.0642585 -0.0403273 0 0 0 0.12173 -0.63719 0.313001 -0.260118 -0.0288437 0.519117 0 0 0 0 0 0 0 1 0 0 0 1 0 0 0 1 12 
35771 15 0.00706772 0.0729736 -0.0400844 0 0 0 0.0838421 -4.07533 -2.42709 -0.00990233 -0.259198 0.0638986 0 0 0 0 0 0 0 0 0 0 0 0 0 0 1 0 42 
37412 8 0.0150575 0.0686941 -0.0405727 0 0 0 0.930371 -2.42582 -0.206865 0 -0.000268443 0 0 0 0 0 0 0 0 0 0 0 0 0 0 0 0 0 17 
1027 11 0.0250374 0.00343212 -0.0549797 0 0 0 0.00220968 27.4975 1.72496 2.40635e-05 -0.0154734 0.246337 1 0 0 0 0 0 0 0 0 0 1 0 0 0 0 0 2811 
38331 16 0.0468352 0.0430228 -0.0282931 0 0 0 0.741175 1.55357 6.04268 0.0157295 -0.307089 0.189051 0 0 0 0 0 0 0 0 0 0 0 0 0 0 0 1 1 
38260 14 0.0291396 0.0482241 -0.0257011 0 0 0 7.5084 -1.19952 9.21786 0.33881 -0.19296 -0.346578 0 0 0 0 0 0 0 0 0 0 0 0 0 3 0 0 5 
38309 12 0.0302306 0.0570696 -0.0308415 0 0 0 2.29687 -1.42249 1.98409 0.085801 0.129201 -0.190852 0 0 0 0 0 0 0 0 0 0 0 1 0 0 0 0 1 
38221 15 0.0150885 0.0638461 -0.0320286 0 0 0 0.135388 -3.38885 -0.293217 0.0352618 0.00217905 0.0389614 0 0 0 0 0 0 0 0 0 0 0 0 0 0 1 0 1 
34546 12 0.0338295 0.0650637 -0.0325262 0 0 0 -0.142709 -1.18137 0.863859 0.175205 0.0586695 -0.0830552 0 0 0 0 0 0 0 0 0 0 0 3 0 0 0 0 93 
37241 16 0.00735565 0.0703506 -0.0312717 0 0 0 -0.414263 -2.04567 -1.83011 0.00684562 -0.00284348 0.125348 0 0 0 0 0 0 0 0 0 0 0 0 0 0 0 1 12 
36119 14 0.023404 0.0709013 -0.0334531 0 0 0 -0.268437 -0.351949 0.758087 -0.00561376 0.0129048 -0.0384062 0 0 0 0 0 0 0 0 0 0 0 0 0 2 0 0 43 
36426 14 0.0316193 0.0735999 -0.0310367 0 0 0 0.00687879 -0.773201 -0.0871433 0.0558982 0.0357198 0.0345205 0 0 0 0 0 0 0 0 0 0 0 1 0 4 0 0 43 
38157 8 0.021573 0.0448093 -0.0229686 0 0 0 7.28134 5.85817 10.9584 -1.45771 -1.23768 -0.104754 0 0 0 0 0 0 0 0 0 0 0 0 0 1 0 0 3 
38341 15 0.0136154 0.0484072 -0.0205335 0 0 0 4.79225 1.36269 13.0383 0 -0.000216769 0 0 0 0 0 0 0 0 0 0 0 0 0 0 0 0 0 0 
37224 8 0.001 0.0507006 -0.0260317 0 0 0 1.2253e-14 2.39598e-12 6.21321e-12 -5.68434e-14 -3.20769e-12 -7.86943e-12 0 0 0 0 0 0 0 0 0 0 0 0 0 0 0 0 2 
38313 16 0.0396628 0.050356 -0.0266784 0 0 0 1.82937 1.19119 5.10423 0 -0.000268494 0 0 0 0 0 0 0 0 0 0 0 0 0 0 0 0 0 0 
37334 12 0.0452748 0.0699167 0.00445465 0 0 0 0.296624 0.453776 -1.61445 -0.0128312 -0.0697582 -0.00944403 0 0 0 0 0 0 0 0 0 0 0 0 0 0 0 0 22 
38178 8 0.0147615 0.0549181 -0.0269943 0 0 0 2.51464 -4.8949 1.76939 -0.0487018 -0.00281138 0.106165 0 0 0 0 0 0 0 2 0 0 0 0 0 0 0 0 3 
37459 8 0.0236945 0.055197 -0.025098 0 0 0 3.45599 -2.15078 1.76105 -0.289971 -0.391261 0.178663 0 0 0 0 0 0 0 1 0 0 0 1 0 1 0 0 11 
37785 8 0.0472996 0.0598306 -0.0231615 0 0 0 -0.253821 3.33228 2.09005 0 -0.000268443 0 0 0 0 0 0 0 0 0 0 0 0 0 0 0 0 0 6 
37026 16 0.00699855 0.0609214 -0.0258299 0 0 0 -0.213963 -2.81997 -1.8846 0 -0.000268494 0 0 0 0 0 0 0 0 0 0 0 0 0 0 0 0 0 15 
37839 8 0.0404344 0.0597761 -0.0295019 0 0 0 1.42462 0.520796 0.622536 0.0266352 0.0784123 0.0696845 0 0 0 0 0 0 0 1 0 0 0 1 0 0 0 0 4 
37975 4 0.0254168 0.0662298 -0.02634 0 0 0 2.97021 -2.36991 -0.555391 -0.0626939 -0.0197259 -0.0192322 0 0 0 1 0 0 0 0 0 0 0 0 0 0 0 0 6 
37964 8 0.0409041 0.0691752 -0.0288886 0 0 0 0.10285 -0.683094 -0.298382 0.0118807 -0.0713958 0.0473327 0 0 0 0 0 0 0 2 0 0 0 1 0 0 0 0 8 
38058 15 0.0160799 0.0721582 -0.0270282 0 0 0 0.0854187 -1.60514 -0.806388 -0.0892754 -0.0641297 0.176465 0 0 0 0 0 0 0 0 0 0 0 0 0 0 3 0 5 
38254 14 0.0402446 0.0429985 -0.0172803 0 0 0 -2.30765 0.11466 9.49115 0 -0.000206096 0 0 0 0 0 0 0 0 0 0 0 0 0 0 0 0 0 0 
38099 16 0.0333405 0.0539518 -0.0202721 0 0 0 4.60911 4.37918 6.43629 1.08574 0.482873 0.356935 0 0 0 0 0 0 0 0 0 0 0 0 0 1 0 1 5 
37913 16 0.0178352 0.0627148 -0.0232268 0 0 0 2.95104 -3.21018 -0.713691 -0.0997649 -0.002817 0.0727284 0 0 0 1 0 0 0 1 0 0 0 0 0 0 1 1 7 
38167 12 0.0260423 0.0605711 -0.0183692 0 0 0 1.96863 -0.975125 1.26425 -0.0168906 0.168606 0.112777 0 0 0 0 0 0 0 1 0 0 0 0 0 0 0 0 2 
38056 14 0.0339468 0.0626135 -0.023467 0 0 0 -0.165788 -1.26257 0.158097 0.0542385 0.844982 0.0944291 0 0 0 0 0 0 0 0 0 0 0 0 0 0 0 1 1 
38042 8 0.0107701 0.0682066 -0.0212226 0 0 0 0.0327081 -4.71038 -1.91812 -0.228802 -0.136695 0.20925 0 0 0 0 0 0 0 1 0 0 0 0 0 0 1 1 5 
37882 4 0.0311262 0.0711605 -0.0228322 0 0 0 0.982727 -0.444422 0.0620981 -0.016618 -0.0817355 0.0736527 0 0 0 3 0 0 0 0 0 0 0 0 0 1 0 0 10 
36258 12 0.0394153 0.0720039 -0.0205227 0 0 0 0.949972 -0.407436 0.257033 -0.100852 -0.0267453 0.116248 0 0 0 1 0 0 0 1 0 0 0 3 0 0 0 0 39 
38206 8 0.00479088 0.0511067 -0.0120477 0 0 0 16.936 4.89392 10.8593 1.82503 -1.77304 0.885242 0 0 0 0 0 0 0 0 0 0 0 0 0 0 0 0 0 
3709 16 0.00924206 0.0534281 -0.00067743 0 0 0 0.527037 0.316556 26.36 -0.121898 -0.451955 0.66366 0 0 0 0 0 0 0 0 0 0 0 0 0 0 0 2 846 
38324 15 0.0420876 0.0538572 -0.0146383 0 0 0 2.95273 0.208933 5.29209 0.0015669 0.000487959 0.000922107 0 0 0 0 0 0 0 0 0 0 0 0 0 0 1 0 1 
26442 16 0.00100073 0.0591986 -0.014999 0 0 0 -0.0469631 -0.0337462 -0.0685553 0.0402715 0.0264103 0.0319018 0 0 0 0 0 0 0 0 0 0 0 0 0 0 0 0 55 
36348 8 0.0179101 0.0674871 -0.0131476 0 0 0 1.73238 -0.709576 -0.469372 -0.0077719 -0.0597351 -0.0419704 0 0 0 0 0 0 0 1 0 0 0 0 0 0 0 0 34 
37826 15 0.0423076 0.0642546 -0.0170727 0 0 0 2.23481 -1.2276 -1.52801 -0.00847003 0.0166154 0.00105849 0 0 0 0 0 0 0 0 0 0 0 1 0 0 0 0 5 
37098 8 0.0261859 0.0695875 -0.0159298 0 0 0 1.66231 -1.20005 0.0876748 0.0445367 -0.0576939 0.195827 0 0 0 1 0 0 0 0 0 0 0 0 0 0 0 0 11 
38277 8 0.00734933 0.0692673 0.00565173 0 0 0 -0.557737 1.03284 -0.709236 0.373485 -0.735766 -0.586196 0 0 0 0 0 0 0 1 0 0 0 0 0 0 0 0 1 
38198 12 0.00753016 0.0444977 -0.00263394 0 0 0 3.71043 1.11098 9.38357 0.00304146 0.0826351 0.208531 0 0 0 0 0 0 0 0 0 0 0 1 0 0 0 0 2 
34964 15 0.0112159 0.0549988 0.00406751 0 0 0 0.303281 -2.16109 27.3387 -0.119834 -0.219739 0.172037 0 0 0 0 0 0 0 0 0 0 0 0 0 0 3 1 117 
38304 8 0.0463405 0.0573307 -0.00752789 0 0 0 5.33463 -0.577029 4.40916 0.0653108 -0.0239985 -0.0168227 0 0 0 0 0 0 0 1 0 0 0 0 0 0 1 0 2 
37726 8 0.0120902 0.0617707 -0.00780138 0 0 0 10.5054 -8.53034 2.43785 0.508712 -0.317459 -0.168382 0 0 0 0 0 0 0 2 0 0 0 0 0 0 0 0 15 
32179 4 0.0250629 0.0603938 -0.00871181 0 0 0 0.532602 -2.39329 2.04027 0 -0.000227392 0 0 0 0 0 0 0 0 0 0 0 0 0 0 0 0 0 127 
38233 15 0.0390866 0.0624053 -0.00887159 0 0 0 4.12749 -3.37263 -0.220313 -0.110733 -0.0313717 0.0810577 0 0 0 0 0 0 0 1 0 0 0 0 0 0 1 0 4 
37872 16 0.00895102 0.0696702 -0.0123954 0 0 0 0.50897 -5.88219 -0.234704 -0.0269136 -0.194014 0.139367 0 0 0 0 0 0 0 2 0 0 0 0 0 0 0 0 12 
37006 8 0.0320882 0.0715942 -0.00940821 0 0 0 0.542086 -2.09454 1.38194 0.0567597 -0.007108 0.00713357 0 0 0 0 0 0 0 1 0 0 0 0 0 0 0 0 29 
37864 16 0.0138191 0.0365954 0.00741615 0 0 0 6.4149e-09 -3.70807 18.2977 7.27585e-06 -0.259356 -0.0557603 0 0 0 0 0 0 0 0 0 0 0 0 0 0 0 0 0 
37923 4 0.0365842 0.0387324 0.00131448 0 0 0 3.67487 1.48245 9.02125 0 -0.000227392 0 0 0 0 0 0 0 0 0 0 0 0 0 0 0 0 0 6 
37596 4 0.0293064 0.0493145 -0.000218883 0 0 0 -4.28875 -6.25437 6.46933 0 -0.000227392 0 0 0 0 0 0 0 0 0 0 0 0 0 0 0 0 0 10 
2618 12 0.0134203 0.0540032 0.00887773 0 0 0 -0.0597755 -4.46698 27.0661 0.0807925 -0.311279 -0.0642041 0 0 0 0 0 0 0 0 0 0 0 2 0 0 1 0 1636 
38104 14 0.0408189 0.0535621 -0.00132783 0 0 0 5.18591 -7.53531 2.66265 0 -0.000206096 0 0 0 0 0 0 0 0 0 0 0 0 0 0 0 0 0 3 
38326 15 0.006105 0.0627518 -0.00179854 0 0 0 3.83691 -0.0948098 2.14456 1.35516 0.0417953 -3.85712 0 0 0 0 0 0 0 1 0 0 0 0 0 0 1 0 2 
37647 16 0.0329793 0.0583446 -0.00317156 0 0 0 4.8973 -7.62905 -1.22556 0.0438558 0.0539118 -0.0651571 0 0 0 0 0 0 0 0 0 0 0 0 0 0 1 0 6 
37606 12 0.0135648 0.0680917 -0.00160049 0 0 0 1.29196 -0.73256 -0.748234 -0.00951517 -1.0936 -0.527112 0 0 0 0 0 0 0 1 0 0 0 3 0 0 0 0 8 
37833 8 0.00649966 0.0733314 -0.00247845 0 0 0 -0.180399 -0.847999 0.550843 0.140575 -0.179169 -0.295034 0 0 0 0 0 0 0 0 0 0 0 1 0 0 0 0 12 
38207 8 0.0214973 0.0706613 -0.00433302 0 0 0 3.17711 0.726741 0.386658 -0.438227 -0.225393 -0.143371 0 0 0 0 0 0 0 2 0 0 0 1 0 0 0 0 3 
38124 15 0.0294329 0.0717706 -0.000585004 0 0 0 3.93711 -1.48082 1.4033 -0.211393 0.0824214 -0.251371 0 0 0 0 0 0 0 1 0 0 0 0 0 0 2 0 6 
37396 12 0.0385768 0.0696441 -0.0021028 0 0 0 -0.229177 -2.8358 -0.476806 0.0285402 -0.00449466 0.0262731 0 0 0 0 0 0 0 0 0 0 0 1 0 0 0 0 16 
37498 14 0.0059058 0.0441072 0.00617541 0 0 0 3.13327 -2.32457 10.6222 0.226237 -0.996957 0.306761 0 0 0 0 0 0 0 0 0 0 0 1 0 0 0 0 10 
38359 8 0.0446662 0.0447731 0.00399905 0 0 0 5.738 -1.72576 8.31462 0.0069137 0.0125717 -0.0172231 0 0 0 0 0 0 0 1 0 0 0 0 0 0 0 0 1 
38322 14 0.00509065 0.052147 0.00615611 0 0 0 -2.56911 -1.47779 13.9163 -0.808357 0.251522 -0.00480507 0 0 0 0 0 0 0 0 0 0 0 1 0 1 1 1 4 
35284 12 0.0298694 0.0567423 0.00615851 0 0 0 4.98028 -1.92161 2.07137 0.0786871 -0.0277883 0.0277566 0 0 0 0 0 0 0 0 0 0 0 1 0 0 0 0 50 
38057 14 0.0240271 0.0590719 -0.000109338 0 0 0 2.23213 -6.75928 1.21187 -0.0786871 0.0273547 -0.0277566 0 0 0 0 0 0 0 0 0 0 0 1 0 0 0 0 8 
38343 16 0.046596 0.0606339 0.0012711 0 0 0 -0.938521 -2.21952 1.48815 0 -0.000268494 0 0 0 0 0 0 0 0 0 0 0 0 0 0 0 0 0 0 
37103 16 0.0340906 0.0478484 -0.0345669 0 0 0 1.05994 2.43388 2.56517 -0.133917 0.0542061 0.0413909 0 0 0 0 0 0 0 0 0 0 0 0 0 0 0 2 26 
28288 16 0.019004 0.0648506 0.00523368 0 0 0 4.43814 -1.27649 -0.277655 0.0603665 -0.067611 0.0140338 0 0 0 0 0 0 0 0 0 0 0 0 0 0 0 1 210 
38044 16 0.00623216 0.0605283 0.00623992 0 0 0 0.0396637 -0.671579 5.69061 -3.62497 4.68636 -1.11393 0 0 0 0 0 0 0 1 0 0 0 0 0 1 2 0 10 
38196 8 0.0152796 0.0733143 0.00528978 0 0 0 2.50507 -2.07942 0.141873 -0.780571 -0.000525562 0.229281 0 0 0 0 0 0 0 1 0 0 0 1 0 0 0 1 4 
32938 12 0.0367137 0.0741566 0.0054398 0 0 0 2.71629 -2.24148 0.0589028 0.0106489 -0.0270782 -0.00523258 0 0 0 0 0 0 0 0 0 0 0 1 0 0 0 0 138 
37830 8 0.0319817 0.0657926 0.00553012 0 0 0 2.75687 -2.10728 1.31299 0.624543 0.175063 -0.566862 0 0 0 0 0 0 0 0 0 0 0 0 0 0 1 0 8 
38323 14 0.0198632 0.052202 -0.0337633 0 0 0 4.40439 -1.66335 1.73959 0.0347287 0.151779 0.0309506 0 0 0 0 0 0 0 1 0 0 0 0 0 2 0 0 3 
38023 8 0.0402817 0.0748937 -0.0109955 0 0 0 0.49808 -1.77158 0.783729 -0.0233513 -0.144442 -0.200964 0 0 0 0 0 0 0 1 0 0 0 0 0 0 0 0 6 
38307 12 0.0473859 0.0496243 -0.0346692 0 0 0 -2.24517 -0.0202556 4.50239 0.0140845 -0.0747372 0.00571677 0 0 0 0 0 0 0 0 0 0 0 1 0 0 0 1 2 
38138 8 0.00923146 0.0343598 0.0194568 0 0 0 -0.901351 -15.5137 16.9647 -0.121856 -0.297742 0.223473 0 0 0 0 0 0 0 2 0 0 0 0 0 0 0 0 4 
37875 12 0.0161626 0.0396015 0.0238846 0 0 0 -1.42423 -13.7575 17.4113 0.084275 -1.17282 0.162297 0 0 0 0 0 0 0 0 0 0 0 2 0 0 0 0 4 
38160 14 0.0435687 0.0474695 0.0184328 0 0 0 6.70888 -0.398002 9.24349 -0.268905 -0.00138483 0.149352 0 0 0 0 0 0 0 0 0 0 0 0 0 1 0 0 1 
1499 14 0.0209088 0.047133 0.026357 0 0 0 0.0896772 -13.0694 23.4209 -0.07806 -0.272064 -0.152524 0 0 0 0 0 0 0 0 0 0 0 0 0 3 0 0 4927 
38204 16 0.0102085 0.0296468 0.0269894 0 0 0 5.94989 -21.6237 13.7105 0.438211 -0.459638 0.499617 0 0 0 0 0 0 0 1 0 0 0 0 0 0 0 1 4 
38191 12 0.020136 0.0337056 0.0297431 0 0 0 -0.020659 -14.699 13.2374 -0.272011 -0.00430883 -0.625721 0 0 0 0 0 0 0 0 0 0 0 1 0 0 0 0 3 
38338 14 0.00605471 0.0417163 0.0228542 0 0 0 -0.0807008 -10.9581 17.8026 0.268288 -0.953069 0.773564 0 0 0 0 0 0 0 1 0 0 0 0 0 2 0 0 3 
38070 8 0.0122975 0.0487299 0.0257031 0 0 0 2.7678 -17.8957 28.4983 0.238067 -1.64145 1.69876 0 0 0 0 0 0 0 2 0 0 0 0 0 1 0 0 5 
37823 15 0.0360319 0.0475698 0.0231969 0 0 0 7.90838 -2.97472 15.6436 0.268905 0.00096196 -0.149352 0 0 0 0 0 0 0 0 0 0 0 0 0 1 0 0 3 
37957 8 0.0159012 0.0238111 0.0320145 0 0 0 -2.75676 -12.9036 14.071 0 -0.000268443 0 0 0 0 0 0 0 0 0 0 0 0 0 0 0 0 0 3 
38101 8 0.0288197 0.0282794 0.0271726 0 0 0 5.12477 -9.64416 10.5334 -0.0102312 0.0719749 -0.120602 0 0 0 0 0 0 0 2 0 0 0 0 0 0 0 0 6 
36946 15 0.0378663 0.0308616 0.0280669 0 0 0 3.4004 -4.93119 11.8261 0 -0.000216769 0 0 0 0 0 0 0 0 0 0 0 0 0 0 0 0 0 7 
38363 12 0.0302811 0.0369139 0.0278283 0 0 0 7.1705 -8.29378 12.1073 -0.0170159 0.323506 0.172215 0 0 0 0 0 0 0 1 0 0 0 0 0 0 0 0 1 
38201 14 0.0100382 0.0392595 0.0298996 0 0 0 -0.684756 -16.5533 14.9311 0.0467554 -1.0109 1.42551 0 0 0 0 0 0 0 0 0 0 0 1 0 1 0 0 2 
37974 4 0.00545579 0.0485263 0.0279812 0 0 0 -0.450375 -10.2116 17.0083 -1.60328 -0.319346 1.32371 0 0 0 0 0 0 0 1 0 0 0 0 0 1 0 0 9 
38251 12 0.023567 0.0413292 0.0323427 0 0 0 -0.769599 -12.3879 13.4523 0.328936 0.79423 -2.0079 0 0 0 0 0 0 0 0 0 0 0 1 0 1 0 0 3 
37770 4 0.041565 0.046815 0.0304646 0 0 0 7.6513 -6.48899 9.77517 0.106085 -0.202415 -0.162389 0 0 0 0 0 0 0 0 0 0 0 0 0 0 0 0 5 
37784 12 0.00899502 0.00135483 0.0303117 0 0 0 0.0036783 -15.158 0.677508 -8.32894e-07 -0.00773944 -0.175746 0 0 0 0 0 0 0 0 0 0 0 0 0 0 0 0 0 
38078 12 0.00633577 0.0319666 0.0347412 0 0 0 0.440741 -12.7147 10.3142 0.535035 -0.402246 0.468815 0 0 0 0 0 0 0 0 0 0 0 1 0 0 0 1 2 
38306 8 0.0161171 0.0317141 0.0374808 0 0 0 -0.492318 -8.42507 13.0956 0.559168 0.833871 -1.69286 0 0 0 0 0 0 0 2 0 0 0 1 0 0 0 0 3 
37962 16 0.0275994 0.0311239 0.0358827 0 0 0 1.46683 -9.14687 9.57363 0.0901898 -0.12182 0.18877 0 0 0 0 0 0 0 1 0 0 0 0 0 0 0 0 8 
38200 14 0.0153495 0.0421778 0.0362383 0 0 0 -3.29228 -12.1995 13.9268 1.26427 -0.688818 0.0205166 0 0 0 0 0 0 0 0 0 0 0 0 0 1 0 0 1 
38234 15 0.0324147 0.0442991 0.0335381 0 0 0 4.57278 -7.92871 10.0657 0.193624 0.339973 0.195481 0 0 0 0 0 0 0 0 0 0 0 0 0 0 0 0 0 
38357 16 0.0224321 0.0378697 0.0402163 0 0 0 0.410579 -10.3611 10.3823 -0.659682 -0.247456 0.554392 0 0 0 0 0 0 0 1 0 0 0 1 0 1 0 1 4 
37927 6 0.0060044 0.0429575 0.035765 0 0 0 0.259239 -5.8387 7.54448 -0.019111 0.169752 1.04071 0 0 0 0 0 1 0 0 0 0 0 0 0 1 0 0 6 
38351 16 0.046086 0.0151549 0.0425314 0 0 0 5.15202 -3.96474 3.2203 0 -0.000268494 0 0 0 0 0 0 0 0 0 0 0 0 0 0 0 0 0 0 
37242 16 0.00682002 0.0192816 0.0449671 0 0 0 0.74024 -4.61981 3.00719 0.256229 0.138458 -0.786848 0 0 0 0 0 0 0 0 0 0 0 0 0 0 0 0 12 