ITEM: TIMESTEP
9250000
ITEM: NUMBER OF ATOMS
1136
ITEM: BOX BOUNDS ff ff ff
-0.01 0.45
-0.15 0.15
-0.08 0.1
ITEM: ATOMS id type x y z ix iy iz vx vy vz fx fy fz c_cc_1 c_cc_2 c_cc_3 c_cc_4 c_cc_5 c_cc_6 c_cc_7 c_cc_8 c_cc_9 c_cc_10 c_cc_11 c_cc_12 c_cc_13 c_cc_14 c_cc_15 c_cc_16 f_fppacc radius 
286 14 0.0166126 -0.0385534 -0.0365211 0 0 0 0.561722 -10.5325 1.95192 0 -0.000164368 0 0 0 0 0 0 0 0 0 0 0 0 0 0 0 0 0 40 0.002 
1154 12 0.010498 0.015686 -0.0536718 0 0 0 -0.327951 -7.89529 -2.16615 0 -0.000164368 0 0 0 0 0 0 0 0 0 0 0 0 0 0 0 0 0 0 0.002 
321 7 0.00423453 0.0352776 -0.0298907 0 0 0 0.969142 -0.956729 -1.30901 0 -0.000164368 0 0 0 0 0 0 0 0 0 0 0 0 0 0 0 0 0 19 0.002 
1138 3 0.0165802 0.0254586 -0.0233104 0 0 0 0.981735 -5.53593 -21.86 0 -0.000164368 0 0 0 0 0 0 0 0 0 0 0 0 0 0 0 0 0 0 0.002 
923 10 0.00982764 0.0307208 -0.0202135 0 0 0 0.595931 -1.15997 -20.5109 0 -0.000164368 0 0 0 0 0 0 0 0 0 0 0 0 0 0 0 0 0 12 0.002 
563 1 0.016399 0.0367367 0.0320227 0 0 0 3.06021 -4.82208 0.726429 0 -0.000164368 0 0 0 0 0 0 0 0 0 0 0 0 0 0 0 0 0 10 0.002 
557 5 0.0180368 0.0732162 0.00206181 0 0 0 -2.16983 0.372589 -2.89103 0 -0.000164368 0 0 0 0 0 0 0 0 0 0 0 0 0 0 0 0 0 28 0.002 
41 1 0.0151247 0.0528571 -0.0355 0 0 0 -4.61779e-148 2.04307e-20 6.17494e-12 3.29224e-148 0 0 0 0 0 0 0 0 0 0 0 0 0 0 0 0 0 0 1 0.002 
242 6 0.0149173 0.0489956 -0.0325031 0 0 0 0.79055 -1.22842 -2.13731 0 -0.000164368 0 0 0 0 0 0 0 0 0 0 0 0 0 0 0 0 0 32 0.002 
1027 1 0.0118501 0.0561672 -0.023699 0 0 0 0.406355 -0.426579 -1.93079 0 -0.000164368 0 0 0 0 0 0 0 0 0 0 0 0 0 0 0 0 0 3 0.002 
686 5 0.016556 0.0632407 -0.0204981 0 0 0 0.30961 -1.31784 0.874535 0 -0.000164368 0 0 0 0 0 0 0 0 0 0 0 0 0 0 0 0 0 26 0.002 
521 6 0.0110819 0.042043 -0.00981904 0 0 0 0.38675 -1.1298 -0.782924 0 -0.000164368 0 0 0 0 0 0 0 0 0 0 0 0 0 0 0 0 0 16 0.002 
574 5 0.00622093 0.0625433 0.00614569 0 0 0 1.87621 -4.34847 0.843122 0 -0.000164368 0 0 0 0 0 0 0 0 0 0 0 0 0 0 0 0 0 17 0.002 
432 4 0.0167062 0.0640419 0.00670547 0 0 0 -2.02289 -0.485037 -1.8714 0 -0.000164368 0 0 0 0 0 0 0 0 0 0 0 0 0 0 0 0 0 38 0.002 
904 3 0.0162761 0.0695079 0.00569498 0 0 0 0.956726 -0.907783 0.119291 0 -0.000164368 0 0 0 0 0 0 0 0 0 0 0 0 0 0 0 0 0 8 0.002 
1091 5 0.00306453 0.0633339 0.011529 0 0 0 0.284913 -2.10481 2.10362 0 -0.000164368 0 0 0 0 0 0 0 0 0 0 0 0 0 0 0 0 0 7 0.002 
572 3 0.00391694 0.0739756 0.0115854 0 0 0 -0.210547 1.45223 -0.54114 0 -0.000164368 0 0 0 0 0 0 0 0 0 0 0 0 0 0 0 0 0 19 0.002 
1039 3 0.00300964 0.0669644 0.0136678 0 0 0 -0.848991 -0.0331701 1.73404 -0.0285184 -0.0623 0.101607 0 0 1 0 0 0 0 0 0 0 0 0 0 0 0 0 6 0.002 
751 3 0.00709329 0.0674598 0.0130788 0 0 0 -0.0147773 -0.939796 0.690203 0 -0.000164368 0 0 0 0 0 0 0 0 0 0 0 0 0 0 0 0 0 24 0.002 
400 7 0.00687937 0.0747742 0.0143068 0 0 0 0.253906 -0.195874 0.133676 0 -0.000164368 0 0 0 0 0 0 0 0 0 0 0 0 0 0 0 0 0 34 0.002 
529 14 0.00398944 0.0509695 0.0152327 0 0 0 -0.478885 -0.028591 -0.0490621 -0.0973316 0.59153 -0.0498541 0 0 0 0 0 0 0 0 0 0 0 0 0 1 0 0 44 0.002 
403 8 0.0052129 0.0703835 0.0150915 0 0 0 0.0938815 -0.295761 0.0998049 0 -0.000164368 0 0 0 0 0 0 0 0 0 0 0 0 0 0 0 0 0 28 0.002 
534 13 0.0107871 0.070944 0.0152589 0 0 0 0.00928974 -0.48576 -0.0964794 0 -0.000164368 0 0 0 0 0 0 0 0 0 0 0 0 0 0 0 0 0 26 0.002 
381 2 0.00302886 0.0743741 0.0156689 0 0 0 0.128959 0.199032 0.260695 0 -0.000164368 0 0 0 0 0 0 0 0 0 0 0 0 0 0 0 0 0 31 0.002 
929 3 0.00800925 0.065413 0.018316 0 0 0 1.04553 -0.435625 -0.289727 0 -0.000164368 0 0 0 0 0 0 0 0 0 0 0 0 0 0 0 0 0 23 0.002 
922 5 0.00301714 0.0703319 0.018557 0 0 0 0.0534569 -0.163528 0.278381 0 -0.000164368 0 0 0 0 0 0 0 0 0 0 0 0 0 0 0 0 0 4 0.002 
337 8 0.00770394 0.0713437 0.0180946 0 0 0 -0.134906 -0.115877 -0.153697 -0.0069184 -0.00243577 -0.00125932 0 0 0 0 0 0 0 0 0 0 0 0 0 0 0 0 35 0.002 
1093 3 0.0138816 0.0733356 0.0182286 0 0 0 0.00837388 -0.299522 -0.186074 0.00366968 0.00547414 -0.0112019 0 0 2 0 0 0 0 0 0 0 0 0 0 0 0 0 10 0.002 
938 2 0.0187267 0.07469 0.0178607 0 0 0 0.0143435 0.036941 -0.178626 0 -0.000164368 0 0 0 0 0 0 0 0 0 0 0 0 0 0 0 0 0 8 0.002 
748 7 0.0104311 0.046699 0.0179264 0 0 0 1.03351 -1.8317 -2.63286 0 -0.000164368 0 0 0 0 0 0 0 0 0 0 0 0 0 0 0 0 0 23 0.002 
1064 5 0.013176 0.0657019 0.0207075 0 0 0 -0.102585 0.0704651 -0.522198 0 -0.000164368 0 0 0 0 0 0 0 0 0 0 0 0 0 0 0 0 0 7 0.002 
967 2 0.01687 0.0673472 0.0208326 0 0 0 0.0538352 -0.219359 -0.486236 0 -0.000164368 0 0 0 0 0 0 0 0 0 0 0 0 0 0 0 0 0 10 0.002 
473 3 0.0079687 0.0687499 0.0212161 0 0 0 0.370619 -0.169721 0.089179 0 -0.000164368 0 0 0 0 0 0 0 0 0 0 0 0 0 0 0 0 0 22 0.002 
1092 4 0.0131436 0.0695459 0.0194297 0 0 0 0.049438 0.0685143 -0.608006 0 -0.000164368 0 0 0 0 0 0 0 0 0 0 0 0 0 0 0 0 0 2 0.002 
916 8 0.0106824 0.0725413 0.0204407 0 0 0 -0.0264139 -0.0588939 0.123571 -0.0113782 -0.000594059 0.010655 0 0 1 0 0 0 0 0 0 0 0 0 0 0 0 0 20 0.002 
807 5 0.0169616 0.071499 0.0199717 0 0 0 -0.0794375 -0.0957304 -0.0884479 0.0146269 -0.00310179 0.00180618 0 0 1 0 0 0 0 0 0 0 0 0 0 0 0 0 24 0.002 
760 3 0.00346189 0.0749813 0.0196071 0 0 0 -0.424089 0.114345 0.241416 -0.0102961 -0.0856849 -0.0154039 0 0 1 0 0 0 0 0 0 0 0 0 0 0 0 0 20 0.002 
214 8 0.00695519 0.0738134 0.0211869 0 0 0 -0.0613006 0.0460138 -0.156489 0 -0.000164368 0 0 0 0 0 0 0 0 0 0 0 0 0 0 0 0 0 5 0.002 
741 5 0.00409734 0.0476702 0.0171669 0 0 0 -0.638159 -3.22756 -8.52361 0.0973316 -0.591859 0.0498541 0 0 0 0 0 0 0 0 0 0 0 0 0 1 0 0 18 0.002 
380 3 0.0112026 0.0497761 0.021623 0 0 0 2.2602 0.40458 -2.23596 0 -0.000164368 0 0 0 0 0 0 0 0 0 0 0 0 0 0 0 0 0 18 0.002 
835 12 0.0138307 0.0612092 0.0146527 0 0 0 4.08481 12.089 -15.6331 0 -0.000164368 0 0 0 0 0 0 0 0 0 0 0 0 0 0 0 0 0 20 0.002 
631 1 0.00357452 0.068647 0.022338 0 0 0 0.121165 -0.000501547 0.392029 0.000855264 0.082035 -0.079674 2 0 0 0 0 0 0 0 0 0 0 0 0 0 0 0 33 0.002 
522 2 0.00299132 0.0726267 0.0228708 0 0 0 0.0148506 -0.282151 0.115368 0.000557626 0.00269076 0.00428323 0 2 0 0 0 0 0 0 0 0 0 0 0 0 0 0 39 0.002 
629 8 0.0146084 0.0740379 0.0221131 0 0 0 -0.303467 -0.3992 -0.20932 0 -0.000164368 0 0 0 0 0 0 0 0 0 0 0 0 0 0 0 0 0 33 0.002 
449 4 0.00554704 0.0589576 0.0235824 0 0 0 0.426848 2.97621 0.0859886 0.184559 -0.542477 -0.016208 0 0 0 1 0 0 0 0 0 0 0 0 0 0 0 0 22 0.002 
469 3 0.0145963 0.0565449 0.0253435 0 0 0 -0.013931 -0.543087 -0.439092 0 -0.000164368 0 0 0 0 0 0 0 0 0 0 0 0 0 0 0 0 0 26 0.002 
541 6 0.00310036 0.0618342 0.0239919 0 0 0 0.0268847 2.59668 -2.49834 -0.0217763 0.361147 -0.0275993 0 0 0 1 0 0 0 0 0 0 0 0 0 0 0 0 33 0.002 
681 6 0.00299417 0.0656788 0.0248631 0 0 0 -0.249154 0.197327 0.0787876 -0.152632 0.084621 0.0995474 1 0 0 0 0 0 0 0 0 0 0 0 0 0 0 0 36 0.002 
414 7 0.00709232 0.0633879 0.0253761 0 0 0 -0.609585 0.0306874 -0.661006 0 -0.000164368 0 0 0 0 0 0 0 0 0 0 0 0 0 0 0 0 0 35 0.002 
2 6 0.0182356 0.065285 0.0245811 0 0 0 0.00974361 0.273695 -0.463554 0 -0.000164368 0 0 0 0 0 0 0 0 0 0 0 0 0 0 0 0 0 28 0.002 
1063 3 0.00659956 0.0674247 0.0249458 0 0 0 0.572275 -0.375711 -0.0646634 -0.00344634 0.00282339 -0.00638632 0 0 2 0 0 0 0 0 0 0 0 0 0 0 0 0 9 0.002 
546 1 0.0102376 0.0658815 0.023571 0 0 0 -0.03486 -0.325733 -0.251593 0 -0.000164368 0 0 0 0 0 0 0 0 0 0 0 0 0 0 0 0 0 29 0.002 
809 1 0.00647557 0.0713746 0.0243485 0 0 0 0.0160314 -0.190937 0.159132 -0.0128962 -0.0208316 0.00217961 2 1 1 0 0 0 0 0 0 0 0 0 0 0 0 0 18 0.002 
310 2 0.0138485 0.0717127 0.0254007 0 0 0 -0.00766984 -0.164332 0.188456 -0.0192057 -0.00573921 0.00515305 0 1 0 0 0 0 0 0 0 0 0 0 0 0 0 0 31 0.002 
896 1 0.0177286 0.071042 0.0249114 0 0 0 0.0189931 -0.126898 -0.225226 0.00954472 0.00590444 -0.000204494 2 1 0 0 0 0 0 0 0 0 0 0 0 0 0 0 27 0.002 
996 2 0.0101415 0.0728914 0.0245527 0 0 0 -0.0291163 0.0312285 0.137931 -0.00992141 -0.0212018 0.0103834 1 2 0 0 0 0 0 0 0 0 0 0 0 0 0 0 12 0.002 
705 14 0.0110297 0.0602358 0.0272647 0 0 0 -0.150084 -0.0209542 -0.617695 0 -0.000164368 0 0 0 0 0 0 0 0 0 0 0 0 0 0 0 0 0 27 0.002 
139 6 0.0146778 0.0621719 0.0270047 0 0 0 0.00442129 -0.11049 -0.437023 0 -0.000164368 0 0 0 0 0 0 0 0 0 0 0 0 0 0 0 0 0 45 0.002 
305 5 0.0132489 0.0676801 0.0262036 0 0 0 -0.102919 -0.198575 -0.0653925 0 -0.000164368 0 0 0 0 0 0 0 0 0 0 0 0 0 0 0 0 0 35 0.002 
1051 10 0.00317725 0.0697692 0.0261508 0 0 0 -0.0801409 0.0514245 -0.112471 0.0177508 -0.00037897 0.021879 1 0 0 0 0 0 0 0 0 0 0 0 0 0 0 0 6 0.002 
828 2 0.00913068 0.0697825 0.0269243 0 0 0 0.320035 0.0292793 -0.0473388 -0.00847581 -0.00350645 -0.0115841 0 1 1 0 0 0 0 0 0 0 0 0 0 0 0 0 18 0.002 
221 16 0.00302931 0.0737743 0.0266961 0 0 0 -0.121944 -0.208306 0.164047 0.00163629 -0.00512835 -0.00438744 0 1 0 0 0 0 0 0 0 0 0 0 0 0 0 2 41 0.002 
783 3 0.0078967 0.0576742 0.0299687 0 0 0 0.826272 0.373577 -0.380808 0 -0.000164368 0 0 0 0 0 0 0 0 0 0 0 0 0 0 0 0 0 34 0.002 
1050 1 0.0174957 0.0603401 0.0299235 0 0 0 -0.178566 -0.360276 -0.15976 -5.93599e-05 -0.000959948 -0.000163797 1 0 0 0 0 0 0 0 0 0 0 0 0 0 0 0 7 0.002 
813 6 0.00309709 0.061661 0.0293312 0 0 0 0.0386841 -0.177 -0.0641515 0 -0.000164368 0 0 0 0 0 0 0 0 0 0 0 0 0 0 0 0 0 20 0.002 
156 4 0.00650295 0.0642961 0.0301472 0 0 0 0.0188396 -0.215975 0.00711829 0 -0.000164368 0 0 0 0 0 0 0 0 0 0 0 0 0 0 0 0 0 31 0.002 
460 2 0.00301142 0.0664958 0.0293595 0 0 0 0.00699748 -0.164052 -0.0202 0 -0.000164368 0 0 0 0 0 0 0 0 0 0 0 0 0 0 0 0 0 36 0.002 
1073 6 0.00994234 0.0663414 0.0288339 0 0 0 0.0615687 -0.208756 -0.151751 0 -0.000164368 0 0 0 0 0 0 0 0 0 0 0 0 0 0 0 0 0 9 0.002 
621 4 0.0143729 0.0655768 0.0295999 0 0 0 -0.0306185 -0.295084 -0.0433287 0 -0.000164368 0 0 0 0 0 0 0 0 0 0 0 0 0 0 0 0 0 33 0.002 
12 9 0.0184829 0.0661455 0.029411 0 0 0 -0.00809788 -0.167877 -0.00287759 0 -0.000164368 0 0 0 0 0 0 0 0 0 0 0 0 0 0 0 0 0 30 0.002 
709 1 0.00653315 0.0683603 0.0297704 0 0 0 0.0256577 -0.178846 -0.0627957 0 -0.000164368 0 0 0 0 0 0 0 0 0 0 0 0 0 0 0 0 0 25 0.002 
1044 10 0.01197 0.0699776 0.0296952 0 0 0 0.22972 0.0890594 0.1666 -0.0136083 -0.00153771 -0.0355969 0 1 0 0 0 0 0 0 0 1 0 0 0 0 0 0 9 0.002 
740 1 0.0164288 0.069789 0.0288183 0 0 0 -0.0243878 -0.144458 -0.221106 0 -0.000164368 0 0 0 0 0 0 0 0 0 0 0 0 0 0 0 0 0 23 0.002 
427 6 0.00301014 0.071383 0.0298963 0 0 0 -0.0335207 -0.443455 0.0946806 -0.00099944 -0.00698851 -0.0404229 0 0 0 0 0 1 0 0 0 0 0 0 0 0 0 1 30 0.002 
378 2 0.00684845 0.0724984 0.0288178 0 0 0 0.00406671 -0.124831 -0.128427 -0.00360044 -0.00267188 3.02031e-05 0 2 0 0 0 0 0 0 0 0 0 0 0 0 0 0 32 0.002 
584 8 0.0104022 0.0743109 0.028948 0 0 0 0.0445281 -0.194279 -0.031464 0.00412024 0.000832663 -0.000507281 0 1 0 0 0 0 0 0 0 0 0 0 0 0 0 0 38 0.002 
932 2 0.0142992 0.0733691 0.0290384 0 0 0 0.0147033 -0.0864906 0.10501 0 -0.000164368 0 0 0 0 0 0 0 0 0 0 0 0 0 0 0 0 0 14 0.002 
831 4 0.00405468 0.0690956 0.0105681 0 0 0 1.20041 -0.683434 1.25989 0.0285184 0.0619713 -0.101607 0 0 1 0 0 0 0 0 0 0 0 0 0 0 0 0 9 0.002 
189 5 0.0119209 0.0562284 0.030794 0 0 0 -0.0432323 -0.26832 -0.345694 0 -0.000164368 0 0 0 0 0 0 0 0 0 0 0 0 0 0 0 0 0 26 0.002 
533 4 0.0159124 0.0566983 0.0303992 0 0 0 -0.217634 -0.383853 -0.14585 5.93599e-05 0.000631211 0.000163797 1 0 0 0 0 0 0 0 0 0 0 0 0 0 0 0 44 0.002 
301 5 0.00637413 0.0606482 0.0322052 0 0 0 0.210935 0.101865 0.162654 -0.00702156 -0.00186059 -0.00101546 0 0 0 0 1 0 0 0 0 0 0 0 0 0 0 0 38 0.002 
387 10 0.00808974 0.0594886 0.0137493 0 0 0 8.62263 22.8482 -39.5016 0 -0.000164368 0 0 0 0 0 0 0 0 0 0 0 0 0 0 0 0 0 32 0.002 
898 1 0.00839939 0.0527041 0.0325659 0 0 0 0.0227204 -1.03763 -0.0688769 0 -0.000164368 0 0 0 0 0 0 0 0 0 0 0 0 0 0 0 0 0 16 0.002 
902 3 0.00336465 0.0576826 0.0326264 0 0 0 0.089457 -0.251888 0.0397329 0 -0.000164368 0 0 0 0 0 0 0 0 0 0 0 0 0 0 0 0 0 11 0.002 
860 11 0.0102419 0.0597485 0.0326111 0 0 0 0.121675 -0.078721 0.0438249 0.00702156 0.00153185 0.00101546 0 0 0 0 1 0 0 0 0 0 0 0 0 0 0 0 22 0.002 
1004 3 0.0127613 0.0629072 0.0329981 0 0 0 0.185504 -0.0754554 -0.00667611 0 -0.000164368 0 0 0 0 0 0 0 0 0 0 0 0 0 0 0 0 0 15 0.002 
452 8 0.00307269 0.0639872 0.0327107 0 0 0 0.0358965 -0.328027 -0.0661101 0 -0.000164368 0 0 0 0 0 0 0 0 0 0 0 0 0 0 0 0 0 31 0.002 
207 2 0.0169255 0.0642634 0.0327458 0 0 0 0.244146 0.00726327 -0.0372005 -0.00143261 -0.00278136 -0.000461338 0 1 0 0 0 0 0 0 0 0 0 0 0 0 0 0 32 0.002 
1000 4 0.00830318 0.0666598 0.0329761 0 0 0 0.0337931 -0.151087 -0.0176688 0 -0.000164368 0 0 0 0 0 0 0 0 0 0 0 0 0 0 0 0 0 8 0.002 
638 6 0.0122902 0.0670049 0.0329739 0 0 0 0.014391 -0.0804676 -0.0131419 0 -0.000164368 0 0 0 0 0 0 0 0 0 0 0 0 0 0 0 0 0 22 0.002 
360 2 0.0030262 0.0685913 0.0329583 0 0 0 0.018691 -0.157306 -0.0019295 0 -0.000164368 0 0 0 0 0 0 0 0 0 0 0 0 0 0 0 0 0 17 0.002 
128 4 0.0171972 0.068252 0.0326789 0 0 0 0.00851052 -0.0663522 -0.0464782 0.0158718 -0.00366186 0.00555171 0 1 0 1 0 0 0 0 0 0 0 0 0 0 0 0 29 0.002 
257 6 0.00610086 0.0711606 0.032996 0 0 0 -0.0504498 -0.123988 0.00878069 0.00432494 -0.0051772 0.00319231 0 0 0 0 0 1 0 0 0 0 0 0 0 0 0 0 27 0.002 
519 1 0.0100812 0.0716048 0.0329796 0 0 0 -0.0453641 -0.0641669 -0.0080005 0 -0.000164368 0 0 0 0 0 0 0 0 0 0 0 0 0 0 0 0 0 28 0.002 
928 2 0.0140123 0.0706201 0.0330189 0 0 0 0.120622 -0.0449702 0.206361 -0.000909285 0.00645521 -0.0185322 0 0 0 1 0 0 0 0 0 1 0 0 0 0 0 0 19 0.002 
814 13 0.0178934 0.0724623 0.0329703 0 0 0 -0.0438471 -0.0392365 -0.033452 0 -0.000164368 0 0 0 0 0 0 0 0 0 0 0 0 0 0 0 0 0 31 0.002 
131 7 0.00311569 0.0738141 0.0330264 0 0 0 -0.00837168 -0.239655 -0.0534508 -0.00610022 6.03889e-05 -0.0217497 0 0 0 0 0 2 1 0 0 0 0 0 0 0 0 0 41 0.002 
552 8 0.0140121 0.0746231 0.0329992 0 0 0 -0.0314895 -0.178213 -0.0150763 6.55233e-05 0.000421624 0.000129507 0 0 0 0 0 0 0 1 0 0 0 0 0 0 0 0 26 0.002 
303 3 0.0173825 0.0749366 0.0257517 0 0 0 -0.116249 -0.127931 0.0894413 0.00094655 -0.00170005 -0.000238728 1 0 0 0 0 0 0 0 0 0 0 0 0 0 0 0 27 0.002 
1151 9 0.00825228 0.0633746 0.0105636 0 0 0 0.305644 -2.57157 1.51931 0 -0.000164368 0 0 0 0 0 0 0 0 0 0 0 0 0 0 0 0 0 0 0.002 
68 9 0.0136635 0.0718765 0.0102399 0 0 0 1.27738 -0.0611338 0.713193 0 -0.000164368 0 0 0 0 0 0 0 0 0 0 0 0 0 0 0 0 0 48 0.002 
887 1 0.00302056 0.106057 -0.0327445 0 0 0 0.00744439 -0.414845 0.0101337 0 -0.000164368 0 0 0 0 0 0 0 0 0 0 0 0 0 0 0 0 0 7 0.002 
1143 7 0.00709883 0.106986 -0.0317867 0 0 0 0.0543321 -0.328666 0.00221749 0 -0.000164368 0 0 0 0 0 0 0 0 0 0 0 0 0 0 0 0 0 0 0.002 
283 10 0.0111333 0.107721 -0.0329621 0 0 0 0.144618 -0.11988 0.00504534 0 -0.000164368 0 0 0 0 0 0 0 0 0 0 0 0 0 0 0 0 0 20 0.002 
430 4 0.0040505 0.101525 -0.0313292 0 0 0 0.217293 -0.568283 0.363099 0 -0.000164368 0 0 0 0 0 0 0 0 0 0 0 0 0 0 0 0 0 36 0.002 
704 9 0.00307442 0.107786 -0.0271298 0 0 0 -0.281455 -0.232984 0.0849057 0 -0.000164368 0 0 0 0 0 0 0 0 0 0 0 0 0 0 0 0 0 20 0.002 
503 7 0.00912056 0.107919 -0.0279361 0 0 0 -0.105807 -0.0562141 0.194237 0 -0.000164368 0 0 0 0 0 0 0 0 0 0 0 0 0 0 0 0 0 24 0.002 
764 4 0.00308307 0.091412 -0.0262416 0 0 0 0.0121603 -0.293688 -0.625454 0 -0.000164368 0 0 0 0 0 0 0 0 0 0 0 0 0 0 0 0 0 31 0.002 
369 6 0.00625124 0.102842 -0.0219799 0 0 0 0.533005 -0.145841 0.784544 0 -0.000164368 0 0 0 0 0 0 0 0 0 0 0 0 0 0 0 0 0 27 0.002 
314 6 0.0130529 0.100286 -0.0219053 0 0 0 -0.694428 -1.23156 0.860892 0 -0.000164368 0 0 0 0 0 0 0 0 0 0 0 0 0 0 0 0 0 17 0.002 
1117 1 0.00301117 0.107664 -0.022228 0 0 0 0.0336182 -0.0295725 0.237212 0 -0.000164368 0 0 0 0 0 0 0 0 0 0 0 0 0 0 0 0 0 0 0.002 
225 4 0.00982215 0.1068 -0.0228504 0 0 0 0.218215 -0.334091 -0.0161395 0 -0.000164368 0 0 0 0 0 0 0 0 0 0 0 0 0 0 0 0 0 19 0.002 
988 10 0.00649589 0.106654 -0.0204552 0 0 0 0.213818 -0.321176 -0.0158585 0 -0.000164368 0 0 0 0 0 0 0 0 0 0 0 0 0 0 0 0 0 8 0.002 
176 2 0.00328426 0.0803906 -0.0200216 0 0 0 -3.37152 0.0315039 -0.744753 0 -0.000164368 0 0 0 0 0 0 0 0 0 0 0 0 0 0 0 0 0 23 0.002 
731 2 0.00324764 0.0913727 -0.0179736 0 0 0 0.114697 1.04363 -1.1629 0 -0.000164368 0 0 0 0 0 0 0 0 0 0 0 0 0 0 0 0 0 16 0.002 
636 8 0.00375231 0.102133 -0.0167931 0 0 0 0.11021 -0.665316 0.438874 0 -0.000164368 0 0 0 0 0 0 0 0 0 0 0 0 0 0 0 0 0 10 0.002 
834 3 0.00877039 0.107032 -0.0164737 0 0 0 1.05536 -0.268258 0.0687019 0 -0.000164368 0 0 0 0 0 0 0 0 0 0 0 0 0 0 0 0 0 24 0.002 
933 1 0.0101846 0.0757573 -0.012773 0 0 0 -0.789234 -2.36761 5.21571 0 -0.000164368 0 0 0 0 0 0 0 0 0 0 0 0 0 0 0 0 0 16 0.002 
1119 4 0.00816158 0.0982722 -0.0147824 0 0 0 0.505755 0.500799 0.148396 0 -0.000164368 0 0 0 0 0 0 0 0 0 0 0 0 0 0 0 0 0 0 0.002 
786 1 0.00570933 0.105794 -0.0124403 0 0 0 0.546442 -0.980999 -0.274425 0 -0.000164368 0 0 0 0 0 0 0 0 0 0 0 0 0 0 0 0 0 28 0.002 
716 5 0.0031516 0.08715 -0.00991235 0 0 0 0.151925 -0.0796613 -0.853615 0 -0.000164368 0 0 0 0 0 0 0 0 0 0 0 0 0 0 0 0 0 14 0.002 
762 6 0.00589473 0.0908273 -0.00883147 0 0 0 1.03667 -0.0509143 0.0560667 0 -0.000164368 0 0 0 0 0 0 0 0 0 0 0 0 0 0 0 0 0 30 0.002 
702 1 0.00953439 0.105004 -0.00947753 0 0 0 -0.0539061 -0.175938 1.11067 0 -0.000164368 0 0 0 0 0 0 0 0 0 0 0 0 0 0 0 0 0 24 0.002 
825 1 0.00860067 0.106138 -0.00220555 0 0 0 -0.336919 -0.0736222 0.585006 0 -0.000164368 0 0 0 0 0 0 0 0 0 0 0 0 0 0 0 0 0 19 0.002 
640 1 0.00458127 0.076194 -0.00140373 0 0 0 0.853537 -0.875847 -0.0864453 0 -0.000164368 0 0 0 0 0 0 0 0 0 0 0 0 0 0 0 0 0 16 0.002 
410 6 0.00294395 0.0818524 -0.00138612 0 0 0 0.0687216 -0.49527 0.20101 0.196612 -0.0207337 -0.0110534 0 0 0 0 0 0 0 0 0 0 0 0 0 0 0 0 18 0.002 
911 6 0.00754256 0.083027 -0.000832559 0 0 0 0.527816 -2.20211 1.3064 0 -0.000164368 0 0 0 0 0 0 0 0 0 0 0 0 0 0 0 0 0 15 0.002 
1134 2 0.00567368 0.0980012 0.000551219 0 0 0 0.386785 -0.730805 0.778785 0 -0.000164368 0 0 0 0 0 0 0 0 0 0 0 0 0 0 0 0 0 0 0.002 
18 3 0.011929 0.105647 0.000875292 0 0 0 0.672527 -0.554208 0.909931 0 -0.000164368 0 0 0 0 0 0 0 0 0 0 0 0 0 0 0 0 0 27 0.002 
425 1 0.00461172 0.0805269 0.00267376 0 0 0 -1.04623 0.531388 1.7393 0 -0.000164368 0 0 0 0 0 0 0 0 0 0 0 0 0 0 0 0 0 33 0.002 
417 1 0.00383055 0.0922545 0.0012679 0 0 0 -0.0913233 -1.48843 0.633648 0 -0.000164368 0 0 0 0 0 0 0 0 0 0 0 0 0 0 0 0 0 44 0.002 
906 5 0.00921576 0.0997958 0.00199871 0 0 0 0.574018 -0.701693 1.9299 0 -0.000164368 0 0 0 0 0 0 0 0 0 0 0 0 0 0 0 0 0 19 0.002 
1008 4 0.00369626 0.101129 0.00298487 0 0 0 0.681251 -2.67994 0.860682 0 -0.000164368 0 0 0 0 0 0 0 0 0 0 0 0 0 0 0 0 0 5 0.002 
1028 1 0.0154961 0.100329 0.00406679 0 0 0 -0.00647321 -1.82431 2.19477 0 -0.000164368 0 0 0 0 0 0 0 0 0 0 0 0 0 0 0 0 0 0 0.002 
1131 5 0.00743493 0.107888 0.00125033 0 0 0 0.176522 0.109384 0.8957 0 -0.000164368 0 0 0 0 0 0 0 0 0 0 0 0 0 0 0 0 0 0 0.002 
815 10 0.00845915 0.0797471 0.00544438 0 0 0 0.0912232 0.168346 1.64152 0 -0.000164368 0 0 0 0 0 0 0 0 0 0 0 0 0 0 0 0 0 23 0.002 
972 3 0.00773905 0.089265 0.0054695 0 0 0 -0.589427 2.95157 0.752386 0 -0.000164368 0 0 0 0 0 0 0 0 0 0 0 0 0 0 0 0 0 10 0.002 
1033 2 0.00686951 0.0989648 0.00574122 0 0 0 0.332787 -0.540693 0.894965 -0.00057411 -0.000106477 0.00356548 0 1 0 0 0 0 0 0 0 0 0 0 0 0 0 0 12 0.002 
493 5 0.00519824 0.107853 0.0046129 0 0 0 0.119186 0.0148011 1.14921 0 -0.000164368 0 0 0 0 0 0 0 0 0 0 0 0 0 0 0 0 0 28 0.002 
868 5 0.00752879 0.0752605 0.00764062 0 0 0 -0.691574 -0.953224 1.62805 0.00982128 -0.00289545 -0.0496097 0 0 0 0 1 0 0 0 0 0 0 0 0 0 0 0 16 0.002 
65 2 0.00317774 0.10108 0.00716001 0 0 0 0.299632 -1.00487 0.920738 0 -0.000164368 0 0 0 0 0 0 0 0 0 0 0 0 0 0 0 0 0 18 0.002 
299 1 0.00722536 0.103303 0.00774839 0 0 0 0.0183642 -0.67551 0.934482 0 -0.000164368 0 0 0 0 0 0 0 0 0 0 0 0 0 0 0 0 0 24 0.002 
288 1 0.00365444 0.105607 0.0078235 0 0 0 0.283607 -0.370565 0.827043 0 -0.000164368 0 0 0 0 0 0 0 0 0 0 0 0 0 0 0 0 0 24 0.002 
235 3 0.0103321 0.106545 0.00820333 0 0 0 -0.37332 -0.55883 0.950049 0.0205478 0.000562789 -0.0133467 0 0 2 0 0 0 0 0 0 0 0 0 0 0 0 0 38 0.002 
554 3 0.00569566 0.0829648 0.00815024 0 0 0 0.242935 -0.105074 -0.52571 0 -0.000164368 0 0 0 0 0 0 0 0 0 0 0 0 0 0 0 0 0 8 0.002 
355 5 0.00680836 0.10797 0.00933178 0 0 0 -0.434757 -0.0028291 0.834055 -0.0217038 -0.000142712 0.014855 0 0 1 0 0 0 0 0 0 0 0 0 0 0 0 0 26 0.002 
1147 9 0.0127875 0.097526 0.00853439 0 0 0 0.00982614 -0.766104 0.497164 -0.000893784 -0.00419359 -0.0104142 0 0 0 0 0 0 0 0 1 0 0 0 0 0 0 0 1 0.002 
1129 5 0.00597604 0.0991576 0.00963518 0 0 0 0.360387 -0.907753 1.14845 0.00057411 -0.000222259 -0.00356548 0 1 0 0 0 0 0 0 0 0 0 0 0 0 0 0 2 0.002 
653 9 0.0130062 0.102808 0.00970403 0 0 0 -0.181194 -0.39715 0.672775 0 -0.000164368 0 0 0 0 0 0 0 0 0 0 0 0 0 0 0 0 0 17 0.002 
1114 1 0.0166618 0.106191 0.00925438 0 0 0 0.740199 0.0385775 0.653691 0.00032619 0.000936253 0.0010479 1 0 0 0 0 0 0 0 0 0 0 0 0 0 0 0 2 0.002 
491 2 0.0182457 0.102268 -0.0232713 0 0 0 -1.79302 5.60693 2.91822 0 -0.000164368 0 0 0 0 0 0 0 0 0 0 0 0 0 0 0 0 0 22 0.002 
512 7 0.00723497 0.0771876 0.0111106 0 0 0 0.506676 0.149087 0.448997 -0.00982128 0.00256671 0.0496097 0 0 0 0 0 0 1 0 0 0 0 0 0 0 0 0 30 0.002 
231 7 0.00984697 0.081822 0.0115035 0 0 0 0.102989 -0.575087 -0.298353 0 -0.000164368 0 0 0 0 0 0 0 0 0 0 0 0 0 0 0 0 0 31 0.002 
641 1 0.0158649 0.0833473 0.0116496 0 0 0 0.522634 1.45301 0.525138 0 -0.000164368 0 0 0 0 0 0 0 0 0 0 0 0 0 0 0 0 0 16 0.002 
511 2 0.00674729 0.0890579 0.0106407 0 0 0 -0.000263166 -1.02569 0.244096 0 -0.000164368 0 0 0 0 0 0 0 0 0 0 0 0 0 0 0 0 0 22 0.002 
1124 4 0.0129944 0.0992741 0.0121034 0 0 0 0.162919 -0.473675 0.457812 -0.000126132 -0.00459036 -0.0186745 0 0 0 2 0 0 0 0 0 0 0 0 0 0 0 0 2 0.002 
505 2 0.00337507 0.102595 0.0109072 0 0 0 -0.0247417 -0.28146 0.888095 -3.30478e-05 0.00128993 0.00181442 0 1 0 0 0 0 0 0 0 0 0 0 0 0 0 0 32 0.002 
434 14 0.012864 0.107612 0.0110814 0 0 0 0.176634 0.122861 0.682646 0.00115605 -0.000913181 -0.0015083 0 0 0 0 0 0 0 0 0 0 0 0 0 1 0 0 38 0.002 
1071 3 0.00307775 0.10798 0.0112729 0 0 0 0.0455064 -0.0268425 0.756795 0 -0.000164368 0 0 0 0 0 0 0 0 0 0 0 0 0 0 0 0 0 1 0.002 
1105 7 0.00320076 0.078424 0.014122 0 0 0 0.0900051 -0.147548 0.293474 0 -0.000164368 0 0 0 0 0 0 0 0 0 0 0 0 0 0 0 0 0 0 0.002 
570 1 0.0118029 0.078522 0.0127757 0 0 0 0.277242 -0.51418 -0.287446 0 -0.000164368 0 0 0 0 0 0 0 0 0 0 0 0 0 0 0 0 0 32 0.002 
742 3 0.0127598 0.0868485 0.0133811 0 0 0 -1.51456 1.31932 1.51522 0 -0.000164368 0 0 0 0 0 0 0 0 0 0 0 0 0 0 0 0 0 17 0.002 
245 1 0.0106986 0.0909983 0.012667 0 0 0 0.0965179 -0.393757 -0.428983 0 -0.000164368 0 0 0 0 0 0 0 0 0 0 0 0 0 0 0 0 0 28 0.002 
183 9 0.00406227 0.096978 0.0134379 0 0 0 0.00384533 -0.370883 0.269555 0 -0.000164368 0 0 0 0 0 0 0 0 0 0 0 0 0 0 0 0 0 23 0.002 
657 3 0.00638471 0.100633 0.0133754 0 0 0 0.297433 -0.427621 0.637993 0.00856031 -0.00149961 -0.0275392 0 0 1 0 0 0 0 0 0 0 0 0 0 0 0 0 17 0.002 
669 1 0.00325448 0.105033 0.0140753 0 0 0 -0.042455 0.221479 0.657854 -0.00345272 0.00486126 -0.00332425 1 1 0 0 0 0 0 0 0 0 0 0 0 0 0 0 38 0.002 
1011 6 0.00740416 0.104618 0.0125831 0 0 0 0.0527073 -0.402157 0.333935 0 -0.000164368 0 0 0 0 0 0 0 0 0 0 0 0 0 0 0 0 0 10 0.002 
468 8 0.016665 0.107725 0.0129472 0 0 0 0.304835 0.268311 0.628479 -0.00359756 -0.00309043 0.0112652 0 0 0 0 0 0 0 2 0 0 0 0 0 0 0 0 33 0.002 
1024 5 0.0104162 0.107869 0.0142443 0 0 0 -0.109332 0.000148302 0.379015 0 -0.000164368 0 0 0 0 0 0 0 0 0 0 0 0 0 0 0 0 0 1 0.002 
720 4 0.0113292 0.0753999 0.0156492 0 0 0 -0.327282 -0.000104845 -0.464385 0 -0.000164368 0 0 0 0 0 0 0 0 0 0 0 0 0 0 0 0 0 14 0.002 
1136 1 0.0162711 0.0775781 0.0161308 0 0 0 -0.057195 0.0335758 -0.450736 0 -0.000164368 0 0 0 0 0 0 0 0 0 0 0 0 0 0 0 0 0 2 0.002 
211 2 0.0142973 0.0811414 0.014981 0 0 0 -0.081904 -0.49265 0.0589029 0 -0.000164368 0 0 0 0 0 0 0 0 0 0 0 0 0 0 0 0 0 17 0.002 
543 1 0.00621615 0.0833705 0.014753 0 0 0 0.335454 0.2793 -0.0290146 0 -0.000164368 0 0 0 0 0 0 0 0 0 0 0 0 0 0 0 0 0 28 0.002 
53 3 0.00302529 0.0865914 0.0150698 0 0 0 -0.0107353 -0.293956 -0.172745 0.000125964 0.000745799 7.09155e-05 0 0 0 0 0 0 0 0 0 0 0 0 0 0 0 0 34 0.002 
230 6 0.00991595 0.0876635 0.0161709 0 0 0 0.152701 -0.333497 -0.205326 0 -0.000164368 0 0 0 0 0 0 0 0 0 0 0 0 0 0 0 0 0 39 0.002 
586 9 0.0178336 0.0868902 0.0151102 0 0 0 1.23631 -1.01384 -0.156098 0 -0.000164368 0 0 0 0 0 0 0 0 0 0 0 0 0 0 0 0 0 24 0.002 
730 3 0.00355139 0.0905141 0.0156134 0 0 0 0.0602961 -0.231858 -0.0947581 -0.000125964 -0.00107453 -7.09155e-05 0 0 0 0 0 0 0 0 0 0 0 0 0 0 0 0 13 0.002 
9 6 0.00574566 0.0943268 0.0162383 0 0 0 0.19242 -0.454552 0.17716 0 -0.000164368 0 0 0 0 0 0 0 0 0 0 0 0 0 0 0 0 0 36 0.002 
707 2 0.0131977 0.100311 0.0159303 0 0 0 0.0166156 -0.253515 0.379561 0.00708502 0.00338287 0.00450297 0 1 0 1 0 0 0 0 0 0 0 0 0 0 0 0 30 0.002 
206 6 0.00447082 0.102124 0.016511 0 0 0 -0.167319 -0.132779 0.440997 -0.0107237 -0.00307543 -0.00850626 1 0 1 0 0 1 0 0 0 0 0 0 0 0 0 0 34 0.002 
693 8 0.0117163 0.104785 0.0164715 0 0 0 -0.0347195 -0.114408 0.263407 0 -0.000164368 0 0 0 0 0 0 0 0 0 0 0 0 0 0 0 0 0 19 0.002 
250 5 0.00657321 0.107588 0.0153342 0 0 0 -0.21319 -0.0951263 0.161694 0 -0.000164368 0 0 0 0 0 0 0 0 0 0 0 0 0 0 0 0 0 34 0.002 
766 7 0.0157101 0.107466 0.0168021 0 0 0 -0.0619688 0.200877 1.11521 0.00327137 0.00166107 -0.0123131 0 0 0 0 0 0 0 1 0 0 0 0 0 0 0 0 23 0.002 
77 12 0.00826724 0.0766726 0.0186706 0 0 0 0.104747 0.0395879 -0.542327 0 -0.000164368 0 0 0 0 0 0 0 0 0 0 0 0 0 0 0 0 0 34 0.002 
55 4 0.00309038 0.078864 0.0189868 0 0 0 -0.648827 -0.195197 0.167711 0.0163284 0.077942 0.00520739 0 0 0 2 0 0 0 0 0 0 0 0 0 0 0 0 20 0.002 
984 3 0.00671927 0.0803158 0.0180322 0 0 0 -0.511851 -0.097044 -0.347495 0 -0.000164368 0 0 0 0 0 0 0 0 0 0 0 0 0 0 0 0 0 14 0.002 
252 6 0.0112024 0.0794161 0.0170987 0 0 0 -0.548847 -0.650951 0.0196178 0 -0.000164368 0 0 0 0 0 0 0 0 0 0 0 0 0 0 0 0 0 18 0.002 
591 9 0.0160172 0.0809816 0.0186131 0 0 0 0.0100124 -0.557392 0.19016 -0.0017705 0.00130077 -0.00326323 0 0 0 0 0 0 0 0 2 0 0 0 0 0 0 0 15 0.002 
792 2 0.00300387 0.0835758 0.0179816 0 0 0 0.0016529 -0.10627 -0.0600469 0 -0.000164368 0 0 0 0 0 0 0 0 0 0 0 0 0 0 0 0 0 13 0.002 
368 5 0.00948313 0.0832759 0.0180628 0 0 0 -0.769158 -0.281212 0.33063 0.000848178 0.0011799 -0.0143577 0 0 0 0 1 0 0 0 0 0 0 0 0 0 0 0 30 0.002 
789 5 0.0136243 0.0840522 0.017844 0 0 0 -0.469734 -0.524526 0.499456 -0.00132877 0.0114872 -0.00216609 0 0 0 0 1 0 0 0 1 0 0 0 0 0 0 0 24 0.002 
397 3 0.0177615 0.0865437 0.019106 0 0 0 -0.0870461 -0.0844566 0.0351365 -0.00104937 0.00133729 0.00168724 0 0 1 0 0 0 0 0 0 0 0 0 0 0 0 0 38 0.002 
317 11 0.0178011 0.0945603 0.0185984 0 0 0 0.209441 -0.441291 0.349243 0 -0.000164368 0 0 0 0 0 0 0 0 0 0 0 0 0 0 0 0 0 28 0.002 
699 9 0.010011 0.0979445 0.018923 0 0 0 0.229539 -0.0753161 0.276685 0 -0.000164368 0 0 0 0 0 0 0 0 0 0 0 0 0 0 0 0 0 14 0.002 
118 2 0.0133408 0.0959907 0.0172717 0 0 0 0.0955334 -0.458255 0.0354066 0 -0.000164368 0 0 0 0 0 0 0 0 0 0 0 0 0 0 0 0 0 29 0.002 
54 6 0.00861653 0.102246 0.0171223 0 0 0 0.00208258 -0.215006 0.200488 0 -0.000164368 0 0 0 0 0 0 0 0 0 0 0 0 0 0 0 0 0 33 0.002 
581 6 0.0174143 0.102116 0.0171869 0 0 0 0.00691578 -0.0863368 0.182081 0 -0.000164368 0 0 0 0 0 0 0 0 0 0 0 0 0 0 0 0 0 36 0.002 
931 4 0.00299824 0.107306 0.0173574 0 0 0 -0.0594407 0.300275 0.923597 0.00504479 -0.00110202 -0.00234164 0 0 0 0 0 0 0 0 0 0 0 0 0 0 0 0 12 0.002 
130 1 0.0093548 0.107984 0.0182344 0 0 0 -0.148964 -0.0208323 0.138185 0 -0.000164368 0 0 0 0 0 0 0 0 0 0 0 0 0 0 0 0 0 25 0.002 
1040 3 0.013017 0.0777709 0.0202844 0 0 0 0.109805 -0.147721 -0.122013 0.0136421 0.0130934 -0.0152332 0 0 0 0 0 0 0 0 0 0 0 0 0 0 0 0 12 0.002 
876 14 0.015595 0.0840078 0.0213155 0 0 0 0.339963 -0.117574 0.444315 0.00256678 0.0115021 -0.0142611 0 0 0 0 1 0 0 0 0 0 0 0 0 1 0 0 11 0.002 
781 2 0.00753621 0.0859755 0.0203177 0 0 0 0.0209267 -0.248739 -0.0423841 -0.00415992 0.00120253 0.000102011 0 1 0 0 0 0 0 0 0 0 0 0 0 0 0 0 29 0.002 
979 4 0.00389562 0.0877109 0.0190179 0 0 0 0.0283623 -0.224829 -0.09124 -2.56766e-06 1.39652e-05 -0.000275596 0 0 0 1 0 0 0 0 0 0 0 0 0 0 0 0 12 0.002 
1026 6 0.0114015 0.0874859 0.0198877 0 0 0 0.0944567 -0.169901 -0.158989 0 -0.000164368 0 0 0 0 0 0 0 0 0 0 0 0 0 0 0 0 0 13 0.002 
1031 3 0.00685515 0.0899439 0.020583 0 0 0 0.0293471 -0.188791 -0.222331 0 -0.000164368 0 0 0 0 0 0 0 0 0 0 0 0 0 0 0 0 0 3 0.002 
841 3 0.00971675 0.0940224 0.0197458 0 0 0 0.241752 -0.163422 0.0363572 0 -0.000164368 0 0 0 0 0 0 0 0 0 0 0 0 0 0 0 0 0 18 0.002 
375 4 0.0149328 0.095928 0.0210891 0 0 0 0.0483042 -0.220924 0.111565 0 -0.000164368 0 0 0 0 0 0 0 0 0 0 0 0 0 0 0 0 0 25 0.002 
830 7 0.00397694 0.0964792 0.019573 0 0 0 -0.14996 -0.146125 0.0447085 0 -0.000164368 0 0 0 0 0 0 0 0 0 0 0 0 0 0 0 0 0 25 0.002 
695 2 0.0157864 0.0997776 0.0200545 0 0 0 -0.0668365 -0.272626 0.0440538 0 -0.000164368 0 0 0 0 0 0 0 0 0 0 0 0 0 0 0 0 0 18 0.002 
769 5 0.00600171 0.100889 0.0199547 0 0 0 -0.0656891 -0.242977 0.349095 -0.011229 0.00639132 0.00263573 0 0 0 0 3 1 0 0 0 0 0 0 0 0 0 0 20 0.002 
654 3 0.0121291 0.101357 0.0196057 0 0 0 -0.0868269 -0.0449543 0.399739 0.00793559 -0.000721387 -0.00907889 0 1 2 0 0 0 0 0 0 0 0 0 0 0 0 0 34 0.002 
1036 6 0.00299819 0.103561 0.0202677 0 0 0 0.00441562 -0.149397 0.167901 0.000367682 0.000125744 -0.000150899 0 0 0 0 0 1 0 0 0 0 0 0 0 0 0 0 17 0.002 
501 2 0.00954182 0.103983 0.021106 0 0 0 0.00578017 -0.00110852 0.269451 -0.0116496 0.0115621 0.0122988 0 0 1 0 0 0 0 0 0 0 0 0 0 0 0 0 8 0.002 
1113 4 0.00620778 0.105621 0.0190694 0 0 0 -0.0271813 -0.129867 0.1062 0.000542319 -5.20186e-05 -6.13511e-05 0 0 0 0 0 1 0 0 0 0 0 0 0 0 0 0 3 0.002 
359 3 0.0130202 0.107476 0.0198005 0 0 0 -0.162888 -0.150052 0.176162 0 -0.000164368 0 0 0 0 0 0 0 0 0 0 0 0 0 0 0 0 0 29 0.002 
719 3 0.010022 0.0762195 0.022381 0 0 0 0.0416997 -0.0541385 -0.0373856 -0.00745626 0.00329836 -0.00252643 0 0 1 0 0 0 0 0 0 0 0 0 0 0 0 0 16 0.002 
527 8 0.00626916 0.078249 0.0218848 0 0 0 0.0137559 -0.148381 -0.118081 0 -0.000164368 0 0 0 0 0 0 0 0 0 0 0 0 0 0 0 0 0 25 0.002 
718 11 0.00300664 0.0805532 0.0226012 0 0 0 -0.0297982 -0.172533 -0.0247128 -0.00420903 0.0107683 0.00875302 0 0 0 1 0 0 0 0 0 0 1 0 0 0 0 0 23 0.002 