ITEM: TIMESTEP
9050000
ITEM: NUMBER OF ATOMS
1110
ITEM: BOX BOUNDS ff ff ff
-0.01 0.45
-0.15 0.15
-0.08 0.1
ITEM: ATOMS id type x y z ix iy iz vx vy vz fx fy fz c_cc_1 c_cc_2 c_cc_3 c_cc_4 c_cc_5 c_cc_6 c_cc_7 c_cc_8 c_cc_9 c_cc_10 c_cc_11 c_cc_12 c_cc_13 c_cc_14 c_cc_15 c_cc_16 f_fppacc radius 
1058 2 0.00453514 -0.0500399 -0.0284917 0 0 0 0.311987 -7.83253 14.4417 0 -0.000164368 0 0 0 0 0 0 0 0 0 0 0 0 0 0 0 0 0 10 0.002 
981 4 0.0130687 -0.0430354 0.0167368 0 0 0 0.762266 0.822051 1.60475 0 -0.000164368 0 0 0 0 0 0 0 0 0 0 0 0 0 0 0 0 0 1 0.002 
111 3 0.00977399 0.00726991 -0.0518484 0 0 0 -1.37497 -3.03306 0.473936 0 -0.000164368 0 0 0 0 0 0 0 0 0 0 0 0 0 0 0 0 0 42 0.002 
706 9 0.00308802 0.00755503 -0.0488648 0 0 0 0.623941 -2.2211 0.362336 0 -0.000164368 0 0 0 0 0 0 0 0 0 0 0 0 0 0 0 0 0 37 0.002 
182 2 0.0060306 0.0233459 -0.052619 0 0 0 0.649056 -11.3582 -2.64938 0 -0.000164368 0 0 0 0 0 0 0 0 0 0 0 0 0 0 0 0 0 31 0.002 
321 7 0.0125409 0.0373633 -0.0440021 0 0 0 0.146649 -13.5296 -8.41286 0 -0.000164368 0 0 0 0 0 0 0 0 0 0 0 0 0 0 0 0 0 19 0.002 
230 6 0.00549433 0.0679104 -0.00231424 0 0 0 -0.457036 -0.302684 -1.00782 0 -0.000164368 0 0 0 0 0 0 0 0 0 0 0 0 0 0 0 0 0 38 0.002 
41 1 0.0151253 0.0528571 -0.0355 0 0 0 -7.72153e-25 -6.16607e-20 -4.88148e-15 -1.63862e-21 0 0 0 0 0 0 0 0 0 0 0 0 0 0 0 0 0 0 1 0.002 
849 4 0.00482366 0.0658943 -0.0323299 0 0 0 1.25159 0.846566 0.699462 0 -0.000164368 0 0 0 0 0 0 0 0 0 0 0 0 0 0 0 0 0 15 0.002 
527 8 0.00756735 0.073121 0.00996054 0 0 0 1.94032 0.630682 -0.702761 0 -0.000164368 0 0 0 0 0 0 0 0 0 0 0 0 0 0 0 0 0 25 0.002 
563 1 0.0123234 0.0685963 -0.0168752 0 0 0 -8.74638 -5.7479 24.0564 0 -0.000164368 0 0 0 0 0 0 0 0 0 0 0 0 0 0 0 0 0 10 0.002 
1056 1 0.00836023 0.0730465 0.00563543 0 0 0 -2.02771 -0.0255527 0.535859 0 -0.000164368 0 0 0 0 0 0 0 0 0 0 0 0 0 0 0 0 0 2 0.002 
112 6 0.0127929 0.0643457 -0.00238553 0 0 0 0.410058 0.629254 -3.60785 0 -0.000164368 0 0 0 0 0 0 0 0 0 0 0 0 0 0 0 0 0 37 0.002 
900 1 0.0182368 0.0725465 -0.0223709 0 0 0 1.34823 0.995724 -15.7063 0 -0.000164368 0 0 0 0 0 0 0 0 0 0 0 0 0 0 0 0 0 15 0.002 
240 1 0.0158509 0.0475128 -0.0106999 0 0 0 9.28894 13.4663 -5.27195 0 -0.000164368 0 0 0 0 0 0 0 0 0 0 0 0 0 0 0 0 0 32 0.002 
1122 1 0.0126402 0.059965 -0.0032797 0 0 0 1.08382 -4.40523 7.13649 0 -0.000164368 0 0 0 0 0 0 0 0 0 0 0 0 0 0 0 0 0 0 0.002 
380 3 0.00786065 0.0709897 0.0328134 0 0 0 0.0103328 0.039769 -0.0751491 0.000166024 -0.00235181 -6.19118e-05 0 0 1 0 0 0 0 0 0 0 0 0 0 0 0 0 17 0.002 
888 1 0.00347134 0.0693326 0.0140875 0 0 0 -0.164772 0.388202 -0.591943 0 -0.000164368 0 0 0 0 0 0 0 0 0 0 0 0 0 0 0 0 0 17 0.002 
434 14 0.00736051 0.0706467 0.0141669 0 0 0 0.139719 0.17462 -0.639932 0 -0.000164368 0 0 0 0 0 0 0 0 0 0 0 0 0 0 0 0 0 37 0.002 
878 12 0.00310703 0.0594076 0.0162952 0 0 0 0.0433608 -1.4951 0.669994 0 -0.000164368 0 0 0 0 0 0 0 0 0 0 0 0 0 0 0 0 0 9 0.002 
314 6 0.00364597 0.0736181 0.0156284 0 0 0 0.032591 0.130846 -0.374139 0 -0.000164368 0 0 0 0 0 0 0 0 0 0 0 0 0 0 0 0 0 17 0.002 
799 3 0.0180228 0.0628106 0.0180163 0 0 0 -0.0470602 -0.256172 -0.47642 0 -0.000164368 0 0 0 0 0 0 0 0 0 0 0 0 0 0 0 0 0 28 0.002 
788 5 0.0110395 0.0712765 0.0175382 0 0 0 -0.442261 1.26474 -1.07896 0 -0.000164368 0 0 0 0 0 0 0 0 0 0 0 0 0 0 0 0 0 20 0.002 
309 1 0.0154754 0.0726274 0.0163487 0 0 0 -0.115674 0.423915 -0.954876 0 -0.000164368 0 0 0 0 0 0 0 0 0 0 0 0 0 0 0 0 0 44 0.002 
695 2 0.00735172 0.0738209 0.0185727 0 0 0 0.0779211 -0.0901095 -0.314088 -5.57847e-05 -0.00153782 -0.00428635 0 1 0 0 0 0 0 0 0 0 0 0 0 0 0 0 17 0.002 
53 3 0.0121414 0.0631031 0.0189286 0 0 0 -0.733706 0.538793 -0.943553 0 -0.000164368 0 0 0 0 0 0 0 0 0 0 0 0 0 0 0 0 0 34 0.002 
777 3 0.00833715 0.0661313 0.0195614 0 0 0 0.446144 0.164313 0.87636 0 -0.000164368 0 0 0 0 0 0 0 0 0 0 0 0 0 0 0 0 0 14 0.002 
794 6 0.00509201 0.0695679 0.0206721 0 0 0 -0.00465302 0.672503 -0.433594 0 -0.000164368 0 0 0 0 0 0 0 0 0 0 0 0 0 0 0 0 0 9 0.002 
685 7 0.017206 0.0702029 0.0205507 0 0 0 0.0180781 0.431067 -0.648964 0 -0.000164368 0 0 0 0 0 0 0 0 0 0 0 0 0 0 0 0 0 23 0.002 
368 5 0.00680276 0.0733091 0.0224932 0 0 0 -0.226828 0.186595 -0.314536 5.57847e-05 0.00120909 0.00428635 0 1 0 0 0 0 0 0 0 0 0 0 0 0 0 0 28 0.002 
420 3 0.00332792 0.067515 0.0244495 0 0 0 0.0466711 0.292965 -0.354054 0 -0.000164368 0 0 0 0 0 0 0 0 0 0 0 0 0 0 0 0 0 37 0.002 
1123 3 0.0140242 0.050758 0.0265913 0 0 0 -0.050102 -0.125427 -0.412425 0 -0.000164368 0 0 0 0 0 0 0 0 0 0 0 0 0 0 0 0 0 0 0.002 
707 2 0.0151105 0.0674826 0.0259929 0 0 0 -0.0653692 0.0593664 -0.427708 0 -0.000164368 0 0 0 0 0 0 0 0 0 0 0 0 0 0 0 0 0 28 0.002 
242 6 0.00308824 0.071192 0.0262343 0 0 0 0.0176846 0.262089 -0.164118 0 -0.000164368 0 0 0 0 0 0 0 0 0 0 0 0 0 0 0 0 0 32 0.002 
831 4 0.0139286 0.07232 0.0257033 0 0 0 -0.146081 0.133857 -0.28391 0 -0.000164368 0 0 0 0 0 0 0 0 0 0 0 0 0 0 0 0 0 7 0.002 
18 3 0.00729004 0.0733125 0.0272831 0 0 0 0.00183016 0.114092 -0.195791 0 -0.000164368 0 0 0 0 0 0 0 0 0 0 0 0 0 0 0 0 0 27 0.002 
410 6 0.00853407 0.0593789 0.0278754 0 0 0 -0.364627 0.181002 -0.264075 0 -0.000164368 0 0 0 0 0 0 0 0 0 0 0 0 0 0 0 0 0 18 0.002 
394 6 0.00978933 0.0636991 0.0285979 0 0 0 0.149677 0.0231598 -0.174429 0 -0.000164368 0 0 0 0 0 0 0 0 0 0 0 0 0 0 0 0 0 34 0.002 
640 1 0.0176197 0.0646047 0.0285613 0 0 0 -1.18722 0.633354 0.0230676 0 -0.000164368 0 0 0 0 0 0 0 0 0 0 0 0 0 0 0 0 0 16 0.002 
929 3 0.0102766 0.0706108 0.0295958 0 0 0 0.189251 0.628465 0.102053 0 -0.000164368 0 0 0 0 0 0 0 0 0 0 0 0 0 0 0 0 0 23 0.002 
597 6 0.016114 0.0705667 0.0296948 0 0 0 -0.145528 -0.00324452 -0.131679 0 -0.000164368 0 0 0 0 0 0 0 0 0 0 0 0 0 0 0 0 0 37 0.002 
469 3 0.0116588 0.0742894 0.0285325 0 0 0 0.123697 0.176024 -0.0416985 0 -0.000164368 0 0 0 0 0 0 0 0 0 0 0 0 0 0 0 0 0 26 0.002 
647 3 0.0153236 0.0746381 0.0302219 0 0 0 0.198339 -0.102158 -0.00382294 0 -0.000164368 0 0 0 0 0 0 0 0 0 0 0 0 0 0 0 0 0 24 0.002 
483 1 0.0031598 0.0624079 0.0303398 0 0 0 0.0171434 0.022414 -0.255792 0 -0.000164368 0 0 0 0 0 0 0 0 0 0 0 0 0 0 0 0 0 23 0.002 
189 5 0.0143214 0.063725 0.0310509 0 0 0 0.413024 0.214564 0.00821347 0 -0.000164368 0 0 0 0 0 0 0 0 0 0 0 0 0 0 0 0 0 26 0.002 
1033 2 0.00666117 0.0677588 0.0302897 0 0 0 -0.12537 0.300852 -0.447118 0 -0.000164368 0 0 0 0 0 0 0 0 0 0 0 0 0 0 0 0 0 11 0.002 
449 4 0.00323904 0.0685135 0.0323385 0 0 0 -0.00596975 0.297591 -0.090994 0 -0.000164368 0 0 0 0 0 0 0 0 0 0 0 0 0 0 0 0 0 21 0.002 
748 7 0.00360859 0.0722313 0.0305454 0 0 0 -0.0599402 0.0766233 -0.149949 0 -0.000164368 0 0 0 0 0 0 0 0 0 0 0 0 0 0 0 0 0 23 0.002 
898 1 0.00751765 0.0745965 0.0311295 0 0 0 -0.111058 -0.000383412 -0.126882 -7.69743e-05 -0.000937616 -0.00084308 1 0 1 0 0 0 0 0 0 0 0 0 0 0 0 0 14 0.002 
586 9 0.00400832 0.0498086 0.0327086 0 0 0 0.0518111 -0.610993 -0.00963615 0 -0.000164368 0 0 0 0 0 0 0 0 0 0 0 0 0 0 0 0 0 24 0.002 
562 3 0.00635535 0.0607423 0.0326157 0 0 0 -0.396182 0.0696447 0.013347 0 -0.000164368 0 0 0 0 0 0 0 0 0 0 0 0 0 0 0 0 0 23 0.002 
901 9 0.0182996 0.0688618 0.0329231 0 0 0 -0.0909995 0.357961 -0.0236458 0 -0.000164368 0 0 0 0 0 0 0 0 0 0 0 0 0 0 0 0 0 22 0.002 
699 9 0.006831 0.0856438 -0.0326517 0 0 0 0.3933 0.100137 -1.84792 0 -0.000164368 0 0 0 0 0 0 0 0 0 0 0 0 0 0 0 0 0 13 0.002 
287 6 0.0112272 0.1013 -0.0319553 0 0 0 -0.176349 -0.565662 0.122629 0 -0.000164368 0 0 0 0 0 0 0 0 0 0 0 0 0 0 0 0 0 21 0.002 
377 4 0.011892 0.102467 0.00827413 0 0 0 0.0946025 -0.483379 0.590939 0 -0.000164368 0 0 0 0 0 0 0 0 0 0 0 0 0 0 0 0 0 37 0.002 
704 9 0.00302617 0.107181 -0.0329028 0 0 0 0.00626773 0.224027 0.0229718 0 -0.000164368 0 0 0 0 0 0 0 0 0 0 0 0 0 0 0 0 0 20 0.002 
906 5 0.0101429 0.105757 -0.031615 0 0 0 -1.18062 -0.333034 1.38252 0.00370147 -0.00750976 0.0044466 0 0 0 0 1 0 0 0 0 0 0 0 0 0 0 0 19 0.002 
634 2 0.0071139 0.107898 -0.0330095 0 0 0 -0.774015 0.168924 -0.212053 0.0121944 -0.000854998 0.0311768 0 0 0 0 1 0 0 0 0 0 0 0 0 0 0 0 21 0.002 
258 6 0.0143096 0.0868026 -0.0282164 0 0 0 -2.60868 -0.644053 0.957701 0 -0.000164368 0 0 0 0 0 0 0 0 0 0 0 0 0 0 0 0 0 15 0.002 
942 2 0.0049492 0.0920384 -0.0289719 0 0 0 -0.310445 -0.844252 0.0559379 0 -0.000164368 0 0 0 0 0 0 0 0 0 0 0 0 0 0 0 0 0 1 0.002 
589 5 0.0116637 0.0995724 -0.0278764 0 0 0 -1.29799 2.30517 -0.127849 0 -0.000164368 0 0 0 0 0 0 0 0 0 0 0 0 0 0 0 0 0 26 0.002 
764 4 0.00452821 0.107931 -0.0289855 0 0 0 0.109463 -0.0229593 0.142189 0 -0.000164368 0 0 0 0 0 0 0 0 0 0 0 0 0 0 0 0 0 31 0.002 
1114 1 0.00889498 0.106895 -0.0265001 0 0 0 0.632055 0.62252 0.259565 0 -0.000164368 0 0 0 0 0 0 0 0 0 0 0 0 0 0 0 0 0 1 0.002 
1027 1 0.0133039 0.0821511 -0.0244126 0 0 0 -0.911207 -1.02234 -0.0963188 0 -0.000164368 0 0 0 0 0 0 0 0 0 0 0 0 0 0 0 0 0 3 0.002 
288 1 0.0109231 0.0887714 -0.0238039 0 0 0 -2.15886 -1.18941 1.25759 0 -0.000164368 0 0 0 0 0 0 0 0 0 0 0 0 0 0 0 0 0 24 0.002 
65 2 0.0102316 0.0932994 -0.0217758 0 0 0 -1.20637 -0.00726074 1.5642 0 -0.000164368 0 0 0 0 0 0 0 0 0 0 0 0 0 0 0 0 0 18 0.002 
937 4 0.00889128 0.0999296 -0.0246378 0 0 0 0.0374393 -0.303566 -0.252081 0 -0.000164368 0 0 0 0 0 0 0 0 0 0 0 0 0 0 0 0 0 17 0.002 
570 1 0.012077 0.101961 -0.0232895 0 0 0 0.25524 -0.388725 -0.207121 0 -0.000164368 0 0 0 0 0 0 0 0 0 0 0 0 0 0 0 0 0 32 0.002 
501 2 0.0115412 0.0830016 -0.0209031 0 0 0 -1.48861 -0.240702 -0.349682 0 -0.000164368 0 0 0 0 0 0 0 0 0 0 0 0 0 0 0 0 0 4 0.002 
286 14 0.0174834 0.0888837 -0.0221373 0 0 0 -0.499087 2.15889 -0.681974 0 -0.000164368 0 0 0 0 0 0 0 0 0 0 0 0 0 0 0 0 0 40 0.002 
654 3 0.00294833 0.0973294 -0.0226349 0 0 0 -2.03979 1.72308 -1.62809 0.495428 -0.0749566 0.236153 0 0 0 0 0 0 0 0 0 0 0 0 0 0 0 0 31 0.002 
825 1 0.0158447 0.102243 -0.0217097 0 0 0 0.170572 -0.897892 -0.104802 0 -0.000164368 0 0 0 0 0 0 0 0 0 0 0 0 0 0 0 0 0 19 0.002 
657 3 0.00947507 0.0991248 -0.0194993 0 0 0 -0.635535 -0.389032 0.00422538 0 -0.000164368 0 0 0 0 0 0 0 0 0 0 0 0 0 0 0 0 0 15 0.002 
554 3 0.00431454 0.100927 -0.0180755 0 0 0 -0.114995 -0.11276 0.218325 0 -0.000164368 0 0 0 0 0 0 0 0 0 0 0 0 0 0 0 0 0 8 0.002 
296 2 0.00761317 0.103056 -0.0189574 0 0 0 0.148775 -0.358702 0.301104 0 -0.000164368 0 0 0 0 0 0 0 0 0 0 0 0 0 0 0 0 0 15 0.002 
55 4 0.00316025 0.105443 -0.018691 0 0 0 0.025151 -0.309011 0.494585 0 -0.000164368 0 0 0 0 0 0 0 0 0 0 0 0 0 0 0 0 0 16 0.002 
798 4 0.00973199 0.106437 -0.0186583 0 0 0 -0.139178 -0.105705 0.553589 0 -0.000164368 0 0 0 0 0 0 0 0 0 0 0 0 0 0 0 0 0 15 0.002 
1120 6 0.00309712 0.0755448 -0.029815 0 0 0 1.5011 1.52734 -9.99642 0 -0.000164368 0 0 0 0 0 0 0 0 0 0 0 0 0 0 0 0 0 0 0.002 
954 5 0.00326857 0.0972266 -0.0165827 0 0 0 -1.06667 -0.141559 0.379632 0 -0.000164368 0 0 0 0 0 0 0 0 0 0 0 0 0 0 0 0 0 12 0.002 
766 7 0.0110647 0.102206 -0.0151813 0 0 0 0.246231 -0.595141 0.576773 0 -0.000164368 0 0 0 0 0 0 0 0 0 0 0 0 0 0 0 0 0 22 0.002 
430 4 0.016762 0.10276 -0.0161746 0 0 0 -1.18866 -0.781287 1.59155 -0.0655235 -0.038102 0.0453963 0 0 0 1 0 0 0 0 0 0 0 0 0 0 0 0 35 0.002 
984 3 0.00401716 0.0968351 -0.0119258 0 0 0 -1.8937 1.87074 2.40535 0 -0.000164368 0 0 0 0 0 0 0 0 0 0 0 0 0 0 0 0 0 14 0.002 
972 3 0.0033536 0.101495 -0.0139305 0 0 0 -0.0505277 -0.131687 0.164218 0.000354002 0.00331943 -0.0121664 0 0 0 0 0 0 0 0 0 0 0 0 0 0 0 0 9 0.002 
1077 1 0.00669834 0.107651 -0.0148811 0 0 0 0.287078 -0.0946054 -0.175294 0 -0.000164368 0 0 0 0 0 0 0 0 0 0 0 0 0 0 0 0 0 3 0.002 
1011 6 0.0128671 0.107472 -0.0152471 0 0 0 0.448598 -0.175191 0.0172426 0 -0.000164368 0 0 0 0 0 0 0 0 0 0 0 0 0 0 0 0 0 8 0.002 
245 1 0.00905697 0.104861 -0.0127096 0 0 0 0.123228 -0.00690059 0.286496 0 -0.000164368 0 0 0 0 0 0 0 0 0 0 0 0 0 0 0 0 0 27 0.002 
252 6 0.0131107 0.104474 -0.0124741 0 0 0 0.0189513 0.0361975 0.118636 0 -0.000164368 0 0 0 0 0 0 0 0 0 0 0 0 0 0 0 0 0 17 0.002 
505 2 0.00329629 0.107505 -0.0110209 0 0 0 0.107892 0.0951032 -0.105534 0 -0.000164368 0 0 0 0 0 0 0 0 0 0 0 0 0 0 0 0 0 31 0.002 
118 2 0.0182241 0.0813843 -0.0095911 0 0 0 -4.43523 6.99062 -9.08657 0 -0.000164368 0 0 0 0 0 0 0 0 0 0 0 0 0 0 0 0 0 28 0.002 
645 2 0.0156163 0.0993283 -0.0102408 0 0 0 0.511798 0.0609114 0.730401 0 -0.000164368 0 0 0 0 0 0 0 0 0 0 0 0 0 0 0 0 0 26 0.002 
1071 3 0.00300643 0.102605 -0.0101333 0 0 0 0.0274736 0.244611 0.368393 -0.000354002 -0.00364817 0.0121664 0 0 0 0 0 0 0 0 0 0 0 0 0 0 0 0 0 0.002 
173 3 0.0166195 0.104417 -0.0101009 0 0 0 0.464007 -0.560919 0.0117074 0 -0.000164368 0 0 0 0 0 0 0 0 0 0 0 0 0 0 0 0 0 15 0.002 
250 5 0.0116896 0.107558 -0.00905804 0 0 0 -0.0216906 -0.135019 0.261461 0 -0.000164368 0 0 0 0 0 0 0 0 0 0 0 0 0 0 0 0 0 31 0.002 
130 1 0.00626091 0.08708 -0.00926271 0 0 0 2.00763 4.91479 -5.48556 0 -0.000164368 0 0 0 0 0 0 0 0 0 0 0 0 0 0 0 0 0 23 0.002 
802 4 0.00633973 0.0934451 -0.00755611 0 0 0 1.57851 3.61657 -0.96143 0 -0.000164368 0 0 0 0 0 0 0 0 0 0 0 0 0 0 0 0 0 10 0.002 
206 6 0.00397493 0.098679 -0.00690661 0 0 0 0.163479 -0.21438 -0.0215978 0 -0.000164368 0 0 0 0 0 0 0 0 0 0 0 0 0 0 0 0 0 31 0.002 
669 1 0.00673189 0.107745 -0.00756226 0 0 0 -0.254749 -0.0891691 0.30003 0 -0.000164368 0 0 0 0 0 0 0 0 0 0 0 0 0 0 0 0 0 33 0.002 
1036 6 0.00369519 0.103735 -0.00421789 0 0 0 -0.19196 -0.2449 0.307009 0 -0.000164368 0 0 0 0 0 0 0 0 0 0 0 0 0 0 0 0 0 14 0.002 
931 4 0.00783825 0.107167 -0.00375322 0 0 0 -0.0864508 -0.138698 0.2725 0 -0.000164368 0 0 0 0 0 0 0 0 0 0 0 0 0 0 0 0 0 10 0.002 
1113 4 0.0119208 0.105886 -0.0048565 0 0 0 -0.269064 0.303675 0.132236 0 -0.000164368 0 0 0 0 0 0 0 0 0 0 0 0 0 0 0 0 0 0 0.002 
331 7 0.00333372 0.0937975 -0.0023085 0 0 0 0.314624 2.68595 0.112394 0 -0.000164368 0 0 0 0 0 0 0 0 0 0 0 0 0 0 0 0 0 29 0.002 
54 6 0.0162333 0.101607 -0.00405856 0 0 0 -1.25779 2.68532 -0.706147 0 -0.000164368 0 0 0 0 0 0 0 0 0 0 0 0 0 0 0 0 0 33 0.002 
671 3 0.0029978 0.107073 -0.00212605 0 0 0 0.0106258 -0.218266 0.359023 -0.000302885 -0.000887667 -0.000436105 0 0 1 0 0 0 0 0 0 0 0 0 0 0 0 0 32 0.002 
841 3 0.0110202 0.0898619 0.000153376 0 0 0 0.359707 0.319533 0.061218 0 -0.000164368 0 0 0 0 0 0 0 0 0 0 0 0 0 0 0 0 0 17 0.002 
575 3 0.0161065 0.0901314 0.000590552 0 0 0 -0.059755 0.253966 0.0147875 0 -0.000164368 0 0 0 0 0 0 0 0 0 0 0 0 0 0 0 0 0 36 0.002 
830 7 0.00777034 0.0924887 0.00033029 0 0 0 -0.545744 0.0651346 1.38308 0 -0.000164368 0 0 0 0 0 0 0 0 0 0 0 0 0 0 0 0 0 22 0.002 
472 3 0.00946788 0.101554 0.000292155 0 0 0 1.06243 1.52072 1.7309 0 -0.000164368 0 0 0 0 0 0 0 0 0 0 0 0 0 0 0 0 0 22 0.002 
1104 4 0.00870901 0.105639 -4.64273e-05 0 0 0 -0.0315465 -0.183882 0.267176 0 -0.000164368 0 0 0 0 0 0 0 0 0 0 0 0 0 0 0 0 0 1 0.002 
742 3 0.0112454 0.0804441 0.00236761 0 0 0 -2.21657 1.76429 -0.690315 0 -0.000164368 0 0 0 0 0 0 0 0 0 0 0 0 0 0 0 0 0 17 0.002 
337 8 0.00631683 0.0879846 0.00242241 0 0 0 -0.0444677 0.60995 -0.382813 0 -0.000164368 0 0 0 0 0 0 0 0 0 0 0 0 0 0 0 0 0 35 0.002 
1086 9 0.00574451 0.101586 0.00261703 0 0 0 -0.192086 0.0689529 1.11705 -0.00370428 0.00345754 0.000674122 0 0 0 0 0 0 0 0 0 0 0 0 0 0 0 0 0 0.002 
729 9 0.00303775 0.104273 0.00142749 0 0 0 -0.133343 0.125899 0.492095 0.00420733 -0.00328123 0.000136249 0 0 0 0 0 0 0 0 1 0 0 0 0 0 0 0 10 0.002 
680 6 0.00521062 0.108003 0.00106781 0 0 0 0.019194 -0.0152692 0.304355 0.000918928 -0.000128686 0.000469351 0 0 1 0 0 0 0 0 0 0 0 0 0 0 0 0 28 0.002 
734 9 0.0124415 0.107912 0.00221783 0 0 0 0.0949016 -0.093267 0.666625 0 -0.000164368 0 0 0 0 0 0 0 0 0 0 0 0 0 0 0 0 0 9 0.002 
531 1 0.00428405 0.0934808 0.00499172 0 0 0 0.117686 -0.0108263 0.239305 0 -0.000164368 0 0 0 0 0 0 0 0 0 0 0 0 0 0 0 0 0 42 0.002 
165 4 0.00916257 0.0922762 0.00424845 0 0 0 1.16293 1.34299 1.26527 0 -0.000164368 0 0 0 0 0 0 0 0 0 0 0 0 0 0 0 0 0 20 0.002 
576 2 0.00905824 0.102556 0.00483182 0 0 0 0.386843 -0.103629 0.839186 0 -0.000164368 0 0 0 0 0 0 0 0 0 0 0 0 0 0 0 0 0 16 0.002 
61 8 0.0122812 0.105339 0.00539192 0 0 0 -0.123338 0.0169035 0.875698 0 -0.000164368 0 0 0 0 0 0 0 0 0 0 0 0 0 0 0 0 0 6 0.002 
455 1 0.00316219 0.106712 0.0045886 0 0 0 -0.0659217 0.128363 0.600452 -0.000503044 -0.000669412 -0.000810371 0 0 0 0 0 0 0 0 1 0 0 0 0 0 0 0 25 0.002 
775 2 0.0162991 0.106963 0.00465525 0 0 0 0.181234 0.302499 1.1919 0 -0.000164368 0 0 0 0 0 0 0 0 0 0 0 0 0 0 0 0 0 11 0.002 
508 9 0.00765155 0.107844 0.00430835 0 0 0 -0.11418 -0.022329 0.321307 0 -0.000164368 0 0 0 0 0 0 0 0 0 0 0 0 0 0 0 0 0 21 0.002 
385 7 0.00429373 0.0798289 0.00555657 0 0 0 0.158828 0.909495 -0.794353 0 -0.000164368 0 0 0 0 0 0 0 0 0 0 0 0 0 0 0 0 0 27 0.002 
991 8 0.014648 0.0850996 0.00533647 0 0 0 0.30211 0.352802 -0.529774 0.012744 0.03151 -0.023613 0 0 0 0 0 0 0 1 0 0 0 0 0 0 0 0 5 0.002 
9 6 0.00303845 0.0871984 0.00617756 0 0 0 -0.267785 0.821002 -0.487598 0 -0.000164368 0 0 0 0 0 0 0 0 0 0 0 0 0 0 0 0 0 36 0.002 
730 3 0.00793012 0.088685 0.00632216 0 0 0 -0.318682 0.110187 0.116175 0 -0.000164368 0 0 0 0 0 0 0 0 0 0 0 0 0 0 0 0 0 11 0.002 
513 4 0.0119933 0.088036 0.00679254 0 0 0 -0.00409788 0.41193 -0.529837 0.00186334 -0.00160913 -0.00128925 0 0 0 1 0 0 0 0 0 0 0 0 0 0 0 0 30 0.002 
1037 5 0.0056732 0.102394 0.00697508 0 0 0 0.255526 -0.150577 0.84342 0 -0.000164368 0 0 0 0 0 0 0 0 0 0 0 0 0 0 0 0 0 7 0.002 
557 5 0.0139177 0.0785294 0.00972262 0 0 0 -1.77812 3.70726 1.53389 0 -0.000164368 0 0 0 0 0 0 0 0 0 0 0 0 0 0 0 0 0 26 0.002 
976 5 0.00480157 0.0790344 0.00986945 0 0 0 0.301052 1.40516 -0.194948 0 -0.000164368 0 0 0 0 0 0 0 0 0 0 0 0 0 0 0 0 0 3 0.002 
833 6 0.0113195 0.0819811 0.00895359 0 0 0 -0.194629 0.498479 -0.862025 0 -0.000164368 0 0 0 0 0 0 0 0 0 0 0 0 0 0 0 0 0 18 0.002 
76 2 0.0152409 0.0818876 0.00756816 0 0 0 0.492773 0.199453 -0.38992 -0.012744 -0.0318388 0.023613 0 0 0 0 0 0 0 1 0 0 0 0 0 0 0 0 19 0.002 
792 2 0.00317181 0.0846087 0.00948782 0 0 0 0.141908 0.245081 -0.576088 0 -0.000164368 0 0 0 0 0 0 0 0 0 0 0 0 0 0 0 0 0 13 0.002 
1003 7 0.00910103 0.0855878 0.00890274 0 0 0 0.25985 -0.58822 0.0864513 -0.00222428 -0.00349567 0.00320706 0 0 0 0 0 0 1 0 0 0 0 0 0 0 0 0 3 0.002 
886 5 0.0105016 0.0914277 0.00827807 0 0 0 0.26926 0.31653 0.0694733 -0.00186334 0.00128039 0.00128925 0 0 0 1 0 0 0 0 0 0 0 0 0 0 0 0 13 0.002 
993 8 0.0147579 0.0899156 0.00912725 0 0 0 0.104307 -0.0433371 -0.153311 0.00096461 0.00146841 0.00065592 0 0 0 0 0 0 0 1 0 0 0 0 0 0 0 0 8 0.002 
1111 4 0.00607777 0.0917789 0.00815563 0 0 0 -0.514391 0.0899 0.368164 0 -0.000164368 0 0 0 0 0 0 0 0 0 0 0 0 0 0 0 0 0 0 0.002 
624 7 0.00447785 0.0968731 0.00744855 0 0 0 0.380713 0.0128888 -0.573763 0 -0.000164368 0 0 0 0 0 0 0 0 0 0 0 0 0 0 0 0 0 20 0.002 
602 6 0.0131065 0.0751508 -0.029928 0 0 0 1.09891 5.24896 1.45918 0 -0.000164368 0 0 0 0 0 0 0 0 0 0 0 0 0 0 0 0 0 20 0.002 
1098 3 0.00733737 0.08457 0.0123411 0 0 0 0.0932911 0.237786 0.449652 -0.0287728 -0.00140076 -0.0512738 0 0 3 0 0 0 0 0 0 0 0 0 0 0 0 0 4 0.002 
481 2 0.0149066 0.0861385 0.0112748 0 0 0 0.133667 0.0479676 -0.382621 0 -0.000164368 0 0 0 0 0 0 0 0 0 0 0 0 0 0 0 0 0 17 0.002 
979 4 0.00316419 0.0889651 0.0105417 0 0 0 -0.280504 0.546855 -0.193882 0 -0.000164368 0 0 0 0 0 0 0 0 0 0 0 0 0 0 0 0 0 8 0.002 
56 7 0.0032767 0.0941956 0.0110378 0 0 0 0.0570144 1.23642 0.0867106 0 -0.000164368 0 0 0 0 0 0 0 0 0 0 0 0 0 0 0 0 0 31 0.002 
1060 2 0.0166265 0.0932225 0.0103668 0 0 0 -0.0856547 0.224439 -0.239238 -0.00096461 -0.00179714 -0.00065592 0 1 0 0 0 0 0 0 0 0 0 0 0 0 0 0 2 0.002 
874 1 0.0149273 0.104774 0.0108973 0 0 0 0.191678 0.138978 0.555526 0 -0.000164368 0 0 0 0 0 0 0 0 0 0 0 0 0 0 0 0 0 17 0.002 
268 5 0.00927653 0.107809 0.0107014 0 0 0 -0.282757 -0.269548 0.696852 0 -0.000164368 0 0 0 0 0 0 0 0 0 0 0 0 0 0 0 0 0 41 0.002 
381 2 0.016727 0.0824215 0.013082 0 0 0 0.002341 -0.0808887 -0.307781 0 -0.000164368 0 0 0 0 0 0 0 0 0 0 0 0 0 0 0 0 0 31 0.002 
718 11 0.00400265 0.08601 0.0143941 0 0 0 -0.547332 0.456652 0.135136 0 -0.000164368 0 0 0 0 0 0 0 0 0 0 0 0 0 0 0 0 0 20 0.002 
400 7 0.0104146 0.0870534 0.0124819 0 0 0 0.240313 0.768098 -0.19259 0.00749827 0.00103236 0.00302567 0 0 1 0 0 0 1 0 0 0 0 0 0 0 0 0 32 0.002 
907 8 0.00376807 0.0901578 0.0143928 0 0 0 0.0346672 0.11776 -0.18547 0 -0.000164368 0 0 0 0 0 0 0 0 0 0 0 0 0 0 0 0 0 10 0.002 
990 2 0.0132729 0.0897747 0.0131242 0 0 0 0.00288148 0.140618 -0.224847 0.0196573 0.00260084 0.00279171 0 0 0 0 0 0 1 0 0 0 0 0 0 0 0 0 5 0.002 
768 6 0.0162692 0.104389 0.0329704 0 0 0 0.0283386 -0.0909714 -0.0141567 0 -0.000164368 0 0 0 0 0 0 0 0 0 0 0 0 0 0 0 0 0 12 0.002 
278 11 0.00713207 0.103771 0.0145297 0 0 0 -0.154592 -0.0473395 0.847312 0 -0.000164368 0 0 0 0 0 0 0 0 0 0 0 0 0 0 0 0 0 27 0.002 
499 2 0.00362079 0.105851 0.0140035 0 0 0 0.305138 0.0549268 0.215973 0 -0.000164368 0 0 0 0 0 0 0 0 0 0 0 0 0 0 0 0 0 24 0.002 
703 3 0.0108531 0.0762263 0.0157948 0 0 0 0.0927445 0.31302 -0.252058 0 -0.000164368 0 0 0 0 0 0 0 0 0 0 0 0 0 0 0 0 0 18 0.002 
760 3 0.00321651 0.0816765 0.0155307 0 0 0 0.0276915 0.0149111 -0.25509 0 -0.000164368 0 0 0 0 0 0 0 0 0 0 0 0 0 0 0 0 0 19 0.002 
403 8 0.0181236 0.0807718 0.0164799 0 0 0 0.2231 0.0967008 -0.424929 0 -0.000164368 0 0 0 0 0 0 0 0 0 0 0 0 0 0 0 0 0 27 0.002 
758 4 0.00705136 0.0829494 0.0159665 0 0 0 -0.319375 0.821509 0.154658 0.00384154 0.000441391 0.0422494 0 0 1 0 0 0 0 0 0 0 0 0 0 0 0 0 20 0.002 
517 2 0.0124008 0.0839719 0.0147879 0 0 0 0.274311 0.251398 0.0704861 0.00726057 -0.0276178 -0.0187407 0 1 0 0 0 0 0 0 0 0 0 0 0 0 0 0 12 0.002 
726 1 0.00817866 0.0897487 0.0148909 0 0 0 0.134546 -0.11027 -0.235793 0 -0.000164368 0 0 0 0 0 0 0 0 0 0 0 0 0 0 0 0 0 14 0.002 
579 8 0.0171192 0.0898849 0.0143928 0 0 0 0.036021 -0.00343616 -0.287323 0 -0.000164368 0 0 0 0 0 0 0 0 0 0 0 0 0 0 0 0 0 36 0.002 
300 1 0.0121437 0.0934782 0.0156467 0 0 0 0.16726 -0.26881 -0.0469809 0 -0.000164368 0 0 0 0 0 0 0 0 0 0 0 0 0 0 0 0 0 20 0.002 
1031 3 0.0106106 0.0970661 0.0146727 0 0 0 0.0359776 -0.122928 -0.221492 0 -0.000164368 0 0 0 0 0 0 0 0 0 0 0 0 0 0 0 0 0 2 0.002 
892 5 0.0152825 0.0961165 0.0156234 0 0 0 0.0547068 -0.0603374 -0.176449 0 -0.000164368 0 0 0 0 0 0 0 0 0 0 0 0 0 0 0 0 0 7 0.002 
776 5 0.0172978 0.107481 0.0153507 0 0 0 0.269433 -0.317425 0.301386 0 -0.000164368 0 0 0 0 0 0 0 0 0 0 0 0 0 0 0 0 0 9 0.002 
904 3 0.0138884 0.0758026 0.0187617 0 0 0 0.361503 -0.01774 -0.302062 0 -0.000164368 0 0 0 0 0 0 0 0 0 0 0 0 0 0 0 0 0 8 0.002 
922 5 0.00301969 0.0779768 0.0171556 0 0 0 0.00900688 0.0917046 0.00414017 0 -0.000164368 0 0 0 0 0 0 0 0 0 0 0 0 0 0 0 0 0 4 0.002 
364 3 0.00709762 0.0778778 0.0180658 0 0 0 0.153562 -0.039935 -0.199805 0 -0.000164368 0 0 0 0 0 0 0 0 0 0 0 0 0 0 0 0 0 25 0.002 
1092 4 0.0107065 0.0834582 0.0188103 0 0 0 -0.131532 0.208523 -0.00270139 0 -0.000164368 0 0 0 0 0 0 0 0 0 0 0 0 0 0 0 0 0 0 0.002 
534 13 0.0150378 0.08304 0.0177988 0 0 0 0.398796 -0.0978914 0.152943 0 -0.000164368 0 0 0 0 0 0 0 0 0 0 0 0 0 0 0 0 0 26 0.002 
522 2 0.00306841 0.0849299 0.0184651 0 0 0 0.0395181 0.0885129 -0.0429789 -0.0030274 -0.00386424 -0.00180642 0 1 0 0 0 0 0 0 0 0 0 0 0 0 0 0 33 0.002 
881 1 0.00426933 0.0887279 0.0187856 0 0 0 0.0674621 -0.0293945 0.0305606 0.0030274 0.0035355 0.00180642 0 1 0 0 0 0 0 0 0 0 0 0 0 0 0 0 16 0.002 
916 8 0.0114988 0.0871914 0.0169233 0 0 0 0.0477447 0.316239 -0.155594 -0.00726057 0.027289 0.0187407 0 1 0 0 0 0 0 0 0 0 0 0 0 0 0 0 16 0.002 
629 8 0.0162244 0.0868578 0.0176399 0 0 0 0.0776562 0.0533531 -0.10115 0.000563989 0.000557504 0.00180327 0 0 0 0 0 0 0 1 0 0 0 0 0 0 0 0 33 0.002 
639 9 0.0036096 0.09279 0.0174176 0 0 0 0.101171 -0.131617 0.263399 0 -0.000164368 0 0 0 0 0 0 0 0 0 0 0 0 0 0 0 0 0 25 0.002 
938 2 0.017276 0.0929935 0.0183691 0 0 0 -0.0168831 -0.0907813 -0.138432 4.97276e-05 -0.000146467 -5.38903e-05 0 1 0 0 0 0 0 0 0 0 0 0 0 0 0 0 8 0.002 
650 3 0.00643972 0.0962062 0.0179071 0 0 0 -0.0392618 -0.0455553 0.0425827 0 -0.000164368 0 0 0 0 0 0 0 0 0 0 0 0 0 0 0 0 0 16 0.002 
811 5 0.00364601 0.102943 0.0175046 0 0 0 -0.353996 -0.0806399 0.111826 0 -0.000164368 0 0 0 0 0 0 0 0 0 0 0 0 0 0 0 0 0 19 0.002 
797 6 0.00984937 0.101804 0.0171378 0 0 0 -0.243162 -0.171447 0.375911 -0.000174072 0.00171141 0.00158947 0 0 0 0 0 1 0 0 0 0 0 0 0 0 0 0 20 0.002 
610 7 0.0152609 0.101671 0.0182538 0 0 0 0.304261 -0.124591 0.160955 -0.000434942 0.000677441 0.00112275 0 0 0 0 0 0 1 0 0 0 0 0 0 0 0 0 25 0.002 
548 4 0.00355842 0.1077 0.0188894 0 0 0 0.013048 0.130423 0.134585 0 -0.000164368 0 0 0 0 0 0 0 0 0 0 0 0 0 0 0 0 0 31 0.002 
909 2 0.00806109 0.107265 0.0172381 0 0 0 0.0231566 -0.112145 0.493633 0 -0.000164368 0 0 0 0 0 0 0 0 0 0 0 0 0 0 0 0 0 15 0.002 
720 4 0.00336316 0.0752701 0.0204426 0 0 0 0.198696 0.0510028 -0.57368 0 -0.000164368 0 0 0 0 0 0 0 0 0 0 0 0 0 0 0 0 0 13 0.002 
762 6 0.005578 0.0820112 0.0196337 0 0 0 -0.0415516 0.0153115 0.096573 0 -0.000164368 0 0 0 0 0 0 0 0 0 0 0 0 0 0 0 0 0 29 0.002 
353 6 0.0135261 0.0797208 0.0198059 0 0 0 0.183487 -0.00322879 -0.195526 0 -0.000164368 0 0 0 0 0 0 0 0 0 0 0 0 0 0 0 0 0 14 0.002 
1063 3 0.00733929 0.0853541 0.0210582 0 0 0 0.0826824 0.0512199 0.0743964 1.41119e-05 -0.00113346 -0.000853211 0 0 1 0 0 0 0 0 0 0 0 0 0 0 0 0 5 0.002 
719 3 0.0115018 0.0906276 0.0192509 0 0 0 -0.0807379 0.14965 -0.119773 0 -0.000164368 0 0 0 0 0 0 0 0 0 0 0 0 0 0 0 0 0 15 0.002 
859 6 0.0174704 0.0892146 0.0206194 0 0 0 0.175797 0.0617488 -0.0344652 -0.000563989 -0.00088624 -0.00180327 0 0 0 0 0 0 0 1 0 0 0 0 0 0 0 0 20 0.002 
73 3 0.00704024 0.0917715 0.0193124 0 0 0 -0.00764111 -0.164122 -0.0920887 0 -0.000164368 0 0 0 0 0 0 0 0 0 0 0 0 0 0 0 0 0 31 0.002 
1093 3 0.0139474 0.0935855 0.0205024 0 0 0 0.0883074 0.0118429 0.0333419 -4.97276e-05 -0.000182269 5.38903e-05 0 1 0 0 0 0 0 0 0 0 0 0 0 0 0 0 5 0.002 
679 5 0.00994847 0.0946453 0.0190539 0 0 0 -0.0428182 -0.0760613 0.0136349 0 -0.000164368 0 0 0 0 0 0 0 0 0 0 0 0 0 0 0 0 0 25 0.002 
179 1 0.0127582 0.0978677 0.0212025 0 0 0 0.117536 -0.270576 -0.0851642 0 -0.000164368 0 0 0 0 0 0 0 0 0 0 0 0 0 0 0 0 0 30 0.002 
827 2 0.00419233 0.0996312 0.0203943 0 0 0 -0.0829441 -0.0878835 0.32087 0 -0.000164368 0 0 0 0 0 0 0 0 0 0 0 0 0 0 0 0 0 10 0.002 
577 2 0.0106527 0.103525 0.0206481 0 0 0 0.150066 -0.087587 0.429708 0.000174072 -0.00204015 -0.00158947 0 0 0 0 0 1 0 0 0 0 0 0 0 0 0 0 19 0.002 
104 1 0.0144618 0.105177 0.0199882 0 0 0 0.220836 -0.161771 0.471567 0.000434942 -0.00100618 -0.00112275 0 0 0 0 0 0 1 0 0 0 0 0 0 0 0 0 17 0.002 
903 8 0.00722507 0.106795 0.0212129 0 0 0 -0.0220502 0.0481408 0.239665 0 -0.000164368 0 0 0 0 0 0 0 0 0 0 0 0 0 0 0 0 0 20 0.002 
539 8 0.0179811 0.107792 0.019599 0 0 0 0.279184 -0.00742104 0.495802 0 -0.000164368 0 0 0 0 0 0 0 0 0 0 0 0 0 0 0 0 0 23 0.002 
1039 3 0.00374086 0.0794208 0.022322 0 0 0 -0.226467 0.044842 0.173068 0 -0.000164368 0 0 0 0 0 0 0 0 0 0 0 0 0 0 0 0 0 4 0.002 
876 14 0.0105638 0.0776408 0.0216795 0 0 0 0.292551 0.0246297 -0.338472 0 -0.000164368 0 0 0 0 0 0 0 0 0 0 0 0 0 0 0 0 0 8 0.002 
700 2 0.0168484 0.0787242 0.0228457 0 0 0 -0.12537 0.699859 -0.2914 -0.0790295 0.320249 -0.0737887 0 1 0 0 0 0 0 0 0 0 0 0 0 0 0 0 15 0.002 
473 3 0.0114797 0.0833036 0.0227862 0 0 0 0.184963 -0.0577957 -0.0292671 -0.000734737 0.00154524 0.00154975 0 0 1 0 0 0 0 0 0 0 0 0 0 0 0 0 21 0.002 
457 6 0.0153378 0.0861263 0.022877 0 0 0 0.114843 -0.162962 -0.142857 0 -0.000164368 0 0 0 0 0 0 0 0 0 0 0 0 0 0 0 0 0 25 0.002 
809 1 0.0060858 0.0888936 0.0224272 0 0 0 -0.0875094 -0.0355279 0.134997 -1.41119e-05 0.000804727 0.000853211 0 0 1 0 0 0 0 0 0 0 0 0 0 0 0 0 11 0.002 
996 2 0.00949476 0.0909239 0.0231763 0 0 0 0.012638 -0.106794 0.0587774 -0.00332932 -0.0022161 -0.00166851 0 1 0 0 0 0 0 0 0 0 0 0 0 0 0 0 7 0.002 
306 3 0.00301819 0.0916949 0.021684 0 0 0 0.0288022 -0.121439 0.00130265 -4.35724e-06 -0.000158311 7.74613e-06 0 0 1 0 0 0 0 0 0 0 0 0 0 0 0 0 33 0.002 
199 4 0.00315593 0.0959111 0.0219249 0 0 0 0.0665142 -0.111032 0.0219672 0 -0.000164368 0 0 0 0 0 0 0 0 0 0 0 0 0 0 0 0 0 31 0.002 
419 10 0.0114007 0.0944748 0.0234776 0 0 0 0.047651 -0.0870798 0.0533538 0.000144557 -0.000348673 0.000132713 0 0 0 0 0 0 0 0 0 1 0 0 0 0 0 0 37 0.002 
1116 4 0.00798543 0.097414 0.0214328 0 0 0 -0.0697458 -0.141315 -0.0261802 -4.32653e-06 -0.000232805 5.78285e-05 0 0 0 1 0 0 0 0 0 0 0 0 0 0 0 0 1 0.002 
463 9 0.00808521 0.101234 0.0227661 0 0 0 -0.0468455 -0.136799 0.0417037 0 -0.000164368 0 0 0 0 0 0 0 0 0 0 0 0 0 0 0 0 0 23 0.002 
1103 1 0.0142093 0.101676 0.0221744 0 0 0 0.057237 -0.215927 -0.016887 0 -0.000164368 0 0 0 0 0 0 0 0 0 0 0 0 0 0 0 0 0 1 0.002 
58 1 0.00450603 0.103774 0.0217873 0 0 0 0.00331196 0.11456 0.0598896 0 -0.000164368 0 0 0 0 0 0 0 0 0 0 0 0 0 0 0 0 0 29 0.002 
1081 4 0.0108736 0.107116 0.0229379 0 0 0 -0.000916155 -0.0343096 0.310482 0 -0.000164368 0 0 0 0 0 0 0 0 0 0 0 0 0 0 0 0 0 0 0.002 
989 4 0.0151032 0.107398 0.0235231 0 0 0 0.0738785 0.00838902 0.495186 0 -0.000164368 0 0 0 0 0 0 0 0 0 0 0 0 0 0 0 0 0 1 0.002 
521 6 0.00816346 0.0765041 0.0247006 0 0 0 0.269453 0.0371718 -0.275247 0 -0.000164368 0 0 0 0 0 0 0 0 0 0 0 0 0 0 0 0 0 16 0.002 
948 3 0.0138784 0.0763638 0.0246611 0 0 0 0.0565178 0.307592 -0.142584 0 -0.000164368 0 0 0 0 0 0 0 0 0 0 0 0 0 0 0 0 0 11 0.002 
997 6 0.0177186 0.0759455 0.0257078 0 0 0 -1.29458 0.0843277 0.225961 0 -0.000164368 0 0 0 0 0 0 0 0 0 0 0 0 0 0 0 0 0 8 0.002 
631 1 0.00729251 0.080464 0.024329 0 0 0 0.151022 0.0880159 -0.241588 0 -0.000164368 0 0 0 0 0 0 0 0 0 0 0 0 0 0 0 0 0 30 0.002 
681 6 0.0131103 0.0804177 0.025088 0 0 0 0.15203 -0.112294 -0.0534819 0.00114549 0.00317907 -0.00367984 0 0 0 0 0 1 0 0 0 0 0 0 0 0 0 0 33 0.002 
139 6 0.0160922 0.083052 0.0254559 0 0 0 0.0811767 -0.119818 0.00517952 -0.00622292 -0.0107479 -0.0173426 0 0 0 0 0 1 0 0 0 0 0 0 0 0 0 0 45 0.002 
1051 10 0.00324216 0.0854468 0.024767 0 0 0 -0.00419795 -0.155968 -0.00432609 -0.000120166 0.000195976 -6.57663e-05 0 0 0 0 0 0 0 0 0 0 0 0 0 0 0 0 2 0.002 
828 2 0.00985242 0.0864749 0.0245981 0 0 0 -0.0772244 -0.158986 0.134612 0.000734737 -0.00187397 -0.00154975 0 0 1 0 0 0 0 0 0 0 0 0 0 0 0 0 15 0.002 
674 10 0.00313616 0.0893748 0.0255131 0 0 0 0.0116184 -0.139677 0.0234901 -0.00273261 0.00343925 -0.00210909 0 0 0 0 0 0 0 0 0 1 0 0 0 0 0 0 19 0.002 