ITEM: TIMESTEP
9400000
ITEM: NUMBER OF ATOMS
16893
ITEM: BOX BOUNDS ff ff ff
-0.01 0.45
-0.15 0.15
-0.08 0.1
ITEM: ATOMS id type x y z ix iy iz vx vy vz fx fy fz c_cc_1 c_cc_2 c_cc_3 c_cc_4 c_cc_5 c_cc_6 c_cc_7 c_cc_8 c_cc_9 c_cc_10 c_cc_11 c_cc_12 c_cc_13 c_cc_14 c_cc_15 c_cc_16 f_fppacc radius c_cc_17 
2108 4 0.0107369 -0.00200018 -0.0610094 0 0 0 0.000145668 -0.0468759 0.0343544 0 -1.05196e-05 0 0 0 0 0 0 0 0 0 0 0 0 0 0 0 0 0 62 0.0008 0 
16752 12 0.0159063 -0.00991287 -0.0596374 0 0 0 0.0449763 0.00704501 -0.0299386 0 -1.05196e-05 0 0 0 0 0 0 0 0 0 0 0 0 0 0 0 0 0 1 0.0008 0 
12018 2 0.00542273 -0.00861751 -0.0581885 0 0 0 -1.49291 -4.35281 0.338373 0 -1.05196e-05 0 0 0 0 0 0 0 0 0 0 0 0 0 0 0 0 0 24 0.0008 0 
18120 3 0.0168433 -0.0171662 -0.0561903 0 0 0 0.701645 -16.0928 6.14778 0 -1.05196e-05 0 0 0 0 0 0 0 0 0 0 0 0 0 0 0 0 0 0 0.0008 0 
17424 1 0.0156323 -0.0258922 -0.055107 0 0 0 -0.000738956 -0.130251 0.0566883 0 -1.05196e-05 0 0 0 0 0 0 0 0 0 0 0 0 0 0 0 0 0 0 0.0008 0 
2533 4 0.00750665 -0.0237306 -0.053379 0 0 0 12.4787 -16.5049 9.38628 0 -1.05196e-05 0 0 0 0 0 0 0 0 0 0 0 0 0 0 0 0 0 48 0.0008 0 
12199 7 0.0172805 -0.0180022 -0.0528292 0 0 0 3.02284 -7.50263 4.41061 0 -1.05196e-05 0 0 0 0 0 0 0 0 0 0 0 0 0 0 0 0 0 29 0.0008 0 
18132 1 0.00388729 -0.0283257 -0.0516853 0 0 0 -2.61 -27.8084 15.8119 0 -1.05196e-05 0 0 0 0 0 0 0 0 0 0 0 0 0 0 0 0 0 0 0.0008 0 
12826 3 0.00351736 -0.030424 -0.0494177 0 0 0 0.976972 -18.8048 2.35861 0 -1.05196e-05 0 0 0 0 0 0 0 0 0 0 0 0 0 0 0 0 0 34 0.0008 0 
9012 3 0.0183191 -0.0148399 -0.0499155 0 0 0 0.915173 -2.56496 1.00149 0 -1.05196e-05 0 0 0 0 0 0 0 0 0 0 0 0 0 0 0 0 0 45 0.0008 0 
14061 1 0.0102378 -0.00946923 -0.0415826 0 0 0 0.841416 -2.49781 1.51416 0 -1.05196e-05 0 0 0 0 0 0 0 0 0 0 0 0 0 0 0 0 0 21 0.0008 0 
11155 7 0.00530458 -0.0328091 -0.0397568 0 0 0 0.109734 -2.68702 -0.257262 0 -1.05196e-05 0 0 0 0 0 0 0 0 0 0 0 0 0 0 0 0 0 38 0.0008 0 
6708 6 0.00657738 -0.00357768 -0.0390716 0 0 0 0.325018 -3.26678 -0.377389 0 -1.05196e-05 0 0 0 0 0 0 0 0 0 0 0 0 0 0 0 0 0 58 0.0008 0 
17887 1 0.0140075 -0.0475768 -0.0332272 0 0 0 1.32482 -5.06976 3.54348 0 -1.05196e-05 0 0 0 0 0 0 0 0 0 0 0 0 0 0 0 0 0 0 0.0008 0 
18167 12 0.00604797 -0.0497285 -0.0316482 0 0 0 -1.88132 -11.8607 20.8196 0 -1.05196e-05 0 0 0 0 0 0 0 0 0 0 0 0 0 0 0 0 0 0 0.0008 0 
6143 6 0.0184798 -0.0508165 -0.0295576 0 0 0 -3.13594 -6.80918 12.4206 0 -1.05196e-05 0 0 0 0 0 0 0 0 0 0 0 0 0 0 0 0 0 45 0.0008 0 
5728 2 0.017684 -0.0543319 -0.0279887 0 0 0 0.288166 -0.381918 0.588599 0 -1.05196e-05 0 0 0 0 0 0 0 0 0 0 0 0 0 0 0 0 0 56 0.0008 0 
10930 1 0.00734364 -0.0525396 -0.0255597 0 0 0 -0.251567 -5.24975 10.164 0 -1.05196e-05 0 0 0 0 0 0 0 0 0 0 0 0 0 0 0 0 0 36 0.0008 0 
16349 4 0.00430806 -0.0563249 -0.0228498 0 0 0 0.131534 -0.156754 0.307584 0 -1.05196e-05 0 0 0 0 0 0 0 0 0 0 0 0 0 0 0 0 0 0 0.0008 0 
14539 6 0.00305138 -0.0568929 -0.0218262 0 0 0 0.0490451 -0.108667 0.280503 1.72116e-12 -9.81477e-07 2.53061e-06 0 0 0 0 0 0 0 0 0 0 0 0 0 0 0 0 2 0.0008 0 
18171 5 0.00229206 -0.0538745 -0.0226343 0 0 0 5.62179 -18.6889 43.0067 0 -1.05196e-05 0 0 0 0 0 0 0 0 0 0 0 0 0 0 0 0 0 0 0.0008 0 
15203 3 0.00915082 -0.0577912 -0.0195076 0 0 0 0.205716 -0.0992749 0.256258 -1.0463e-17 -9.80505e-07 2.53098e-06 0 0 0 0 0 0 0 0 0 0 0 0 0 0 0 0 14 0.0008 0 
18135 4 0.00954429 -0.0552579 -0.0168066 0 0 0 1.22239 -1.71725 4.71581 0 -1.05196e-05 0 0 0 0 0 0 0 0 0 0 0 0 0 0 0 0 0 0 0.0008 0 
13923 7 0.0011932 -0.059479 -0.0134386 0 0 0 -0.122011 -0.00795263 0.042601 -2.9455e-06 -1.22895e-06 5.99322e-06 0 0 0 0 0 0 0 0 0 0 0 0 0 0 0 0 18 0.0008 0 
15381 2 0.0050085 -0.0594484 -0.0136022 0 0 0 -0.0617867 0.0198444 -0.106158 -1.46647e-17 -2.53692e-07 1.35713e-06 0 0 0 0 0 0 0 0 0 0 0 0 0 0 0 0 4 0.0008 0 
13193 11 0.00928242 -0.0595368 -0.0131298 0 0 0 0.0787814 0.0136042 -0.0727757 2.84964e-14 -2.53692e-07 1.35713e-06 0 0 0 0 0 0 0 0 0 0 0 0 0 0 0 0 27 0.0008 0 
14527 2 0.00206127 -0.0598031 -0.0117048 0 0 0 -0.0270852 0.0027832 -0.00800691 -1.62965e-06 -7.31266e-06 5.8322e-07 0 0 0 0 0 0 0 0 0 0 0 0 0 0 0 0 13 0.0008 0 
752 3 0.0144335 -0.0597594 -0.011939 0 0 0 -0.259995 0.0056144 -0.0300426 2.25759e-06 -1.19756e-06 6.48233e-06 0 0 0 0 0 0 0 0 0 0 0 0 0 0 0 0 55 0.0008 0 
14170 7 0.000800718 -0.0599843 -0.0107358 0 0 0 0.00124995 -0.0042471 0.0229889 3.53947e-07 -1.72812e-06 2.45272e-06 0 0 0 0 0 0 0 0 0 0 0 0 0 0 0 0 0 0.0008 0 
5338 2 0.00537735 -0.0600031 -0.0106349 0 0 0 -0.00262458 0.00266097 -0.0142349 4.65363e-06 5.87613e-08 -3.14345e-07 0 0 0 0 0 0 0 0 0 0 0 0 0 0 0 0 47 0.0008 0 
8467 4 0.00701626 -0.0599715 -0.0108041 0 0 0 -0.0551456 0.00614044 -0.0328484 1.25335e-14 -2.53684e-07 1.35713e-06 0 0 0 0 0 0 0 0 0 0 0 0 0 0 0 0 41 0.0008 0 
13527 2 0.0116247 -0.0600767 -0.0102415 0 0 0 0.0739781 0.00852561 -0.0456079 -2.81521e-17 -2.53692e-07 1.35713e-06 0 0 0 0 0 0 0 0 0 0 0 0 0 0 0 0 7 0.0008 0 
18020 5 0.0175492 -0.0599498 -0.0106574 0 0 0 0.105107 -0.00250973 -0.10463 0 -1.05196e-05 0 0 0 0 0 0 0 0 0 0 0 0 0 0 0 0 0 0 0.0008 0 
12757 3 0.000839223 -0.0602824 -0.00914078 0 0 0 0.00179593 0.00218664 -0.0116975 3.44613e-19 -2.53692e-07 1.35713e-06 0 0 0 0 0 0 0 0 0 0 0 0 0 0 0 0 22 0.0008 0 
15785 4 0.00837359 -0.0602283 -0.00938653 0 0 0 -0.13861 -0.00529001 0.0638332 0 -1.05196e-05 0 0 0 0 0 0 0 0 0 0 0 0 0 0 0 0 0 0 0.0008 0 
5801 6 0.0134162 -0.0602177 -0.00947779 0 0 0 0.0716986 0.0486205 -0.235607 0 -1.05196e-05 0 0 0 0 0 0 0 0 0 0 0 0 0 0 0 0 0 37 0.0008 0 
15555 3 0.00233191 -0.0601115 -0.0100551 0 0 0 0.0104072 -0.00167775 0.00889218 2.09889e-09 -8.45794e-07 1.24365e-06 0 0 0 0 0 0 0 0 0 0 0 0 0 0 0 0 0 0.0008 0 
14809 5 0.00401038 -0.0567618 -0.00952738 0 0 0 -0.62848 -1.42831 6.69544 0 -1.05196e-05 0 0 0 0 0 0 0 0 0 0 0 0 0 0 0 0 0 23 0.0008 0 
17336 10 0.00338933 -0.0603323 -0.00887401 0 0 0 -0.00275014 -0.00408846 0.0220538 -2.41458e-09 1.93001e-07 1.44239e-06 0 0 0 0 0 0 0 0 0 0 0 0 0 0 0 0 3 0.0008 0 
15828 4 0.00491678 -0.0604206 -0.00840144 0 0 0 -0.00205257 -0.00237712 0.0127164 2.34727e-19 -2.53692e-07 1.35713e-06 0 0 0 0 0 0 0 0 0 0 0 0 0 0 0 0 2 0.0008 0 
17589 11 0.00652651 -0.0603226 -0.00892599 0 0 0 -0.00182198 -0.000432626 0.00231434 1.91731e-19 -2.53692e-07 1.35713e-06 0 0 0 0 0 0 0 0 0 0 0 0 0 0 0 0 3 0.0008 0 
16369 1 0.0166071 -0.0604319 -0.00827621 0 0 0 -0.00695966 0.0141193 0.018314 0 -1.05196e-05 0 0 0 0 0 0 0 0 0 0 0 0 0 0 0 0 0 0 0.0008 0 
3129 3 0.000799802 -0.0606867 -0.00697797 0 0 0 0.0015365 -4.79496e-08 -0.00164699 -2.49763e-06 1.4358e-06 -1.58163e-06 0 0 0 0 0 0 0 0 0 0 0 0 0 0 0 0 25 0.0008 0 
7654 8 0.00209419 -0.0605079 -0.00793461 0 0 0 -0.00956386 -0.00283431 0.0151591 4.06522e-12 -2.44594e-07 1.35887e-06 0 0 0 0 0 0 0 0 0 0 0 0 0 0 0 0 64 0.0008 0 
14580 12 0.00346076 -0.0606614 -0.0071135 0 0 0 -0.000311102 0.000536014 -0.00398002 1.77457e-05 -4.77923e-07 -1.72754e-05 0 0 0 0 0 0 0 0 0 0 0 1 0 0 0 0 25 0.0008 0 
12332 2 0.00609475 -0.0606259 -0.00730316 0 0 0 0.0027955 -0.000955259 0.00460491 2.91014e-07 3.17305e-07 1.5191e-06 0 1 0 0 0 0 0 0 0 0 0 0 0 0 0 0 19 0.0008 0 
16821 3 0.0076946 -0.0606296 -0.0072836 0 0 0 0.00330994 0.00102543 -0.0050383 -8.43491e-08 -8.25128e-07 1.20203e-06 0 1 0 0 0 0 0 0 0 0 0 0 0 0 0 0 5 0.0008 0 
13645 4 0.00916115 -0.0604987 -0.00797812 0 0 0 0.0398225 -0.00747038 0.0347036 0 -1.05196e-05 0 0 0 0 0 0 0 0 0 0 0 0 0 0 0 0 0 41 0.0008 0 
6949 9 0.0139431 -0.0593934 -0.00719275 0 0 0 -0.0332324 0.11997 -0.0900945 0 -1.05196e-05 0 0 0 0 0 0 0 0 0 0 0 0 0 0 0 0 0 54 0.0008 0 
8040 3 0.00217615 -0.0608366 -0.00617662 0 0 0 0.00291571 -9.0142e-05 0.000294158 -1.32187e-06 -7.33896e-08 6.79447e-07 0 0 2 0 0 0 0 0 0 0 0 1 0 0 0 0 71 0.0008 0 
14360 4 0.00490263 -0.0608222 -0.00625337 0 0 0 -0.000704509 -0.000211417 0.00111277 7.98095e-11 -2.68487e-07 1.354e-06 0 0 0 0 0 0 0 0 0 0 0 0 0 0 0 0 20 0.0008 0 
11996 1 0.0100797 -0.0607819 -0.00646907 0 0 0 -0.0367328 -0.000540477 0.00289129 -3.29388e-18 -2.53692e-07 1.35713e-06 0 0 0 0 0 0 0 0 0 0 0 0 0 0 0 0 24 0.0008 0 
1637 5 0.0172392 -0.0607153 -0.00682506 0 0 0 -0.00241584 -0.00475684 0.0242327 -8.9618e-11 2.74568e-06 1.94317e-06 0 0 0 0 0 0 0 0 0 0 0 0 0 0 0 0 65 0.0008 0 
7649 2 0.000799742 -0.0609355 -0.0053679 0 0 0 0.00112931 0.000394859 -0.00111647 -5.08799e-06 -2.01956e-06 6.8086e-06 0 0 1 0 0 0 0 0 0 0 0 0 0 0 0 0 37 0.0008 0 
4413 6 0.00356196 -0.0609355 -0.00538391 0 0 0 0.00241794 0.000273087 0.00385563 1.34872e-06 8.676e-08 5.22647e-06 0 0 1 0 0 2 0 0 0 0 0 0 0 0 0 0 58 0.0008 0 
3837 1 0.0065776 -0.0609206 -0.00572669 0 0 0 0.000887917 -0.0021753 0.0119027 -1.15763e-08 1.05257e-07 1.42701e-06 0 0 0 0 0 0 0 0 0 0 0 0 0 0 0 0 66 0.0008 0 
4306 9 0.00817915 -0.0609115 -0.00577571 0 0 0 0.0016564 0.000205012 -0.00105733 2.78221e-08 1.91533e-06 1.75193e-06 0 0 0 0 0 0 0 0 0 0 0 0 0 0 0 0 36 0.0008 0 
4848 7 0.0112571 -0.0608858 -0.00516245 0 0 0 -0.0089597 0.0233382 0.00581815 0 -1.05196e-05 0 0 0 0 0 0 0 0 0 0 0 0 0 0 0 0 0 55 0.0008 0 
5892 2 0.0183087 -0.0609341 -0.00560121 0 0 0 0.00229803 0.000758124 0.0348661 0 -1.05196e-05 0 0 0 0 0 0 0 0 0 0 0 0 0 0 0 0 0 33 0.0008 0 
7937 2 0.00080037 -0.0609356 -0.00376738 0 0 0 3.12197e-05 -5.57355e-05 0.000461735 -3.81507e-08 -9.30803e-07 -1.19288e-07 0 0 0 0 0 0 0 0 0 0 0 0 0 0 0 0 53 0.0008 0 
10595 5 0.00218716 -0.0609357 -0.00456571 0 0 0 -0.000865548 0.000346937 8.53112e-05 -5.05463e-07 3.92935e-06 -1.39504e-06 0 0 0 0 1 1 0 0 0 0 0 0 0 0 0 0 67 0.0008 0 
9977 6 0.00358408 -0.0609356 -0.00378347 0 0 0 -0.000795756 -0.000123927 0.00111104 1.51179e-07 2.79144e-07 5.0048e-07 0 0 0 0 0 1 0 0 0 0 0 0 0 0 0 0 41 0.0008 0 
5611 3 0.00496642 -0.0609357 -0.00461814 0 0 0 0.00149127 -0.000398319 0.00547166 2.93037e-06 4.00869e-06 2.80719e-06 0 0 1 0 0 1 0 0 0 0 0 0 0 0 0 0 55 0.0008 0 
8455 4 0.00648184 -0.0609355 -0.00410532 0 0 0 -0.00214828 -0.00237742 0.0167767 6.18894e-06 -9.96036e-06 2.95872e-06 0 0 1 0 0 0 0 0 0 0 0 0 0 0 0 0 70 0.0008 0 
2611 5 0.00808028 -0.0609355 -0.00417759 0 0 0 -0.00349545 -0.001699 0.00106793 0 -1.05196e-05 0 0 0 0 0 0 0 0 0 0 0 0 0 0 0 0 0 49 0.0008 0 
255 2 0.00957904 -0.0609309 -0.00474432 0 0 0 -0.00167366 0.00413024 -0.00980631 0 -1.05196e-05 0 0 0 0 0 0 0 0 0 0 0 0 0 0 0 0 0 43 0.0008 0 
2015 2 0.0131889 -0.0608398 -0.00415928 0 0 0 0.00609935 -0.00396224 9.28883e-05 0 -1.05196e-05 0 0 0 0 0 0 0 0 0 0 0 0 0 0 0 0 0 39 0.0008 0 
15272 2 0.0148678 -0.0608088 -0.00451985 0 0 0 -0.00723946 0.00448508 0.00311397 0 -1.05196e-05 0 0 0 0 0 0 0 0 0 0 0 0 0 0 0 0 0 2 0.0008 0 
14749 4 0.016698 -0.0609346 -0.00476279 0 0 0 -0.0195218 0.0189025 0.0603809 0 -1.05196e-05 0 0 0 0 0 0 0 0 0 0 0 0 0 0 0 0 0 11 0.0008 0 
16330 3 0.0180537 -0.0609358 -0.00388861 0 0 0 0.0305411 0.000586361 0.00380182 -1.09933e-05 4.34438e-05 -7.25118e-06 0 0 0 0 0 0 0 0 0 0 0 0 0 0 0 0 7 0.0008 0 
894 6 0.00220876 -0.0609356 -0.00296593 0 0 0 -0.00245911 3.14546e-05 -0.000724764 -1.21236e-06 1.13503e-07 3.0325e-06 0 0 0 0 1 0 0 0 0 0 0 0 0 0 0 0 54 0.0008 0 
9269 5 0.00498639 -0.0609356 -0.00301311 0 0 0 0.000900893 4.86142e-05 -0.00102475 -2.92056e-07 1.84957e-07 -3.33852e-07 0 0 0 0 1 1 0 0 0 0 0 0 0 0 0 0 55 0.0008 0 
12917 2 0.0112811 -0.0607286 -0.00340695 0 0 0 -0.00999196 -0.0210716 0.00198603 -7.26007e-05 5.33153e-05 -6.34484e-05 0 1 0 0 0 0 0 0 0 0 0 0 0 0 0 0 31 0.0008 0 
10496 1 0.0160076 -0.0609356 -0.0028898 0 0 0 0.0224957 -0.00013733 0.0162084 -1.98667e-06 -6.9663e-07 6.91747e-06 1 0 0 0 0 0 0 0 0 0 0 0 0 0 0 0 35 0.0008 0 
5540 9 0.00080041 -0.0609356 -0.00216734 0 0 0 -0.000370507 -3.18933e-08 0.000126682 -2.48371e-14 5.54778e-11 2.05672e-13 0 0 0 0 0 0 0 0 0 0 0 0 0 0 0 0 77 0.0008 0 
1225 1 0.00360567 -0.0609356 -0.00217954 0 0 0 -0.000814212 5.01578e-07 -0.00145457 -1.15053e-13 -5.31347e-09 -2.06038e-13 0 0 0 0 0 0 0 0 0 0 0 0 0 0 0 0 162 0.0008 0 
11208 2 0.00638419 -0.0609356 -0.00223459 0 0 0 0.000367369 8.54394e-05 4.43531e-05 6.92149e-08 -8.80871e-07 6.03709e-08 0 0 0 0 1 0 0 0 0 0 0 0 0 0 0 0 37 0.0008 0 
10613 5 0.00794828 -0.0609356 -0.00257275 0 0 0 0.00144655 -2.75306e-05 0.00320492 -6.14098e-09 2.09354e-07 -2.39261e-10 0 0 0 0 0 0 0 0 0 0 0 0 0 0 0 0 38 0.0008 0 
12304 8 0.00985838 -0.0608658 -0.00252639 0 0 0 -0.010231 0.0118183 -0.0131664 0 -1.05196e-05 0 0 0 0 0 0 0 0 0 0 0 0 0 0 0 0 0 35 0.0008 0 
10360 1 0.0124599 -0.0609223 -0.00234338 0 0 0 -0.01046 0.0208479 -0.0108465 7.26007e-05 -7.43545e-05 6.34484e-05 0 1 0 0 0 0 0 0 0 0 0 0 0 0 0 0 51 0.0008 0 
12116 6 0.0144111 -0.0607234 -0.0026995 0 0 0 0.0108495 -0.0140927 -0.00568716 0 -1.05196e-05 0 0 0 0 0 0 0 0 0 0 0 0 0 0 0 0 0 16 0.0008 0 
7764 4 0.0185292 -0.0609341 -0.00234537 0 0 0 -0.0090208 -0.00410441 0.0289756 0 -1.05196e-05 0 0 0 0 0 0 0 0 0 0 0 0 0 0 0 0 0 49 0.0008 0 
9680 4 0.00218905 -0.0609355 -0.0013622 0 0 0 -0.000898364 4.9117e-05 -0.00231643 5.87283e-06 -7.14994e-06 -3.1153e-06 0 0 0 1 0 0 0 0 0 0 0 0 0 0 0 0 52 0.0008 0 
6408 2 0.00498749 -0.0609357 -0.00136661 0 0 0 -0.000382793 -2.53345e-05 -0.00189815 -1.16554e-07 4.0353e-06 9.76471e-07 0 0 0 0 0 0 0 0 0 0 0 0 0 0 0 0 32 0.0008 0 
6702 2 0.0073218 -0.0609356 -0.00092721 0 0 0 -0.00499333 4.77577e-07 -0.00626083 -2.39218e-11 1.23427e-09 2.04955e-12 0 0 0 0 0 0 0 0 0 0 0 0 0 0 0 0 26 0.0008 0 
4634 2 0.00890673 -0.0609356 -0.00115358 0 0 0 -0.00139969 -2.55712e-06 0.0107226 -1.08052e-09 -1.92214e-08 3.80214e-10 0 0 0 0 0 0 0 0 0 0 0 0 0 0 0 0 51 0.0008 0 
1063 5 0.01047 -0.0609356 -0.000811229 0 0 0 0.00261635 -1.00994e-06 -0.00542992 8.83863e-11 -2.16668e-09 5.57411e-11 0 0 0 0 0 0 0 0 0 0 0 0 0 0 0 0 42 0.0008 0 
12691 4 0.0136044 -0.0609356 -0.00120765 0 0 0 -0.0111369 3.81732e-06 0.00636032 -1.21047e-11 -2.91185e-08 6.70449e-12 0 0 0 0 0 0 0 0 0 0 0 0 0 0 0 0 44 0.0008 0 
14724 5 0.015359 -0.0609356 -0.00142724 0 0 0 0.000360256 0.000141606 0.00859457 2.69104e-06 -1.12598e-09 -7.54321e-06 1 0 0 0 0 0 0 0 0 0 0 0 0 0 0 0 5 0.0008 0 
9160 14 0.0170867 -0.0609358 -0.00164445 0 0 0 -0.0127891 -8.95897e-05 0.0255514 1.84837e-05 2.76764e-05 -4.80459e-06 0 0 0 0 0 0 0 0 0 0 0 0 0 0 0 0 45 0.0008 0 
1200 7 0.000800892 -0.0609357 -0.00056703 0 0 0 -0.00103522 0.000237782 0.000795002 3.39273e-06 6.88525e-06 -1.68845e-06 0 0 0 1 0 0 0 0 0 0 0 0 0 0 0 0 72 0.0008 0 
414 7 0.00218942 -0.0609356 0.000239 0 0 0 0.000285213 -1.90692e-05 -4.61972e-05 1.65348e-10 2.5387e-07 -9.10852e-11 0 0 0 0 0 0 0 0 0 0 0 0 0 0 0 0 47 0.0008 0 
3512 5 0.00358139 -0.0609356 -0.000552106 0 0 0 5.25429e-05 1.67365e-05 -0.0014407 1.2305e-09 1.20894e-07 1.41529e-09 0 0 0 0 0 0 0 0 0 0 0 0 0 0 0 0 70 0.0008 0 
553 2 0.0059553 -0.0609356 -9.27511e-05 0 0 0 -0.00108168 9.10355e-05 -1.171e-05 4.12146e-06 -3.7127e-06 5.24384e-06 0 0 0 0 0 0 0 0 0 0 0 0 0 0 0 0 45 0.0008 0 
72 4 0.00939808 -0.0609356 0.000416093 0 0 0 0.00297115 2.17856e-06 0.00133847 5.11913e-12 -1.57223e-08 -9.77193e-12 0 0 0 0 0 0 0 0 0 0 0 0 0 0 0 0 52 0.0008 0 
9715 3 0.0121992 -0.0609356 -0.000396519 0 0 0 -0.00846818 -2.35347e-12 0.0187544 1.15207e-18 1.74089e-16 -2.3958e-18 0 0 0 0 0 0 0 0 0 0 0 0 0 0 0 0 23 0.0008 0 
8603 2 0.0145268 -0.0609356 0.000103986 0 0 0 -0.00968277 8.10052e-07 0.00697983 -2.22005e-12 -1.04027e-08 1.60105e-12 0 0 0 0 0 0 0 0 0 0 0 0 0 0 0 0 37 0.0008 0 
9279 2 0.0163472 -0.0609356 -0.000157704 0 0 0 -3.1231e-05 -6.31961e-05 0.00876909 -6.53461e-07 1.30454e-08 -3.4696e-07 0 2 0 0 0 0 0 0 0 0 0 0 0 0 0 0 14 0.0008 0 
7286 3 0.0179427 -0.0609356 -0.00027615 0 0 0 0.00134975 -0.000442631 0.0275569 -2.86579e-06 8.8318e-07 1.38822e-06 0 1 1 0 0 0 0 0 0 0 0 0 0 0 0 0 30 0.0008 0 
18106 7 0.00217671 -0.0579703 -0.000314932 0 0 0 -0.361752 -0.108593 6.51816 0 -1.05196e-05 0 0 0 0 0 0 0 0 0 0 0 0 0 0 0 0 0 0 0.0008 0 
1871 2 0.000800324 -0.0609356 0.00103369 0 0 0 -0.00013802 4.03452e-06 0.000341966 -2.40106e-07 -2.45272e-07 -6.85491e-07 0 1 0 0 0 0 0 0 0 0 0 0 0 0 0 0 87 0.0008 0 
690 7 0.00317856 -0.0609356 0.00149997 0 0 0 0.000738947 -3.46881e-05 -0.000116111 -4.36788e-07 2.28425e-07 -2.53387e-06 0 0 0 0 0 0 1 0 0 0 0 0 0 0 0 0 60 0.0008 0 
101 5 0.00456898 -0.0609356 0.000707013 0 0 0 -0.000715973 -6.73509e-06 -0.000239384 -1.70276e-09 -2.80423e-08 -2.11446e-09 0 0 0 0 0 0 0 0 0 0 0 0 0 0 0 0 74 0.0008 0 
1002 3 0.00768493 -0.0609356 0.000828632 0 0 0 0.00985338 -3.20043e-11 0.000208576 -8.79196e-17 -2.03549e-13 -1.86045e-18 0 0 0 0 0 0 0 0 0 0 0 0 0 0 0 0 62 0.0008 0 
4095 1 0.012331 -0.0609356 0.0012175 0 0 0 -0.0218147 -2.71877e-06 0.0174204 1.6631e-11 3.93374e-09 -1.32811e-11 0 0 0 0 0 0 0 0 0 0 0 0 0 0 0 0 50 0.0008 0 
3983 3 0.0156241 -0.0609356 0.00126952 0 0 0 -0.00809504 8.26911e-05 0.00483597 -2.96769e-07 -8.58343e-07 2.23844e-07 0 1 0 0 0 0 0 0 0 0 0 0 0 0 0 0 24 0.0008 0 
215 2 0.0187114 -0.0609356 0.00142476 0 0 0 -0.00573882 -9.12382e-06 0.00334253 1.93695e-06 -1.40655e-06 -7.07206e-07 0 1 0 0 0 0 0 0 0 0 0 0 0 0 0 0 44 0.0008 0 
206 1 0.00178811 -0.0609356 0.00229236 0 0 0 8.30285e-05 -8.62641e-05 -0.000341103 1.65916e-06 3.16972e-07 -1.22852e-06 1 1 0 0 0 0 0 0 0 0 0 0 0 0 0 0 117 0.0008 0 
317 1 0.00457578 -0.0609356 0.00231222 0 0 0 0.00134056 7.00303e-05 0.000414736 1.66648e-08 4.65217e-07 -7.9337e-08 1 0 0 0 0 0 0 0 0 0 0 0 0 0 0 0 96 0.0008 0 
585 3 0.00598103 -0.0609356 0.00154621 0 0 0 -0.000776836 -1.1477e-08 -0.0034275 2.50416e-15 3.82044e-10 1.14323e-14 0 0 0 0 0 0 0 0 0 0 0 0 0 0 0 0 87 0.0008 0 
1470 6 0.0074407 -0.0609356 0.00241031 0 0 0 0.00259839 2.25368e-11 -0.000746639 1.7427e-17 -3.59481e-13 -4.98978e-18 0 0 0 0 0 0 0 0 0 0 0 0 0 0 0 0 94 0.0008 0 
4165 3 0.00899034 -0.0609356 0.00196358 0 0 0 0.00377205 1.95249e-06 0.00186204 1.00414e-12 2.15178e-08 2.80121e-12 0 0 0 0 0 0 0 0 0 0 0 0 0 0 0 0 31 0.0008 0 
4185 5 0.0106169 -0.0609356 0.00158427 0 0 0 -0.0254843 2.66843e-12 0.062746 -2.39595e-18 0 -9.58324e-18 0 0 0 0 0 0 0 0 0 0 0 0 0 0 0 0 64 0.0008 0 
9639 4 0.0139941 -0.0609356 0.00164197 0 0 0 0.000222704 6.3577e-08 0.00794694 3.09181e-15 1.61324e-08 1.1024e-13 0 0 0 0 0 0 0 0 0 0 0 0 0 0 0 0 36 0.0008 0 
7431 2 0.017167 -0.0609355 0.00184216 0 0 0 -0.00454101 -0.00141089 0.00913799 -1.78269e-07 -1.08598e-05 1.86381e-06 0 1 0 0 0 0 0 0 0 0 0 0 0 0 0 0 34 0.0008 0 
1972 6 0.000799904 -0.0609356 0.0035505 0 0 0 -0.000355044 0.000163288 -0.000663064 4.19051e-07 8.3417e-07 -7.0877e-07 1 0 0 0 0 1 0 0 0 0 0 0 0 0 0 0 150 0.0008 0 
280 2 0.00318311 -0.0609356 0.00309983 0 0 0 0.000603699 -7.46909e-05 3.91695e-06 1.26133e-06 -1.77712e-06 3.25841e-06 1 1 0 0 0 0 1 0 0 0 0 0 0 0 0 0 117 0.0008 0 
2069 4 0.00600666 -0.0609356 0.00315363 0 0 0 0.00346046 -3.68996e-05 -0.000955638 -8.24773e-08 4.8115e-07 -9.22842e-07 0 0 0 1 0 0 0 0 0 0 0 0 0 0 0 0 130 0.0008 0 
1920 3 0.00967491 -0.0609356 0.00341335 0 0 0 -0.00426073 -9.6028e-07 0.00766677 1.13462e-12 -9.62953e-09 -2.04465e-12 0 0 0 0 0 0 0 0 0 0 0 0 0 0 0 0 49 0.0008 0 
4938 7 0.0112597 -0.0609356 0.00315755 0 0 0 -0.00169841 0.00211037 0.00225271 -7.90216e-09 -1.40019e-05 2.54652e-08 0 0 0 0 0 0 0 0 0 0 0 0 0 0 0 0 100 0.0008 0 
1367 1 0.0128198 -0.0609356 0.00274403 0 0 0 -0.000894789 -6.34547e-05 0.00919983 -2.52128e-06 -4.56034e-06 -4.09127e-06 1 0 0 0 0 0 0 0 0 0 0 0 0 0 0 0 95 0.0008 0 
3427 4 0.015114 -0.0609356 0.0027861 0 0 0 -0.00158286 5.13625e-05 0.00715769 -2.75093e-06 2.17399e-07 -1.9632e-06 0 0 0 1 0 0 0 0 0 0 0 0 0 0 0 0 46 0.0008 0 
1887 11 0.0179989 -0.0609356 0.00320879 0 0 0 0.0126166 -0.000507581 0.00101576 -4.77701e-06 -6.64743e-06 -3.02527e-06 0 1 0 0 0 0 0 0 0 0 1 0 0 0 0 0 38 0.0008 0 
1894 5 0.00218529 -0.0609356 0.00435051 0 0 0 -0.000101592 -2.70026e-05 -0.0012007 -7.78926e-07 2.73506e-08 2.15636e-06 0 1 0 0 3 1 0 0 0 0 0 0 0 0 0 0 197 0.0008 0 
1705 8 0.00460557 -0.0609356 0.00392633 0 0 0 0.00538186 5.03199e-05 -9.62244e-05 -2.0001e-09 5.77067e-08 2.08165e-09 0 0 0 0 0 0 0 0 0 0 0 0 0 0 0 0 189 0.0008 0 
154 3 0.00779547 -0.0609356 0.00397057 0 0 0 -0.00146202 -6.34411e-07 -0.000182594 4.34258e-13 3.09211e-09 -8.13625e-12 0 0 0 0 0 0 0 0 0 0 0 0 0 0 0 0 117 0.0008 0 
1036 2 0.0123917 -0.0609356 0.00429231 0 0 0 -0.00322776 -1.59966e-07 0.00635926 1.79344e-12 1.22697e-08 5.07203e-13 0 0 0 0 0 0 0 0 0 0 0 0 0 0 0 0 46 0.0008 0 
7185 2 0.0139451 -0.0609356 0.00388121 0 0 0 0.00314828 -0.0019798 0.00659282 -1.46208e-06 8.7293e-06 -7.96472e-06 1 1 0 0 0 0 0 0 0 0 0 0 0 0 0 0 73 0.0008 0 
1366 5 0.0164512 -0.0609356 0.00366442 0 0 0 0.00195972 -9.23725e-05 0.00118381 6.72863e-07 -7.92085e-08 6.09733e-07 0 0 0 1 0 0 0 0 0 0 0 0 0 0 0 0 39 0.0008 0 
733 3 0.000800045 -0.0609356 0.00515102 0 0 0 -0.00018993 -8.23219e-06 -0.00119023 -1.9371e-06 -2.07152e-06 9.91978e-07 0 0 1 0 1 0 0 0 0 0 0 0 0 0 0 0 186 0.0008 0 
2352 2 0.00357212 -0.0609356 0.00514796 0 0 0 0.00137513 0.000120754 -0.00352642 3.48664e-06 -4.79318e-06 -1.4551e-06 0 0 0 0 1 0 0 0 0 0 0 0 0 0 0 0 169 0.0008 0 
531 10 0.00604994 -0.0609356 0.00475295 0 0 0 0.00304724 0.000199823 -0.000984169 9.44181e-07 -2.33884e-06 2.87159e-06 0 0 0 1 0 0 0 0 0 1 0 0 0 0 0 0 185 0.0008 0 
1045 8 0.00744743 -0.0609356 0.00553249 0 0 0 0.000466789 1.43054e-05 0.000344203 9.93363e-08 2.67538e-08 -2.4183e-07 0 0 0 0 0 0 0 1 0 0 0 0 0 0 0 0 128 0.0008 0 
3087 1 0.00909044 -0.0609356 0.00491074 0 0 0 -0.00788107 -8.09815e-08 0.0089319 1.78175e-13 -2.63846e-10 -2.01932e-13 0 0 0 0 0 0 0 0 0 0 0 0 0 0 0 0 125 0.0008 0 
18 2 0.010757 -0.0609358 0.00473299 0 0 0 -0.00553411 0.00124862 0.0100153 1.51823e-05 5.01084e-05 -4.28168e-05 0 1 0 0 0 0 0 0 0 0 0 0 0 0 0 0 72 0.0008 0 
4532 9 0.013523 -0.0609356 0.0054244 0 0 0 -0.00234459 -0.000489523 0.00544619 7.0257e-07 -1.57939e-06 -1.17554e-06 0 1 0 0 0 0 0 0 1 0 0 0 0 0 0 0 86 0.0008 0 
1118 3 0.0152884 -0.0609356 0.00477882 0 0 0 0.00156691 -0.000396604 0.00442362 5.47403e-08 -2.48844e-06 3.67331e-08 0 0 0 0 0 0 0 0 0 0 0 0 0 0 0 0 82 0.0008 0 
4164 1 0.0176165 -0.0609357 0.00476227 0 0 0 0.00554629 0.000615116 0.00135741 9.78818e-06 -1.97567e-06 -1.30774e-05 1 0 0 0 0 0 0 0 0 0 1 0 0 0 0 0 36 0.0008 0 
2641 8 0.000800035 -0.0607316 0.00673785 0 0 0 0.00025455 -0.000188035 -0.00106144 -2.32615e-07 -1.31494e-06 2.81176e-06 0 0 1 0 0 0 0 1 0 0 0 0 0 0 0 0 181 0.0008 0 
210 4 0.00218556 -0.060879 0.00594938 0 0 0 0.000808073 -0.000140679 -0.00141009 -2.04246e-06 -8.32102e-07 3.71262e-06 0 0 0 0 1 0 0 0 0 0 0 0 0 0 0 0 146 0.0008 0 
3869 8 0.00357425 -0.060732 0.00673583 0 0 0 -0.00207349 -0.00055834 -0.00308146 2.07024e-11 -5.21749e-07 -1.30637e-06 0 0 0 0 0 0 0 0 0 0 0 0 0 0 0 0 169 0.0008 0 
2116 2 0.00496706 -0.0608827 0.00592942 0 0 0 0.00106417 -4.98931e-06 -0.00191171 2.16899e-06 -6.83903e-06 5.61815e-06 0 1 0 0 0 0 0 0 0 1 0 0 0 0 0 0 189 0.0008 0 
6076 6 0.00637088 -0.0607388 0.0066996 0 0 0 -0.00848998 -0.00142921 -0.00758949 -4.44927e-07 -1.6193e-07 -7.03639e-07 0 0 0 0 0 0 0 1 0 0 0 0 0 0 0 0 97 0.0008 0 
12 4 0.00873591 -0.0607807 0.00647376 0 0 0 -0.00266504 -0.00202543 -0.0012001 0 -1.05196e-05 0 0 0 0 0 0 0 0 0 0 0 0 0 0 0 0 0 112 0.0008 0 
4248 10 0.0103288 -0.060819 0.00626969 0 0 0 -0.00589282 0.00129198 0.00979177 -2.99867e-06 -2.67325e-05 2.29852e-05 0 1 0 0 0 0 0 0 0 0 0 0 0 0 0 0 130 0.0008 0 
6544 1 0.0119188 -0.0608997 0.00583898 0 0 0 -0.00243306 0.00241619 0.0137338 3.81461e-08 3.52442e-06 -2.08922e-06 0 0 0 0 0 0 0 0 0 0 0 0 0 0 0 0 71 0.0008 0 
1890 2 0.0147623 -0.0607899 0.00642582 0 0 0 -0.0013639 0.000895143 0.00432731 3.27866e-07 -8.22028e-07 -1.10705e-06 0 0 0 0 0 0 0 0 1 0 0 0 0 0 0 0 77 0.0008 0 
10907 2 0.0164614 -0.0608939 0.00586796 0 0 0 0.00339129 0.00293769 0.00125709 -2.19234e-07 8.85932e-06 -2.37328e-05 1 1 0 0 0 0 0 0 0 0 0 0 0 0 0 0 45 0.0008 0 
3865 4 0.00218802 -0.060585 0.00752209 0 0 0 -0.000585521 -0.000370013 -0.00121625 9.13227e-07 5.50239e-07 -2.81439e-06 0 0 0 1 0 0 0 0 0 0 0 0 0 0 0 0 138 0.0008 0 
9441 6 0.0049749 -0.0605887 0.00750201 0 0 0 0.00129645 -0.000880939 -0.000697891 -2.0082e-06 -5.99874e-06 -3.74214e-07 0 1 0 0 0 1 0 0 0 0 0 0 0 0 0 0 93 0.0008 0 
3081 3 0.0079098 -0.060529 0.00782175 0 0 0 -0.00128461 8.43539e-05 0.00275531 2.77869e-06 -2.2063e-06 -5.24178e-06 0 0 0 0 0 0 0 0 0 0 0 0 0 0 0 0 89 0.0008 0 
1541 1 0.00990283 -0.0605347 0.00779151 0 0 0 -0.00613811 0.00188635 0.00998461 -4.50492e-11 -8.13529e-08 -1.39181e-06 0 0 0 0 0 0 0 0 0 0 0 0 0 0 0 0 76 0.0008 0 
3998 3 0.0114615 -0.0606078 0.00740021 0 0 0 -0.00104135 0.00269019 0.014381 -4.82747e-13 -2.48129e-07 -1.35832e-06 0 0 0 0 0 0 0 0 0 0 0 0 0 0 0 0 96 0.0008 0 
9210 2 0.0130645 -0.0606942 0.00693816 0 0 0 0.000184265 0.00151565 0.00682276 -8.11441e-08 -3.44937e-06 -4.10699e-07 0 0 0 0 0 0 0 0 0 0 0 0 0 0 0 0 65 0.0008 0 
6574 6 0.016045 -0.0606106 0.00738602 0 0 0 0.00510959 0.000794746 0.00338471 -5.88731e-06 1.166e-05 -3.30796e-06 0 1 0 0 0 1 0 0 0 0 0 0 0 0 0 0 69 0.0008 0 
1749 6 0.0175998 -0.0606857 0.00698342 0 0 0 0.00859126 0.000418651 0.00223963 -2.13951e-14 -2.53237e-07 -1.35722e-06 0 0 0 0 0 0 0 0 0 0 0 0 0 0 0 0 48 0.0008 0 
5113 5 0.000799937 -0.0604376 0.00831057 0 0 0 0.000238375 -0.000500332 -0.000965277 -2.60958e-06 5.64061e-07 6.15311e-07 0 0 0 0 2 0 0 1 0 0 0 0 0 0 0 0 118 0.0008 0 
1165 1 0.00357421 -0.060438 0.00830883 0 0 0 -0.000392274 -0.000512244 -0.00265292 -4.24326e-09 -1.82404e-08 -1.40675e-06 0 0 0 0 0 0 0 0 0 0 0 0 0 0 0 0 161 0.0008 0 
4050 3 0.00636817 -0.0604443 0.00827504 0 0 0 0.0040747 -0.00043521 -0.00407337 6.07136e-07 -2.14216e-06 -2.50769e-07 0 0 0 0 0 1 0 0 0 0 0 0 0 0 0 0 41 0.0008 0 
9650 1 0.0126422 -0.0604081 0.00846826 0 0 0 0.00247177 0.00212841 0.0113854 7.37274e-14 -2.54128e-07 -1.35705e-06 0 0 0 0 0 0 0 0 0 0 0 0 0 0 0 0 35 0.0008 0 
5900 8 0.0142281 -0.0604876 0.00804334 0 0 0 -0.0034294 0.0012653 0.00675187 -1.47264e-11 -3.35334e-07 -1.34137e-06 0 0 0 0 0 0 0 0 0 0 0 0 0 0 0 0 60 0.0008 0 
11656 4 0.0155776 -0.0603293 0.00888967 0 0 0 0.001868 0.000373138 0.003959 -7.84762e-06 -4.35657e-08 1.95008e-05 0 0 0 0 0 1 0 0 0 0 0 0 0 0 0 0 52 0.0008 0 
7843 6 0.0172789 -0.0603901 0.00856483 0 0 0 0.00980452 0.00179857 0.00961523 3.11943e-12 -2.38309e-07 -1.3602e-06 0 0 0 0 0 0 0 0 0 0 0 0 0 0 0 0 42 0.0008 0 
4325 3 0.00218669 -0.0602911 0.00909477 0 0 0 0.000638133 2.30998e-05 -0.00124403 -9.13754e-07 -4.03618e-07 -2.4016e-06 0 0 1 1 1 0 0 0 0 0 0 0 0 0 0 0 106 0.0008 0 
8682 5 0.00476016 -0.0602406 0.0093646 0 0 0 0.000639306 -0.000818481 -0.00383679 -1.06025e-06 5.29435e-07 -1.61828e-06 0 0 0 0 1 0 0 0 0 0 0 0 0 0 0 0 52 0.0008 0 
5875 2 0.00781617 -0.0602342 0.00939886 0 0 0 0.00437228 0.00052049 0.00172551 -1.60485e-06 5.89592e-07 -1.11696e-06 0 2 0 0 0 0 0 0 0 0 0 0 0 0 0 0 43 0.0008 0 
3877 5 0.00941225 -0.0602546 0.0092897 0 0 0 0.00455738 0.00177456 0.00969229 8.20544e-07 -7.54213e-07 -1.61901e-06 0 1 0 0 0 0 0 0 0 0 0 0 0 0 0 0 63 0.0008 0 
12874 9 0.0110573 -0.0603189 0.00894588 0 0 0 -0.00832701 0.000751659 0.0040078 -5.62488e-12 -2.61618e-07 -1.35572e-06 0 0 0 0 0 0 0 0 0 0 0 0 0 0 0 0 30 0.0008 0 
10425 1 0.000800362 -0.0601436 0.0098833 0 0 0 0.00104429 0.000179968 -0.000677986 -2.21414e-07 4.73237e-07 -1.2875e-06 1 0 0 0 1 0 0 0 0 0 0 0 0 0 0 0 57 0.0008 0 
13823 5 0.00628277 -0.0601503 0.00984757 0 0 0 0.0015254 -0.0016094 -0.00571753 -1.9014e-06 -1.87016e-06 -3.99083e-06 0 1 0 0 1 0 0 0 0 0 0 0 0 0 0 0 21 0.0008 0 
3491 3 0.0140876 -0.0601465 0.00986773 0 0 0 -0.00266808 -0.000833254 -0.00445751 5.71174e-19 -2.53692e-07 -1.35713e-06 0 0 0 0 0 0 0 0 0 0 0 0 0 0 0 0 50 0.0008 0 
2957 5 0.00752149 -0.0581265 0.00962331 0 0 0 0.0588295 1.32594 5.45652 0 -1.05196e-05 0 0 0 0 0 0 0 0 0 0 0 0 0 0 0 0 0 83 0.0008 0 
2858 2 0.00337351 -0.0600936 0.0101492 0 0 0 0.00184055 -0.00139553 -0.001807 2.07194e-06 -4.82354e-06 1.88612e-07 0 3 0 0 0 0 0 0 0 0 0 0 0 0 0 0 79 0.0008 0 
11158 7 0.00741228 -0.0599421 0.0109613 0 0 0 0.00625702 -0.00189117 -0.0112991 6.19941e-06 1.38437e-06 6.24145e-06 0 0 0 0 0 0 1 0 0 0 0 0 0 0 0 0 28 0.0008 0 
7002 9 0.0107872 -0.0599772 0.0107738 0 0 0 0.00752734 0.0050033 0.0267653 3.15499e-19 -2.53692e-07 -1.35713e-06 0 0 0 0 0 0 0 0 0 0 0 0 0 0 0 0 50 0.0008 0 
13214 1 0.0122175 -0.0601157 0.010033 0 0 0 -0.0141692 0.00236865 0.0125931 -5.71639e-11 -4.87601e-07 -1.31226e-06 0 0 0 0 0 0 0 0 0 0 0 0 0 0 0 0 9 0.0008 0 
6053 1 0.0158131 -0.0600383 0.010447 0 0 0 0.00535912 -0.000183629 -0.000979334 -6.11144e-13 -2.44498e-07 -1.35889e-06 0 0 0 0 0 0 0 0 0 0 0 0 0 0 0 0 47 0.0008 0 
6493 9 0.0175869 -0.0600911 0.0101642 0 0 0 0.00561416 0.00141781 0.00758461 9.62779e-19 -2.53692e-07 -1.35713e-06 0 0 0 0 0 0 0 0 0 0 0 0 0 0 0 0 37 0.0008 0 
7315 2 0.00114998 -0.0598568 0.011418 0 0 0 -0.00025048 -0.000111808 0.000104872 -8.96481e-07 7.70101e-07 -2.54166e-06 0 2 0 0 0 0 0 0 0 0 0 0 0 0 0 0 33 0.0008 0 
5016 1 0.00377384 -0.0598089 0.0116717 0 0 0 -0.00225001 -0.00375588 0.000145728 3.82201e-06 -1.09066e-05 7.13038e-06 0 1 0 0 0 0 0 0 0 0 0 0 0 0 0 0 49 0.0008 0 
13272 1 0.00536661 -0.0598846 0.0112691 0 0 0 -0.00155622 -0.00103724 -0.00554874 2.15492e-19 -2.53692e-07 -1.35713e-06 0 0 0 0 0 0 0 0 0 0 0 0 0 0 0 0 14 0.0008 0 
8267 8 0.00902873 -0.0599162 0.0111002 0 0 0 -0.00120202 0.00454826 0.024331 -2.08366e-19 -2.53692e-07 -1.35713e-06 0 0 0 0 0 0 0 0 0 0 0 0 0 0 0 0 45 0.0008 0 
14998 1 0.0130206 -0.0598596 0.0114027 0 0 0 0.0101227 0.000438781 0.00234582 7.54306e-13 -2.53872e-07 -1.35711e-06 0 0 0 0 0 0 0 0 0 0 0 0 0 0 0 0 3 0.0008 0 
16108 5 0.014794 -0.0598111 0.011662 0 0 0 0.00492437 -0.00167198 -0.008958 3.52877e-12 -2.94173e-07 -1.34938e-06 0 0 0 0 0 0 0 0 0 0 0 0 0 0 0 0 1 0.0008 0 
10569 8 0.0168212 -0.0598098 0.0116694 0 0 0 0.0358746 -0.00446238 -0.0238719 5.75868e-13 -2.52664e-07 -1.35734e-06 0 0 0 0 0 0 0 0 0 0 0 0 0 0 0 0 61 0.0008 0 
2953 2 0.000800739 -0.0595699 0.0129529 0 0 0 -0.000546998 0.00080709 -0.000146978 1.67398e-07 2.35803e-06 -1.83247e-06 0 0 0 0 0 0 0 0 0 0 0 0 0 0 0 0 50 0.0008 0 
15754 1 0.00232953 -0.0596581 0.0124804 0 0 0 0.00238829 -0.000476354 -0.00340347 4.77154e-06 1.05956e-06 3.47678e-06 0 1 0 0 0 0 0 0 0 0 0 0 0 0 0 0 4 0.0008 0 
5294 10 0.00544141 -0.0595443 0.0130892 0 0 0 0.00444059 0.00111317 0.00595491 3.35991e-19 -2.53692e-07 -1.35713e-06 0 0 0 0 0 0 0 0 0 0 0 0 0 0 0 0 47 0.0008 0 