ITEM: TIMESTEP
9350000
ITEM: NUMBER OF ATOMS
1147
ITEM: BOX BOUNDS ff ff ff
-0.01 0.45
-0.15 0.15
-0.08 0.1
ITEM: ATOMS id type x y z ix iy iz vx vy vz fx fy fz c_cc_1 c_cc_2 c_cc_3 c_cc_4 c_cc_5 c_cc_6 c_cc_7 c_cc_8 c_cc_9 c_cc_10 c_cc_11 c_cc_12 c_cc_13 c_cc_14 c_cc_15 c_cc_16 f_fppacc radius 
783 3 0.0109555 -0.0265113 -0.0340042 0 0 0 -7.47214 -17.124 29.0851 0 -0.000164368 0 0 0 0 0 0 0 0 0 0 0 0 0 0 0 0 0 34 0.002 
1053 9 0.0177421 -0.00231753 -0.0578039 0 0 0 -2.61354 -22.6163 0.303895 -0.130496 -0.00662584 0.303596 0 0 0 0 0 0 0 0 0 0 0 0 0 0 0 0 11 0.002 
1165 7 0.0112011 0.0152723 -0.0558302 0 0 0 6.44438 -19.8896 -4.14463 -0.183782 -0.164487 0.459671 0 0 0 0 0 0 0 0 0 0 0 0 0 0 0 0 0 0.002 
1035 4 0.00801144 0.0250833 -0.0511576 0 0 0 -0.258772 -14.6797 -1.53896 0 -0.000164368 0 0 0 0 0 0 0 0 0 0 0 0 0 0 0 0 0 4 0.002 
41 1 0.0151247 0.052857 -0.0354996 0 0 0 0.00147559 -0.0131505 0.0258861 0.00174873 0.00895237 -0.0111422 1 0 0 0 0 0 0 0 0 0 0 0 0 0 0 0 2 0.002 
621 4 0.00978613 0.0576706 -0.0304821 0 0 0 5.61242 3.14204 4.56729 0 -0.000164368 0 0 0 0 0 0 0 0 0 0 0 0 0 0 0 0 0 33 0.002 
1043 8 0.00411224 0.0740319 -0.0325696 0 0 0 -5.192 2.91698 2.70629 0 -0.000164368 0 0 0 0 0 0 0 0 0 0 0 0 0 0 0 0 0 9 0.002 
410 6 0.0162811 0.0525809 -0.0317102 0 0 0 1.62754 -1.19446 0.561438 -0.0195193 -0.0127573 -0.0290621 1 0 0 0 0 0 0 0 0 0 0 0 0 0 0 0 19 0.002 
525 1 0.00840479 0.0610735 -0.0270721 0 0 0 3.86117 -4.94496 5.53049 0 -0.000164368 0 0 0 0 0 0 0 0 0 0 0 0 0 0 0 0 0 19 0.002 
813 6 0.0159616 0.0562099 -0.0256871 0 0 0 -0.0351566 -0.619531 -0.806471 0 -0.000164368 0 0 0 0 0 0 0 0 0 0 0 0 0 0 0 0 0 20 0.002 
254 10 0.0142282 0.0570597 0.00658792 0 0 0 -1.636 9.49573 -9.59969 0 -0.000164368 0 0 0 0 0 0 0 0 0 0 0 0 0 0 0 0 0 38 0.002 
748 7 0.0105431 0.0675333 -0.0238255 0 0 0 3.51258 -0.0159231 -4.25552 0 -0.000164368 0 0 0 0 0 0 0 0 0 0 0 0 0 0 0 0 0 23 0.002 
1154 12 0.00692399 0.065628 -0.0189212 0 0 0 5.05058 3.62858 -26.1419 0 -0.000164368 0 0 0 0 0 0 0 0 0 0 0 0 0 0 0 0 0 1 0.002 
1168 1 0.010552 0.0670632 -0.0120872 0 0 0 -1.56982 9.92347 -22.347 0 -0.000164368 0 0 0 0 0 0 0 0 0 0 0 0 0 0 0 0 0 0 0.002 
321 7 0.0146451 0.0710545 -0.0105988 0 0 0 8.00232 14.1308 -26.8541 0 -0.000164368 0 0 0 0 0 0 0 0 0 0 0 0 0 0 0 0 0 19 0.002 
933 1 0.00357398 0.0703988 -0.0147795 0 0 0 3.17772 6.63372 -36.1422 0 -0.000164368 0 0 0 0 0 0 0 0 0 0 0 0 0 0 0 0 0 16 0.002 
855 7 0.0178768 0.0737459 0.00691076 0 0 0 3.36759 -1.38876 0.748794 0 -0.000164368 0 0 0 0 0 0 0 0 0 0 0 0 0 0 0 0 0 34 0.002 
1012 7 0.0103923 0.0748586 0.0330057 0 0 0 -0.0295702 0.363775 -0.0198345 9.16079e-06 0.000290965 0.000698551 0 0 0 0 0 0 2 0 0 0 0 0 0 0 0 0 18 0.002 
896 1 0.0169458 0.0698634 0.0106 0 0 0 0.769518 0.63033 -1.63208 0 -0.000164368 0 0 0 0 0 0 0 0 0 0 0 0 0 0 0 0 0 27 0.002 
591 9 0.0102292 0.0723308 0.0101162 0 0 0 -1.10908 -0.0262221 -0.96513 0 -0.000164368 0 0 0 0 0 0 0 0 0 0 0 0 0 0 0 0 0 15 0.002 
760 3 0.00329995 0.0720297 0.0147891 0 0 0 -1.91737 5.86788 0.914744 -0.116231 0.0656587 0.625557 0 0 0 0 0 0 0 0 0 0 0 0 0 0 0 0 20 0.002 
876 14 0.0168801 0.0731153 0.0169021 0 0 0 1.7783 -1.28346 0.45055 0.0483554 -0.0167685 -0.127578 0 0 0 0 0 0 0 0 0 0 0 0 0 1 0 0 12 0.002 
1051 10 0.00471479 0.067812 0.0167094 0 0 0 -0.815522 2.39326 -0.239872 -0.0266695 0.0353749 -0.025594 0 0 0 0 0 0 0 0 0 1 0 0 0 0 0 0 7 0.002 
310 2 0.0127545 0.0668599 0.0170495 0 0 0 0.351803 0.507888 -1.88442 0 -0.000164368 0 0 0 0 0 0 0 0 0 0 0 0 0 0 0 0 0 31 0.002 
214 8 0.00952352 0.0693244 0.0175451 0 0 0 0.566195 0.822662 -0.720239 0 -0.000164368 0 0 0 0 0 0 0 0 0 0 0 0 0 0 0 0 0 6 0.002 
77 12 0.00660526 0.074908 0.0177623 0 0 0 0.319999 0.330073 -0.681318 0.0185434 -0.0170233 0.0137903 0 0 0 0 0 0 0 0 0 0 0 1 0 0 0 0 36 0.002 
1073 6 0.00605538 0.0660807 0.0200177 0 0 0 -1.01725 0.944601 -1.18593 0.0266695 -0.0357037 0.025594 0 0 0 0 0 0 0 0 0 1 0 0 0 0 0 0 10 0.002 
1066 1 0.00688638 0.0729697 0.0329834 0 0 0 -0.0405025 0.239915 -0.0781247 -0.00130398 0.00127329 -0.00156953 2 0 0 0 0 0 1 0 0 0 0 0 0 0 0 0 20 0.002 
922 5 0.00298713 0.0715235 0.0197864 0 0 0 0.055549 0.181724 -0.362469 0.00608517 -0.00429292 -0.00134245 0 0 0 0 1 0 0 0 0 0 0 0 0 0 0 0 5 0.002 
963 3 0.0109892 0.0737907 0.0204955 0 0 0 0.430143 0.238526 -0.531784 -0.000830931 -0.00331947 0.00644103 0 0 1 0 0 0 0 0 0 0 0 0 0 0 0 0 17 0.002 
362 1 0.0168833 0.0735484 0.020772 0 0 0 0.558595 -0.0679395 1.14068 -0.00591068 0.0386347 0.0307959 1 0 0 0 0 0 0 0 0 0 0 0 0 1 0 0 20 0.002 
156 4 0.0122395 0.0591787 0.0207698 0 0 0 0.460549 0.0248568 -1.23347 0 -0.000164368 0 0 0 0 0 0 0 0 0 0 0 0 0 0 0 0 0 31 0.002 
996 2 0.0114713 0.06459 0.0208473 0 0 0 -0.449831 0.18856 -1.3783 0 -0.000164368 0 0 0 0 0 0 0 0 0 0 0 0 0 0 0 0 0 12 0.002 
303 3 0.0169106 0.0651281 0.02207 0 0 0 0.600755 1.42056 -1.30788 -0.0387106 0.0228569 0.0560165 0 0 1 0 0 0 0 0 0 0 0 0 0 0 0 0 28 0.002 
394 6 0.00716768 0.0690009 0.023001 0 0 0 -0.5028 0.397556 0.493515 0 -0.000164368 0 0 0 0 0 0 0 0 0 0 0 0 0 0 0 0 0 41 0.002 
73 3 0.0125974 0.0684894 0.0218942 0 0 0 -0.0480968 0.240477 -0.700549 0.0669565 0.04638 -0.0373249 0 0 1 0 0 0 0 0 0 0 0 0 0 0 0 0 35 0.002 
527 8 0.00659567 0.0725704 0.0210913 0 0 0 0.211975 0.337094 -0.51293 0.007685 -0.00707021 -0.00229436 0 0 0 0 1 0 0 1 0 0 0 0 0 0 0 0 27 0.002 
419 10 0.0140797 0.0721331 0.0231479 0 0 0 -0.36433 0.15892 -0.0803138 -0.0424447 -0.0223592 0.0967817 1 0 0 0 0 0 0 0 0 0 0 0 0 0 0 0 41 0.002 
809 1 0.0039673 0.065738 0.0256931 0 0 0 -1.1388 0.307567 0.119051 0.0208362 -0.0128317 -0.00235211 1 0 0 0 0 0 0 0 0 0 0 0 0 0 0 0 19 0.002 
828 2 0.00849253 0.0652942 0.0251857 0 0 0 -0.513399 0.599868 -0.340212 0 -0.000164368 0 0 0 0 0 0 0 0 0 0 0 0 0 0 0 0 0 18 0.002 
1044 10 0.0133155 0.0655957 0.024545 0 0 0 0.271285 0.978473 -1.38739 -0.0669565 -0.0467088 0.0373249 0 0 1 0 0 0 0 0 0 0 0 0 0 0 0 0 10 0.002 
522 2 0.00357719 0.0697145 0.0257347 0 0 0 -0.374163 -0.00244584 0.0704362 -0.0150933 -0.00469669 -0.00786547 1 3 0 0 0 0 0 0 0 0 0 0 0 0 0 0 43 0.002 
406 5 0.0156566 0.0688373 0.0248579 0 0 0 0.293546 0.188589 -1.046 0 -0.000164368 0 0 0 0 0 0 0 0 0 0 0 0 0 0 0 0 0 39 0.002 
679 5 0.00964937 0.0724228 0.023993 0 0 0 -0.0974127 0.664074 -0.191472 0.0042434 -0.00027463 -0.00796645 0 0 1 0 1 0 0 0 0 0 0 0 0 0 0 0 36 0.002 
306 3 0.00326234 0.0730402 0.0235469 0 0 0 -0.140854 -0.0719082 -0.179377 -0.000382303 0.000911028 -0.000583344 0 1 1 0 0 0 0 0 0 0 0 0 0 0 0 0 38 0.002 
574 5 0.00841587 0.0408102 0.0274352 0 0 0 1.06986 -1.4859 1.49198 0 -0.000164368 0 0 0 0 0 0 0 0 0 0 0 0 0 0 0 0 0 17 0.002 
902 3 0.0112819 0.0622996 0.0261556 0 0 0 0.132108 1.18699 -0.359737 0.0212616 0.000812784 -0.0210639 0 0 1 0 0 0 0 0 0 0 0 0 0 0 0 0 12 0.002 
584 8 0.0100945 0.0690852 0.0261769 0 0 0 -0.219891 0.688774 -0.223653 -0.0406926 -0.0417264 -0.0326664 0 0 0 0 0 0 0 1 0 0 0 0 0 0 0 0 39 0.002 
881 1 0.00637704 0.0734861 0.0260236 0 0 0 -0.14566 0.11783 -0.12822 -0.00341247 0.003101 0.00152542 0 0 0 0 1 0 0 0 0 0 0 0 0 0 0 0 24 0.002 
860 11 0.0176925 0.0564182 0.0296475 0 0 0 0.163973 -0.461565 -0.0537731 0 -0.000164368 0 0 0 0 0 0 0 0 0 0 0 0 0 0 0 0 0 22 0.002 
709 1 0.00875386 0.0625895 0.0292014 0 0 0 0.279703 -0.0338371 -0.0981831 -0.0212616 -0.00114152 0.0210639 0 0 1 0 0 0 0 0 0 0 0 0 0 0 0 0 26 0.002 
427 6 0.0034931 0.0645837 0.0296332 0 0 0 0.170076 -0.0256129 0.0712164 0 -0.000164368 0 0 0 0 0 0 0 0 0 0 0 0 0 0 0 0 0 30 0.002 
735 8 0.0182719 0.0645778 0.0293423 0 0 0 0.6618 0.0614522 -0.328889 0 -0.000164368 0 0 0 0 0 0 0 0 0 0 0 0 0 0 0 0 0 16 0.002 
378 2 0.00720455 0.0663961 0.0290474 0 0 0 0.00705092 -0.0138907 -0.136908 0 -0.000164368 0 0 0 0 0 0 0 0 0 0 0 0 0 0 0 0 0 33 0.002 
932 2 0.0141608 0.0671248 0.0283831 0 0 0 0.133435 0.186674 -0.52728 0 -0.000164368 0 0 0 0 0 0 0 0 0 0 0 0 0 0 0 0 0 15 0.002 
221 16 0.00299072 0.0686389 0.0295324 0 0 0 0.0626949 0.139269 0.170038 0.003837 0.00355357 -0.0113534 0 1 0 0 0 0 0 0 0 0 0 0 0 0 0 1 43 0.002 
510 9 0.00300251 0.0725512 0.028461 0 0 0 -0.0895839 0.185771 0.0118833 -0.00196776 0.0186393 0.00582796 0 1 0 0 0 0 0 0 0 0 0 0 0 0 0 0 59 0.002 
592 7 0.00656311 0.0704407 0.0290199 0 0 0 0.00421311 0.0302021 -0.0589491 0 -0.000164368 0 0 0 0 0 0 0 0 0 0 0 0 0 0 0 0 0 36 0.002 
465 4 0.0126639 0.0713475 0.0281475 0 0 0 0.119909 0.299965 -0.359265 0.0236639 0.0229498 0.0219982 0 0 0 1 0 0 0 1 0 0 0 0 0 0 0 0 35 0.002 
122 5 0.00925051 0.0733926 0.0293708 0 0 0 -0.0202975 0.0770978 0.195055 -0.000509819 0.000490179 0.00086796 0 0 0 0 1 0 0 0 0 0 0 0 0 0 0 0 49 0.002 
126 2 0.0147537 0.0732931 0.0325397 0 0 0 0.13089 0.64026 0.0102632 0 -0.000164368 0 0 0 0 0 0 0 0 0 0 0 0 0 0 0 0 0 22 0.002 
784 7 0.0171964 0.0728018 0.0289055 0 0 0 -0.114687 -0.158286 -0.0847085 0 -0.000164368 0 0 0 0 0 0 0 0 0 0 0 0 0 0 0 0 0 21 0.002 
452 8 0.00726857 0.0551575 0.0320619 0 0 0 0.586986 0.109657 -0.30416 0 -0.000164368 0 0 0 0 0 0 0 0 0 0 0 0 0 0 0 0 0 31 0.002 
460 2 0.00930919 0.0587821 0.032045 0 0 0 1.09413 -0.491697 -0.536751 0 -0.000164368 0 0 0 0 0 0 0 0 0 0 0 0 0 0 0 0 0 36 0.002 
360 2 0.00340054 0.0616527 0.0323966 0 0 0 0.149469 -0.0672127 -0.178174 0 -0.000164368 0 0 0 0 0 0 0 0 0 0 0 0 0 0 0 0 0 17 0.002 
928 2 0.0154138 0.0618292 0.032375 0 0 0 0.465054 -0.323464 -0.154396 0 -0.000164368 0 0 0 0 0 0 0 0 0 0 0 0 0 0 0 0 0 19 0.002 
519 1 0.00996794 0.0668652 0.0319279 0 0 0 0.0620097 0.11041 -0.0435777 0.00397952 -0.00177947 -0.00380126 1 0 0 0 0 0 0 0 0 0 0 0 0 0 0 0 29 0.002 
814 13 0.0174769 0.0677532 0.0318939 0 0 0 -0.0107336 0.225209 -0.0317594 0.00428764 -0.0086372 -0.00280197 0 0 0 0 0 0 0 0 0 0 0 0 3 0 0 0 34 0.002 
1004 3 0.0157137 0.0543722 0.0327615 0 0 0 -0.396682 -0.464737 0.0961684 -0.202178 0.0112224 0.0884768 0 0 2 0 0 0 0 0 0 0 0 0 0 0 0 0 17 0.002 
638 6 0.0136099 0.0577612 0.0325932 0 0 0 -0.201192 -0.399138 -0.0846349 0.00334766 0.00805895 0.000680288 0 0 1 0 0 0 0 0 0 0 0 0 0 0 0 0 23 0.002 
1000 4 0.0110837 0.0629729 0.03295 0 0 0 0.098103 0.464274 0.111847 0 -0.000164368 0 0 0 0 0 0 0 0 0 0 0 0 0 0 0 0 0 8 0.002 
257 6 0.00657925 0.0641029 0.0328849 0 0 0 -0.16942 -0.286367 -0.0707516 0 -0.000164368 0 0 0 0 0 0 0 0 0 0 0 0 0 0 0 0 0 27 0.002 
131 7 0.0030033 0.0666861 0.0330022 0 0 0 0.00732477 -0.099202 0.0233741 0.00152006 -0.00834443 0.00908328 0 0 0 0 0 0 0 0 0 0 0 0 0 0 0 1 42 0.002 
92 2 0.00658703 0.0686924 0.0329944 0 0 0 -0.0216283 -0.0189705 0.0707158 -0.00397952 0.00145073 0.00380126 1 0 0 0 0 0 0 0 0 0 0 0 0 0 0 0 37 0.002 
552 8 0.0137813 0.0690254 0.0325773 0 0 0 -0.183621 0.093062 -0.288248 -0.00786354 -0.00160464 -0.00129236 0 0 0 0 0 0 0 1 0 0 0 0 1 0 0 0 28 0.002 
540 4 0.00298847 0.0721785 0.0329143 0 0 0 0.00108459 -0.0893556 -0.0423172 0.00181651 -0.00189025 0.000167279 1 0 0 1 0 0 0 0 0 0 0 0 0 0 0 0 31 0.002 
1065 3 0.0102562 0.0708528 0.0327956 0 0 0 -0.0418203 0.285952 -0.19703 -0.00855395 0.00333443 0.00167078 1 0 0 0 0 0 0 1 0 0 0 0 0 0 0 0 8 0.002 
144 9 0.0180203 0.0517079 0.0309713 0 0 0 -2.00525 2.05216 -1.79146 0.210674 -0.0128425 -0.0752231 0 0 1 0 0 0 0 0 0 0 0 0 0 0 0 0 44 0.002 
1063 3 0.00397094 0.0715743 0.0111111 0 0 0 -0.998591 3.15343 1.53187 0.116231 -0.0659874 -0.625557 0 0 0 0 0 0 0 0 0 0 0 0 0 0 0 0 9 0.002 
690 2 0.0134107 0.0832178 -0.031018 0 0 0 1.73529 3.14989 3.17824 0 -0.000164368 0 0 0 0 0 0 0 0 0 0 0 0 0 0 0 0 0 15 0.002 
898 1 0.00416963 0.0936157 -0.0327325 0 0 0 0.351826 -0.424883 0.275653 0 -0.000164368 0 0 0 0 0 0 0 0 0 0 0 0 0 0 0 0 0 16 0.002 
1108 3 0.00808735 0.0994331 -0.0328431 0 0 0 -8.57542 1.91671 -0.277294 0.203462 -0.071568 0.0202147 0 0 1 0 0 0 0 0 0 0 0 0 0 0 0 0 1 0.002 
1119 4 0.00962021 0.104822 -0.0329701 0 0 0 -1.12114 0.153055 -0.309921 -0.248071 0.196669 -0.131552 0 0 0 1 0 0 0 0 0 0 0 0 0 0 0 0 1 0.002 
1158 12 0.0131982 0.103307 -0.0329244 0 0 0 -3.02643 -1.3056 1.37561 0.248071 -0.196998 0.131552 0 0 0 1 0 0 0 0 0 0 0 0 0 0 0 0 1 0.002 
167 2 0.00709654 0.107942 -0.033016 0 0 0 -0.547418 -0.251535 0.0701085 0.0118082 -6.08257e-05 0.0236172 0 0 0 0 0 0 0 0 0 0 0 0 0 0 0 0 26 0.002 
1143 7 0.0120183 0.098753 -0.0326596 0 0 0 -1.95154 8.40297 4.84353 -0.203462 0.0712392 -0.0202147 0 0 1 0 0 0 0 0 0 0 0 0 0 0 0 0 1 0.002 
176 2 0.0109288 0.103126 -0.0292668 0 0 0 0.700649 0.57187 0.96437 0 -0.000164368 0 0 0 0 0 0 0 0 0 0 0 0 0 0 0 0 0 23 0.002 
430 4 0.00338358 0.103902 -0.0298557 0 0 0 0.226175 0.499178 -0.913155 0.00066552 -0.107604 0.000181094 0 0 0 1 0 0 0 0 0 0 0 0 0 0 0 0 37 0.002 
704 9 0.0033443 0.107828 -0.0297236 0 0 0 0.262382 0.471675 0.298072 -0.00066552 0.107275 -0.000181094 0 0 0 1 0 0 0 0 0 0 0 0 0 0 0 0 21 0.002 
503 7 0.0108616 0.107959 -0.0308079 0 0 0 -1.04341 -0.245926 0.370127 0 -0.000164368 0 0 0 0 0 0 0 0 0 0 0 0 0 0 0 0 0 24 0.002 
1027 1 0.00672361 0.0878383 -0.031881 0 0 0 -2.07566 2.55923 -7.24146 0 -0.000164368 0 0 0 0 0 0 0 0 0 0 0 0 0 0 0 0 0 3 0.002 
803 4 0.00407866 0.100036 -0.0290913 0 0 0 0.867665 0.371595 -0.370782 0 -0.000164368 0 0 0 0 0 0 0 0 0 0 0 0 0 0 0 0 0 18 0.002 
1134 2 0.00706862 0.102796 -0.0281826 0 0 0 0.459015 0.468129 0.572276 0 -0.000164368 0 0 0 0 0 0 0 0 0 0 0 0 0 0 0 0 0 0 0.002 
553 7 0.016932 0.10668 -0.0261496 0 0 0 0.343795 -0.0428056 2.0704 0 -0.000164368 0 0 0 0 0 0 0 0 0 0 0 0 0 0 0 0 0 20 0.002 
1034 7 0.00343183 0.0866272 -0.0262153 0 0 0 0.0305287 -0.899152 -0.180922 0 -0.000164368 0 0 0 0 0 0 0 0 0 0 0 0 0 0 0 0 0 0 0.002 
786 1 0.010379 0.100639 -0.0257382 0 0 0 -0.428735 0.79344 2.0754 0 -0.000164368 0 0 0 0 0 0 0 0 0 0 0 0 0 0 0 0 0 28 0.002 
807 5 0.00752112 0.0783393 -0.0239413 0 0 0 0.119623 2.36353 -2.98739 0 -0.000164368 0 0 0 0 0 0 0 0 0 0 0 0 0 0 0 0 0 24 0.002 
1121 3 0.00749929 0.0855352 -0.0256674 0 0 0 -1.37409 1.8502 -3.07923 0 -0.000164368 0 0 0 0 0 0 0 0 0 0 0 0 0 0 0 0 0 0 0.002 
1161 6 0.0177413 0.103662 -0.0231049 0 0 0 0.343871 -1.38217 1.3271 0 -0.000164368 0 0 0 0 0 0 0 0 0 0 0 0 0 0 0 0 0 0 0.002 
685 7 0.0097776 0.100543 -0.0215387 0 0 0 0.469307 -1.30894 0.599079 0 -0.000164368 0 0 0 0 0 0 0 0 0 0 0 0 0 0 0 0 0 23 0.002 
887 1 0.0178213 0.106149 -0.0198518 0 0 0 1.09298 -0.0245765 0.857846 0 -0.000164368 0 0 0 0 0 0 0 0 0 0 0 0 0 0 0 0 0 7 0.002 
140 4 0.0131188 0.10251 -0.0180155 0 0 0 -1.12401 0.17993 0.216085 0 -0.000164368 0 0 0 0 0 0 0 0 0 0 0 0 0 0 0 0 0 30 0.002 
361 3 0.0178378 0.100544 -0.0170839 0 0 0 0.413611 0.885923 0.552952 0 -0.000164368 0 0 0 0 0 0 0 0 0 0 0 0 0 0 0 0 0 25 0.002 
229 6 0.00707136 0.104413 -0.0152382 0 0 0 1.73617 2.66468 1.11258 0 -0.000164368 0 0 0 0 0 0 0 0 0 0 0 0 0 0 0 0 0 39 0.002 
1146 2 0.0184323 0.105617 -0.0158684 0 0 0 -0.143419 0.430006 1.59371 0 -0.000164368 0 0 0 0 0 0 0 0 0 0 0 0 0 0 0 0 0 0 0.002 
112 6 0.00384279 0.101827 -0.0159934 0 0 0 -0.72197 2.41402 -4.0443 0 -0.000164368 0 0 0 0 0 0 0 0 0 0 0 0 0 0 0 0 0 37 0.002 
899 3 0.00895296 0.101083 -0.0129543 0 0 0 -0.92799 0.176857 0.235033 0 -0.000164368 0 0 0 0 0 0 0 0 0 0 0 0 0 0 0 0 0 10 0.002 
496 2 0.0100768 0.0962644 -0.00570009 0 0 0 1.01073 2.27103 2.14406 0 -0.000164368 0 0 0 0 0 0 0 0 0 0 0 0 0 0 0 0 0 23 0.002 
252 6 0.0167777 0.0944053 -0.00787856 0 0 0 0.399723 1.12611 -1.34441 0 -0.000164368 0 0 0 0 0 0 0 0 0 0 0 0 0 0 0 0 0 18 0.002 
369 6 0.00871601 0.100208 -0.0075207 0 0 0 1.77297 2.89287 0.723298 0 -0.000164368 0 0 0 0 0 0 0 0 0 0 0 0 0 0 0 0 0 27 0.002 
1001 4 0.0183412 0.0992761 -0.00790364 0 0 0 -0.140088 0.460402 0.898291 0 -0.000164368 0 0 0 0 0 0 0 0 0 0 0 0 0 0 0 0 0 13 0.002 
720 4 0.0132593 0.100906 -0.00765461 0 0 0 -0.048386 -0.739425 0.579813 0 -0.000164368 0 0 0 0 0 0 0 0 0 0 0 0 0 0 0 0 0 14 0.002 
541 6 0.00330388 0.10393 -0.00814301 0 0 0 0.253663 0.747554 0.294389 0 -0.000164368 0 0 0 0 0 0 0 0 0 0 0 0 0 0 0 0 0 34 0.002 
731 2 0.00811058 0.0918525 -0.00364947 0 0 0 0.0051986 1.42989 0.870961 0 -0.000164368 0 0 0 0 0 0 0 0 0 0 0 0 0 0 0 0 0 16 0.002 
883 2 0.0100611 0.102113 -0.00363778 0 0 0 0.196584 -0.0164293 1.00406 0 -0.000164368 0 0 0 0 0 0 0 0 0 0 0 0 0 0 0 0 0 15 0.002 
917 8 0.0160855 0.103006 -0.00549145 0 0 0 -0.0959559 -0.286277 0.523188 0 -0.000164368 0 0 0 0 0 0 0 0 0 0 0 0 0 0 0 0 0 15 0.002 
1136 1 0.00453505 0.107759 -0.00461769 0 0 0 0.260716 0.049446 0.213404 0 -0.000164368 0 0 0 0 0 0 0 0 0 0 0 0 0 0 0 0 0 2 0.002 
240 1 0.0163343 0.108 -0.00402566 0 0 0 -0.441194 -0.0705105 0.462411 7.53742e-05 0.00280365 -0.000138012 0 0 0 0 0 0 0 0 0 0 0 0 0 0 0 0 32 0.002 
274 4 0.00428713 0.0960253 -0.00229313 0 0 0 0.275846 -0.914712 0.668306 0 -0.000164368 0 0 0 0 0 0 0 0 0 0 0 0 0 0 0 0 0 30 0.002 
534 13 0.00657631 0.104283 -0.0020985 0 0 0 -0.497003 -0.38068 0.621509 0 -0.000164368 0 0 0 0 0 0 0 0 0 0 0 0 0 0 0 0 0 26 0.002 
923 10 0.0103453 0.106899 -0.00189238 0 0 0 -0.393703 0.202093 0.721576 0 -0.000164368 0 0 0 0 0 0 0 0 0 0 0 0 0 0 0 0 0 12 0.002 
245 1 0.0142463 0.0837751 -0.00130953 0 0 0 0.727483 0.129371 -0.833731 0 -0.000164368 0 0 0 0 0 0 0 0 0 0 0 0 0 0 0 0 0 28 0.002 
1002 1 0.00591847 0.0888068 -0.00130732 0 0 0 -0.225416 -0.0241373 -0.282817 0 -0.000164368 0 0 0 0 0 0 0 0 0 0 0 0 0 0 0 0 0 7 0.002 
997 6 0.0113189 0.0993297 -0.000965842 0 0 0 0.58823 -0.171394 0.954839 0 -0.000164368 0 0 0 0 0 0 0 0 0 0 0 0 0 0 0 0 0 8 0.002 
636 8 0.0153543 0.105094 -0.0010064 0 0 0 -0.326064 0.141121 0.700577 0 -0.000164368 0 0 0 0 0 0 0 0 0 0 0 0 0 0 0 0 0 10 0.002 
1050 1 0.0182538 0.107107 0.00120712 0 0 0 -0.623615 -0.218898 0.907348 0 -0.000164368 0 0 0 0 0 0 0 0 0 0 0 0 0 0 0 0 0 7 0.002 
337 8 0.00666791 0.088635 0.00314716 0 0 0 0.124146 0.36081 0.353267 0 -0.000164368 0 0 0 0 0 0 0 0 0 0 0 0 0 0 0 0 0 35 0.002 
425 1 0.00363238 0.0917082 0.00222544 0 0 0 -0.0121065 0.723961 -0.186703 0 -0.000164368 0 0 0 0 0 0 0 0 0 0 0 0 0 0 0 0 0 33 0.002 
753 6 0.0163533 0.102625 0.00387056 0 0 0 -0.73131 0.0198858 1.92629 0 -0.000164368 0 0 0 0 0 0 0 0 0 0 0 0 0 0 0 0 0 37 0.002 
473 3 0.00307616 0.081849 0.00292708 0 0 0 0.0280808 2.82226 -2.16098 0 -0.000164368 0 0 0 0 0 0 0 0 0 0 0 0 0 0 0 0 0 22 0.002 
1155 5 0.01389 0.0856801 0.00367229 0 0 0 0.252869 -0.100929 -0.954354 0 -0.000164368 0 0 0 0 0 0 0 0 0 0 0 0 0 0 0 0 0 0 0.002 
1159 4 0.0151573 0.1063 0.00518591 0 0 0 -1.08152 0.978646 1.09818 0 -0.000164368 0 0 0 0 0 0 0 0 0 0 0 0 0 0 0 0 0 1 0.002 
381 2 0.00853393 0.0845181 0.00550954 0 0 0 0.159726 0.765253 -0.787472 0 -0.000164368 0 0 0 0 0 0 0 0 0 0 0 0 0 0 0 0 0 31 0.002 
572 3 0.00333722 0.0908902 0.00732932 0 0 0 0.106546 0.969525 -0.0297735 0.000966276 0.0095264 -0.0066839 0 0 1 0 0 0 0 0 0 0 0 0 0 0 0 0 20 0.002 
983 5 0.00357461 0.0945889 0.00584768 0 0 0 0.038203 1.20669 -0.339903 -0.00286721 -0.00875414 0.00294597 0 0 1 0 0 0 0 0 0 0 0 0 0 0 0 0 10 0.002 
712 2 0.00555568 0.0981075 0.00579548 0 0 0 -0.684036 -0.105572 -1.07993 0 -0.000164368 0 0 0 0 0 0 0 0 0 0 0 0 0 0 0 0 0 20 0.002 
1064 5 0.0121123 0.0894113 0.0093937 0 0 0 0.891156 -1.98273 0.861671 0 -0.000164368 0 0 0 0 0 0 0 0 0 0 0 0 0 0 0 0 0 7 0.002 
631 1 0.00347906 0.0845318 0.00746999 0 0 0 -0.6188 1.53297 -0.910266 0 -0.000164368 0 0 0 0 0 0 0 0 0 0 0 0 0 0 0 0 0 33 0.002 
53 3 0.00592175 0.0888245 0.0095276 0 0 0 0.945881 1.40216 0.102358 0.00190093 -0.00126536 0.00373793 0 0 0 0 0 0 0 0 0 0 0 0 0 0 0 0 34 0.002 
762 6 0.00319358 0.0751403 -0.0269806 0 0 0 0.433626 0.360658 -3.67019 0 -0.000164368 0 0 0 0 0 0 0 0 0 0 0 0 0 0 0 0 0 30 0.002 
287 6 0.00457995 0.0779322 0.00534109 0 0 0 -0.271555 10.5405 -4.2253 0 -0.000164368 0 0 0 0 0 0 0 0 0 0 0 0 0 0 0 0 0 22 0.002 
938 2 0.00978836 0.0765031 0.0102424 0 0 0 -0.475521 0.320913 -0.453496 0 -0.000164368 0 0 0 0 0 0 0 0 0 0 0 0 0 0 0 0 0 8 0.002 
910 15 0.0143838 0.0775134 0.0118794 0 0 0 0.594533 1.71739 0.882863 0.0890035 -0.0716236 -0.0844284 0 0 0 0 0 0 0 0 0 0 0 0 0 0 1 0 15 0.002 
789 5 0.0139678 0.0824074 0.0118492 0 0 0 0.052424 0.377019 -0.630111 0 -0.000164368 0 0 0 0 0 0 0 0 0 0 0 0 0 0 0 0 0 25 0.002 
1105 7 0.00299879 0.0771137 0.0134885 0 0 0 0.118458 0.483854 -0.656011 -0.00113422 -0.0316531 -0.037266 0 0 0 0 0 0 2 0 0 0 0 0 0 0 0 0 2 0.002 
984 3 0.00657203 0.0788937 0.0134372 0 0 0 0.351897 0.317255 -0.26389 -0.0014046 -0.000612569 -0.000669612 0 0 0 0 0 0 1 0 0 0 0 0 0 0 0 0 15 0.002 
368 5 0.01117 0.0796301 0.0125841 0 0 0 -0.468051 0.781224 0.191912 -0.0890035 0.0712948 0.0844284 0 0 0 0 0 0 0 0 0 0 0 0 0 0 1 0 31 0.002 
972 3 0.00752652 0.0902357 0.0142089 0 0 0 -0.303062 0.954951 0.631594 0.0100858 0.00173795 -0.0330104 0 0 0 0 0 0 0 0 0 0 0 0 0 0 0 0 10 0.002 
1077 1 0.00304201 0.0935532 0.014081 0 0 0 0.0345908 0.361442 0.155185 0 -0.000164368 0 0 0 0 0 0 0 0 0 0 0 0 0 0 0 0 0 4 0.002 
756 2 0.0157361 0.0955918 0.0146785 0 0 0 1.06999 0.214522 0.957603 0 -0.000164368 0 0 0 0 0 0 0 0 0 0 0 0 0 0 0 0 0 21 0.002 
554 3 0.00519336 0.0979644 0.0144565 0 0 0 -0.528489 0.398593 -0.0386095 0 -0.000164368 0 0 0 0 0 0 0 0 0 0 0 0 0 0 0 0 0 8 0.002 
825 1 0.0181094 0.0987937 0.0139816 0 0 0 0.926182 -0.634372 0.456669 0 -0.000164368 0 0 0 0 0 0 0 0 0 0 0 0 0 0 0 0 0 19 0.002 
380 3 0.0112884 0.102559 0.0130255 0 0 0 -0.706834 -0.665737 0.832186 0 -0.000164368 0 0 0 0 0 0 0 0 0 0 0 0 0 0 0 0 0 18 0.002 
314 6 0.00418109 0.105533 0.0131485 0 0 0 -0.860003 0.117915 0.910544 0.0239443 0.0234704 -0.0167018 0 0 0 0 0 1 0 0 0 0 0 0 0 0 0 0 18 0.002 
719 3 0.00972049 0.0759353 0.0145701 0 0 0 -0.286608 1.54442 -1.00448 0 -0.000164368 0 0 0 0 0 0 0 0 0 0 0 0 0 0 0 0 0 16 0.002 
792 2 0.00319298 0.0806818 0.0152003 0 0 0 0.0171694 -0.0406715 0.0779987 -0.00387254 0.0349529 0.0438943 0 0 0 0 0 0 1 0 0 0 0 0 0 0 0 0 15 0.002 
904 3 0.0035249 0.0851696 0.016114 0 0 0 0.0724496 -0.0639158 -0.175572 -0.000530884 0.000210356 -0.00101709 0 0 1 0 0 0 0 0 0 0 0 0 0 0 0 0 9 0.002 
400 7 0.0087295 0.0860263 0.0157067 0 0 0 -0.0461724 0.00132167 0.0458317 0 -0.000164368 0 0 0 0 0 0 0 0 0 0 0 0 0 0 0 0 0 34 0.002 
403 8 0.0172688 0.0844887 0.0145387 0 0 0 0.146715 0.288664 -0.469196 0 -0.000164368 0 0 0 0 0 0 0 0 0 0 0 0 0 0 0 0 0 28 0.002 
888 1 0.0132836 0.087267 0.0150548 0 0 0 0.05573 0.0690465 -0.191979 0 -0.000164368 0 0 0 0 0 0 0 0 0 0 0 0 0 0 0 0 0 18 0.002 
906 5 0.0117131 0.0912645 0.0156542 0 0 0 0.873649 0.241925 0.875359 0 -0.000164368 0 0 0 0 0 0 0 0 0 0 0 0 0 0 0 0 0 19 0.002 
417 1 0.00306428 0.101958 0.0144936 0 0 0 -0.0930947 -0.0857574 -0.025169 -0.0239443 -0.0237991 0.0167018 0 0 0 0 0 1 0 0 0 0 0 0 0 0 0 0 45 0.002 
603 7 0.00648357 0.105124 0.0166885 0 0 0 -0.170033 -0.459407 0.930288 0 -0.000164368 0 0 0 0 0 0 0 0 0 0 0 0 0 0 0 0 0 19 0.002 
511 2 0.0118493 0.107529 0.0147483 0 0 0 -0.624868 -0.154827 0.433861 0 -0.000164368 0 0 0 0 0 0 0 0 0 0 0 0 0 0 0 0 0 22 0.002 
55 4 0.00326624 0.0770374 0.0174908 0 0 0 -0.0452736 -0.080706 -0.445252 -0.0185434 0.0166946 -0.0137903 0 0 0 1 0 0 0 0 0 0 0 0 0 0 0 0 21 0.002 
179 1 0.0140212 0.0761675 0.0192636 0 0 0 -0.329107 0.39982 0.828474 0 -0.000164368 0 0 0 0 0 0 0 0 0 0 0 0 0 0 0 0 0 35 0.002 
543 1 0.00971849 0.080314 0.0173612 0 0 0 -0.383657 0.227243 -0.448944 -0.000644642 0.000125374 0.00261763 1 0 0 0 0 0 0 0 0 0 0 0 0 0 0 0 29 0.002 
1026 6 0.0134156 0.0801503 0.0189084 0 0 0 -0.316673 0.742767 0.187044 0 -0.000164368 0 0 0 0 0 0 0 0 0 0 0 0 0 0 0 0 0 15 0.002 
230 6 0.00687827 0.0829363 0.0184136 0 0 0 -0.546584 0.238257 -0.184241 0.0185477 -0.0259236 -0.018116 0 0 0 0 0 1 0 0 0 0 0 0 0 0 0 0 41 0.002 
742 3 0.014115 0.0834618 0.0167763 0 0 0 -0.188419 0.484375 -0.429141 -0.00747527 -0.0114611 0.00142318 0 0 1 0 0 0 0 0 0 0 0 0 0 0 0 0 19 0.002 
118 2 0.0185495 0.082525 0.0183849 0 0 0 -0.0371979 -0.120829 -0.169314 0 -0.000164368 0 0 0 0 0 0 0 0 0 0 0 0 0 0 0 0 0 29 0.002 
1124 4 0.0166279 0.0862658 0.0180916 0 0 0 0.130257 -0.105343 -0.138761 0.00747527 0.0111324 -0.00142318 0 0 1 0 0 0 0 0 0 0 0 0 0 0 0 0 3 0.002 
1147 9 0.0113635 0.0878997 0.018537 0 0 0 0.0390914 -0.141007 -0.122297 0 -0.000164368 0 0 0 0 0 0 0 0 0 0 0 0 0 0 0 0 0 1 0.002 
730 3 0.0074981 0.0891336 0.0180269 0 0 0 0.00534547 0.0723088 0.207273 0.00524282 0.0249495 0.0174139 0 0 1 0 0 0 0 0 0 0 0 0 0 0 0 0 14 0.002 
65 2 0.00468524 0.0919954 0.0175823 0 0 0 -0.188449 -0.0903177 0.107588 0 -0.000164368 0 0 0 0 0 0 0 0 0 0 0 0 0 0 0 0 0 19 0.002 
1033 2 0.01072 0.0955933 0.0173606 0 0 0 0.422246 0.0452569 0.167615 0 -0.000164368 0 0 0 0 0 0 0 0 0 0 0 0 0 0 0 0 0 12 0.002 
505 2 0.0030552 0.0964741 0.0180337 0 0 0 0.102375 -0.0188733 -0.119837 0 -0.000164368 0 0 0 0 0 0 0 0 0 0 0 0 0 0 0 0 0 32 0.002 
16 3 0.00714534 0.0991765 0.0183578 0 0 0 0.0508543 0.130697 0.163888 0.00142231 -0.00339086 -0.00148277 0 0 1 0 0 0 0 0 0 0 0 0 0 0 0 0 39 0.002 
493 5 0.00443304 0.102096 0.0186176 0 0 0 -0.110722 -0.0299219 0.054727 0.00194888 0.00343762 -0.00223609 0 0 1 0 1 0 0 0 0 0 0 0 0 0 0 0 30 0.002 
1071 3 0.00301282 0.106347 0.0188724 0 0 0 0.0263692 0.0348928 0.0705252 0 -0.000164368 0 0 0 0 0 0 0 0 0 0 0 0 0 0 0 0 0 1 0.002 
1008 4 0.0085036 0.108006 0.0188087 0 0 0 0.190113 -0.0924535 0.275592 -0.00290196 0.0128275 -0.00574866 0 0 0 1 0 0 0 0 0 0 0 0 0 0 0 0 6 0.002 
781 2 0.0064968 0.0788081 0.0191892 0 0 0 -0.0874537 -0.00139079 0.0434014 0.00346378 -0.00196831 -0.00448437 1 1 0 0 0 0 0 0 0 0 0 0 0 0 0 0 31 0.002 
1003 7 0.0108635 0.0779042 0.0210537 0 0 0 -0.161862 0.12292 -0.0934152 -0.00372205 -0.00342658 -0.00557679 0 0 0 0 0 0 1 0 0 0 0 0 0 0 0 0 14 0.002 
397 3 0.0174926 0.0781407 0.0200486 0 0 0 -0.0449931 -0.218544 -0.154375 0 -0.000164368 0 0 0 0 0 0 0 0 0 0 0 0 0 0 0 0 0 41 0.002 
1098 3 0.00300146 0.080732 0.0194471 0 0 0 0.0288239 0.00481293 -0.0291763 -0.00281914 0.00134983 0.00186675 0 1 0 0 0 0 0 0 0 0 0 0 0 0 0 0 9 0.002 
841 3 0.0114543 0.0840356 0.0199562 0 0 0 -0.123265 -0.250508 -0.281346 0 -0.000164368 0 0 0 0 0 0 0 0 0 0 0 0 0 0 0 0 0 19 0.002 
979 4 0.00379547 0.0848208 0.0200852 0 0 0 -0.163174 -0.00490516 -0.139108 -0.0191514 0.0250249 0.0169763 0 0 1 1 0 1 0 0 0 0 0 0 0 0 0 0 15 0.002 
183 9 0.0030184 0.0891709 0.0202755 0 0 0 0.0169186 0.00400504 -0.080714 -7.56177e-06 0.00235361 -0.00222932 0 0 0 0 0 0 0 0 1 0 0 0 0 0 0 0 25 0.002 
653 9 0.0156681 0.0901396 0.0200427 0 0 0 -0.0032748 -0.279723 -0.00186764 0 -0.000164368 0 0 0 0 0 0 0 0 0 0 0 0 0 0 0 0 0 17 0.002 
299 1 0.00670241 0.0929586 0.0210505 0 0 0 0.0679485 0.0631526 0.047696 2.49979e-05 0.0103037 -0.00597527 1 0 0 0 0 0 0 0 0 0 0 0 0 0 0 0 26 0.002 
237 10 0.0176079 0.0948025 0.0204732 0 0 0 -0.0167045 0.30479 0.323068 0 -0.000164368 0 0 0 0 0 0 0 0 0 0 0 0 0 0 0 0 0 29 0.002 
703 3 0.0106699 0.0984623 0.020356 0 0 0 -0.091676 0.172515 0.0622693 0 -0.000164368 0 0 0 0 0 0 0 0 0 0 0 0 0 0 0 0 0 18 0.002 
995 2 0.0140021 0.10745 0.0209942 0 0 0 -0.014255 -0.096111 -0.132497 0 -0.000164368 0 0 0 0 0 0 0 0 0 0 0 0 0 0 0 0 0 12 0.002 
718 11 0.00300565 0.0764477 0.0214748 0 0 0 -0.0943929 0.0675825 -0.0559385 -4.68206e-05 -0.000400196 0.000589166 0 0 0 0 0 0 0 0 0 0 2 0 0 0 0 0 25 0.002 
531 1 0.00710537 0.0761732 0.0227028 0 0 0 0.217852 0.164159 0.0348401 0.00219204 0.00130164 0.00258508 2 0 0 0 0 0 0 0 0 0 0 0 0 0 0 0 47 0.002 
726 1 0.00743165 0.0801331 0.0229617 0 0 0 0.138633 0.261324 0.153634 0.00127468 -9.1252e-05 0.00364796 1 0 0 0 0 0 0 0 0 0 0 0 0 0 0 0 22 0.002 
1031 3 0.00675923 0.0840429 0.0226439 0 0 0 -0.0642825 0.349115 -0.0767942 0.00279237 -0.00299575 0.000692894 1 0 2 1 0 0 0 0 0 0 0 0 0 0 0 0 8 0.002 
1086 9 0.0149705 0.0825282 0.0219346 0 0 0 -0.118778 0.0592713 -0.30952 -0.00305523 -0.00241515 0.0018692 0 0 0 0 0 0 0 0 1 0 0 0 0 0 0 0 7 0.002 
18 3 0.0181637 0.0849283 0.021958 0 0 0 0.0399953 -0.227929 -0.0936489 0.000496985 0.0139065 -0.000602888 0 0 2 0 0 0 0 0 1 0 0 0 0 0 0 0 30 0.002 
9 6 0.00746277 0.0878724 0.0218124 0 0 0 0.145341 0.366851 -0.142191 -0.0125153 -0.0284486 0.0107577 0 0 2 0 0 1 0 0 0 0 0 0 0 0 0 0 39 0.002 
699 9 0.0140793 0.0865861 0.0216581 0 0 0 -0.0926638 -0.360907 0.00689233 0 -0.000164368 0 0 0 0 0 0 0 0 0 0 0 0 0 0 0 0 0 16 0.002 
1129 5 0.0115556 0.0907572 0.0214343 0 0 0 -0.179966 -0.236686 0.0817321 0 -0.000164368 0 0 0 0 0 0 0 0 0 0 0 0 0 0 0 0 0 3 0.002 
830 7 0.00306114 0.0942557 0.0227269 0 0 0 -0.0702917 -0.0529606 0.092358 -0.00776978 -0.0115844 0.00372959 0 0 0 0 0 0 1 0 0 0 0 0 0 0 0 0 26 0.002 
657 3 0.00991472 0.093937 0.0232363 0 0 0 -0.0151509 -0.0304082 -0.0771248 0 -0.000164368 0 0 0 0 0 0 0 0 0 0 0 0 0 0 0 0 0 19 0.002 
654 3 0.0143181 0.0939321 0.023657 0 0 0 -0.419755 0.0700852 0.387039 0.00214149 0.00366096 -0.0012513 0 0 0 0 0 0 0 0 0 0 0 0 0 0 0 0 36 0.002 
206 6 0.0053789 0.0973204 0.021676 0 0 0 -0.025739 -0.156931 0.0869308 0.00793542 0.0103156 -0.00383832 0 0 0 0 0 1 1 0 0 0 0 0 0 0 0 0 36 0.002 
669 1 0.00300213 0.100519 0.0219961 0 0 0 0.0121163 -0.127236 0.00508769 -0.00353684 0.000400194 0.00382758 0 0 0 0 1 1 0 0 0 0 0 0 0 0 0 0 40 0.002 
355 5 0.0067262 0.101984 0.022035 0 0 0 0.0598672 -0.134131 -0.00947755 0 -0.000164368 0 0 0 0 0 0 0 0 0 0 0 0 0 0 0 0 0 26 0.002 
250 5 0.013716 0.102786 0.0221465 0 0 0 0.136128 -0.0173928 -0.0825043 0 -0.000164368 0 0 0 0 0 0 0 0 0 0 0 0 0 0 0 0 0 34 0.002 
931 4 0.00300789 0.104521 0.022622 0 0 0 0.00209959 -0.053548 -0.00515109 -0.000415603 -0.000247473 -0.000654953 0 0 0 0 0 0 0 0 0 0 0 0 0 0 0 0 12 0.002 
1024 5 0.0103032 0.105919 0.02169 0 0 0 0.107641 -0.0745455 0.222714 0.00326898 -0.011641 0.00641142 0 0 0 1 0 0 0 0 0 0 0 0 0 0 0 0 2 0.002 
1116 4 0.0115523 0.0759918 0.0246366 0 0 0 0.401985 0.810646 -0.215989 0 -0.000164368 0 0 0 0 0 0 0 0 0 0 0 0 0 0 0 0 0 11 0.002 
364 3 0.0163352 0.0750953 0.0252286 0 0 0 -0.0880118 -0.0382776 0.339999 0 -0.000164368 0 0 0 0 0 0 0 0 0 0 0 0 0 0 0 0 0 27 0.002 
1082 1 0.00301478 0.0797015 0.0237929 0 0 0 -0.0269066 0.0412526 0.0855193 0.00325988 0.00511893 -0.0132384 2 0 0 0 0 0 0 0 0 0 1 0 0 0 0 0 12 0.002 
1037 5 0.0152462 0.0789171 0.0238592 0 0 0 0.105226 0.194791 0.192731 0 -0.000164368 0 0 0 0 0 0 0 0 0 0 0 0 0 0 0 0 0 18 0.002 
650 3 0.0116501 0.0809341 0.0235282 0 0 0 -0.0911711 0.120204 -0.163011 0.00493964 0.00214747 0.00529273 0 0 1 0 0 0 1 0 0 0 0 0 0 0 0 0 26 0.002 
639 9 0.00299319 0.0836862 0.0239293 0 0 0 -0.00875692 0.103618 -0.0737862 0.00441872 -0.00264124 -0.00314417 1 0 1 0 0 0 0 0 2 0 0 0 0 0 0 0 36 0.002 