ITEM: TIMESTEP
9450000
ITEM: NUMBER OF ATOMS
1158
ITEM: BOX BOUNDS ff ff ff
-0.01 0.45
-0.15 0.15
-0.08 0.1
ITEM: ATOMS id type x y z ix iy iz vx vy vz fx fy fz c_cc_1 c_cc_2 c_cc_3 c_cc_4 c_cc_5 c_cc_6 c_cc_7 c_cc_8 c_cc_9 c_cc_10 c_cc_11 c_cc_12 c_cc_13 c_cc_14 c_cc_15 c_cc_16 f_fppacc radius 
1154 12 0.00986948 -0.0536545 -0.00581435 0 0 0 -4.21237 -15.4026 35.4058 0 -0.000164368 0 0 0 0 0 0 0 0 0 0 0 0 0 0 0 0 0 1 0.002 
156 4 0.0053607 -0.0101938 -0.0502699 0 0 0 -0.547993 -2.14692 2.75786 0 -0.000164368 0 0 0 0 0 0 0 0 0 0 0 0 0 0 0 0 0 31 0.002 
1181 6 0.00625811 -0.00453348 0.0577252 0 0 0 -10.1316 48.6196 1.56705 -0.0970236 0.253552 -0.328063 0 0 0 0 0 0 0 0 0 0 0 0 0 0 0 0 0 0.002 
336 9 0.00931893 0.0156004 -0.046231 0 0 0 0.0666149 -4.26452 -10.8252 0 -0.000164368 0 0 0 0 0 0 0 0 0 0 0 0 0 0 0 0 0 34 0.002 
144 9 0.00640333 0.0326947 -0.0262641 0 0 0 0.293929 -0.863896 0.327524 0 -0.000164368 0 0 0 0 0 0 0 0 0 0 0 0 0 0 0 0 0 44 0.002 
648 5 0.00562213 0.0298988 0.0290997 0 0 0 1.08468 -1.17724 -1.78688 0 -0.000164368 0 0 0 0 0 0 0 0 0 0 0 0 0 0 0 0 0 22 0.002 
638 6 0.00504922 0.0234016 0.0310823 0 0 0 0.000373956 -3.2184 0.351996 0 -0.000164368 0 0 0 0 0 0 0 0 0 0 0 0 0 0 0 0 0 23 0.002 
538 1 0.00323377 0.0280254 0.0440718 0 0 0 0.150269 -2.04279 2.62372 0 -0.000164368 0 0 0 0 0 0 0 0 0 0 0 0 0 0 0 0 0 27 0.002 
1174 9 0.0133347 0.0286789 0.0500377 0 0 0 0.106915 15.0465 -8.51318 0 -0.000164368 0 0 0 0 0 0 0 0 0 0 0 0 0 0 0 0 0 0 0.002 
41 1 0.0151244 0.0528567 -0.0355 0 0 0 -2.22652e-308 -2.03637e-20 1.11885e-12 -1.24137e-306 -1.35525e-20 0 0 0 0 0 0 0 0 0 0 0 0 0 0 0 0 0 2 0.002 
547 4 0.01627 0.0677294 -0.0274625 0 0 0 0.710858 -2.51222 2.48286 0 -0.000164368 0 0 0 0 0 0 0 0 0 0 0 0 0 0 0 0 0 46 0.002 
896 1 0.00966741 0.0708565 -0.017069 0 0 0 0.147257 -0.178723 0.398141 0 -0.000164368 0 0 0 0 0 0 0 0 0 0 0 0 0 0 0 0 0 27 0.002 
1134 2 0.0174296 0.0731721 -0.0152678 0 0 0 0.476807 -1.45374 -0.160218 0 -0.000164368 0 0 0 0 0 0 0 0 0 0 0 0 0 0 0 0 0 0 0.002 
536 2 0.0148453 0.0605791 0.00622628 0 0 0 0.343177 -0.542027 -0.271941 0 -0.000164368 0 0 0 0 0 0 0 0 0 0 0 0 0 0 0 0 0 28 0.002 
760 3 0.00328781 0.0550898 -0.00946109 0 0 0 -0.154657 -2.434 1.20637 0 -0.000164368 0 0 0 0 0 0 0 0 0 0 0 0 0 0 0 0 0 20 0.002 
283 10 0.012464 0.0650813 -0.00872364 0 0 0 2.68048 -0.0454776 2.3571 0 -0.000164368 0 0 0 0 0 0 0 0 0 0 0 0 0 0 0 0 0 20 0.002 
709 1 0.0157172 0.0421727 -0.00823638 0 0 0 1.03143 -0.909355 -2.52826 0 -0.000164368 0 0 0 0 0 0 0 0 0 0 0 0 0 0 0 0 0 26 0.002 
1179 1 0.0139089 0.0491963 -0.0213967 0 0 0 -8.97749 -2.53337 -29.0687 0 -0.000164368 0 0 0 0 0 0 0 0 0 0 0 0 0 0 0 0 0 0 0.002 
1117 1 0.0104692 0.0493918 -0.00486487 0 0 0 0.106788 -1.50893 1.12097 0 -0.000164368 0 0 0 0 0 0 0 0 0 0 0 0 0 0 0 0 0 0 0.002 
214 8 0.00436502 0.0673079 -0.00456299 0 0 0 -0.537225 -2.03143 0.132236 0 -0.000164368 0 0 0 0 0 0 0 0 0 0 0 0 0 0 0 0 0 6 0.002 
865 7 0.00879166 0.0703232 -0.00443664 0 0 0 1.91367 -0.176284 -3.20894 0 -0.000164368 0 0 0 0 0 0 0 0 0 0 0 0 0 0 0 0 0 7 0.002 
740 1 0.00662952 0.0740406 -0.00391328 0 0 0 1.26999 -0.157121 -2.23419 0 -0.000164368 0 0 0 0 0 0 0 0 0 0 0 0 0 0 0 0 0 23 0.002 
1084 2 0.00869399 0.0643978 -0.00100464 0 0 0 1.75233 1.56868 -3.64955 0 -0.000164368 0 0 0 0 0 0 0 0 0 0 0 0 0 0 0 0 0 1 0.002 
173 3 0.0168384 0.0610423 0.0131028 0 0 0 -3.71424 2.1529 -1.57832 0 -0.000164368 0 0 0 0 0 0 0 0 0 0 0 0 0 0 0 0 0 17 0.002 
394 6 0.00396468 0.067078 0.0138321 0 0 0 0.0167576 -0.562362 -0.22196 0 -0.000164368 0 0 0 0 0 0 0 0 0 0 0 0 0 0 0 0 0 41 0.002 
1003 7 0.0106616 0.0696384 0.0157573 0 0 0 0.337577 -0.516605 -0.549135 0 -0.000164368 0 0 0 0 0 0 0 0 0 0 0 0 0 0 0 0 0 14 0.002 
362 1 0.00443794 0.0603145 0.0180679 0 0 0 -1.12128 0.263666 -0.789385 0 -0.000164368 0 0 0 0 0 0 0 0 0 0 0 0 0 0 0 0 0 20 0.002 
941 3 0.0180311 0.066085 0.0172071 0 0 0 0.0740389 -0.588279 -0.362959 0 -0.000164368 0 0 0 0 0 0 0 0 0 0 0 0 0 0 0 0 0 19 0.002 
460 2 0.015468 0.0690972 0.0179517 0 0 0 0.18998 -0.410688 -0.58592 0 -0.000164368 0 0 0 0 0 0 0 0 0 0 0 0 0 0 0 0 0 36 0.002 
531 1 0.00501387 0.0722323 0.0175057 0 0 0 0.129521 0.0333091 -0.112457 0 -0.000164368 0 0 0 0 0 0 0 0 0 0 0 0 0 0 0 0 0 47 0.002 
828 2 0.00422572 0.0635224 0.0205127 0 0 0 0.0612399 -0.675998 0.0786103 0 -0.000164368 0 0 0 0 0 0 0 0 0 0 0 0 0 0 0 0 0 18 0.002 
724 1 0.0143523 0.064837 0.019507 0 0 0 -0.216076 -0.269563 -0.625201 0 -0.000164368 0 0 0 0 0 0 0 0 0 0 0 0 0 0 0 0 0 24 0.002 
221 16 0.00532689 0.0687719 0.0207535 0 0 0 0.28897 -0.265816 -0.32504 0 -0.000164368 0 0 0 0 0 0 0 0 0 0 0 0 0 0 0 0 0 43 0.002 
798 4 0.0184996 0.0724925 0.0199174 0 0 0 -0.327724 -0.450164 -0.464939 0 -0.000164368 0 0 0 0 0 0 0 0 0 0 0 0 0 0 0 0 0 19 0.002 
1004 3 0.0115917 0.0416007 0.0212989 0 0 0 0.132062 -1.15008 -0.655417 0 -0.000164368 0 0 0 0 0 0 0 0 0 0 0 0 0 0 0 0 0 17 0.002 
1059 3 0.0123178 0.0515852 0.0222723 0 0 0 -0.704959 1.31181 -1.23664 0 -0.000164368 0 0 0 0 0 0 0 0 0 0 0 0 0 0 0 0 0 11 0.002 
378 2 0.00530664 0.0532729 0.0212808 0 0 0 0.831801 -0.73459 -0.124965 0 -0.000164368 0 0 0 0 0 0 0 0 0 0 0 0 0 0 0 0 0 33 0.002 
131 7 0.00525525 0.0590012 0.0228339 0 0 0 0.558396 -0.151599 0.0704139 0 -0.000164368 0 0 0 0 0 0 0 0 0 0 0 0 0 0 0 0 0 42 0.002 
439 1 0.0114098 0.0589519 0.0225158 0 0 0 -0.796771 -0.23487 -0.872591 0 -0.000164368 0 0 0 0 0 0 0 0 0 0 0 0 0 0 0 0 0 26 0.002 
966 3 0.0161983 0.0614769 0.0233666 0 0 0 -0.505811 -0.823806 -0.13988 0.0011994 0.0126394 -0.00697311 0 0 1 0 0 0 0 0 0 0 0 0 0 0 0 0 16 0.002 
317 11 0.0170427 0.067949 0.0215179 0 0 0 -0.203101 -0.095946 -0.125922 0 -0.000164368 0 0 0 0 0 0 0 0 0 0 0 0 0 0 0 0 0 28 0.002 
1116 4 0.0124867 0.0719937 0.0210909 0 0 0 -0.0333366 -0.112248 -0.538111 0 -0.000164368 0 0 0 0 0 0 0 0 0 0 0 0 0 0 0 0 0 12 0.002 
881 1 0.00768418 0.0736453 0.0219067 0 0 0 -0.377372 -0.90108 0.452121 0 -0.000164368 0 0 0 0 0 0 0 0 0 0 0 0 0 0 0 0 0 24 0.002 
364 3 0.0138513 0.0665612 0.0248755 0 0 0 -0.382425 -0.0337491 -0.176636 0 -0.000164368 0 0 0 0 0 0 0 0 0 0 0 0 0 0 0 0 0 28 0.002 
1037 5 0.0155963 0.0718445 0.0241054 0 0 0 -0.12525 0.31777 -0.0528471 0 -0.000164368 0 0 0 0 0 0 0 0 0 0 0 0 0 0 0 0 0 18 0.002 
522 2 0.00323846 0.0730996 0.0243385 0 0 0 0.0379574 -0.280381 -0.0189604 0 -0.000164368 0 0 0 0 0 0 0 0 0 0 0 0 0 0 0 0 0 43 0.002 
836 4 0.0057569 0.0419393 0.0278497 0 0 0 -1.06976 -0.635097 -0.229371 0 -0.000164368 0 0 0 0 0 0 0 0 0 0 0 0 0 0 0 0 0 27 0.002 
207 2 0.0124653 0.0481621 0.0273575 0 0 0 0.0281005 -0.450293 -0.403119 0 -0.000164368 0 0 0 0 0 0 0 0 0 0 0 0 0 0 0 0 0 33 0.002 
735 8 0.0109647 0.0518907 0.0274627 0 0 0 -0.531724 -0.548511 0.000471361 0 -0.000164368 0 0 0 0 0 0 0 0 0 0 0 0 0 0 0 0 0 16 0.002 
928 2 0.00303196 0.0612186 0.028184 0 0 0 0.0409104 0.600614 0.737611 0 -0.000164368 0 0 0 0 0 0 0 0 0 0 0 0 0 0 0 0 0 19 0.002 
1013 8 0.0145982 0.0590241 0.0260838 0 0 0 -1.06665 -0.313622 -0.4629 -0.0011994 -0.0129681 0.00697311 0 0 1 0 0 0 0 0 0 0 0 0 0 0 0 0 16 0.002 
584 8 0.00533268 0.0645739 0.026593 0 0 0 -0.280367 1.10456 -0.291366 0 -0.000164368 0 0 0 0 0 0 0 0 0 0 0 0 0 0 0 0 0 40 0.002 
419 10 0.00967713 0.0648872 0.0268053 0 0 0 0.372582 0.22954 0.0874428 0 -0.000164368 0 0 0 0 0 0 0 0 0 0 0 0 0 0 0 0 0 42 0.002 
592 7 0.00684144 0.0683622 0.0277869 0 0 0 0.119268 -0.203649 -0.261415 0 -0.000164368 0 0 0 0 0 0 0 0 0 0 0 0 0 0 0 0 0 37 0.002 
122 5 0.0111924 0.0701343 0.0267597 0 0 0 -0.0910144 0.0395475 -0.23625 0 -0.000164368 0 0 0 0 0 0 0 0 0 0 0 0 0 0 0 0 0 49 0.002 
886 5 0.0185223 0.0713364 0.0268275 0 0 0 -0.113169 -0.0127839 -0.0700834 0 -0.000164368 0 0 0 0 0 0 0 0 0 0 0 0 0 0 0 0 0 18 0.002 
555 5 0.0160623 0.0518959 0.028065 0 0 0 -0.149936 -0.605665 -0.091251 0 -0.000164368 0 0 0 0 0 0 0 0 0 0 0 0 0 0 0 0 0 32 0.002 
690 2 0.00449756 0.0565996 0.0291487 0 0 0 -1.6395 -0.267603 0.226664 0 -0.000164368 0 0 0 0 0 0 0 0 0 0 0 0 0 0 0 0 0 15 0.002 
397 3 0.00943402 0.0602818 0.0292818 0 0 0 -0.505849 -0.412326 0.378686 0 -0.000164368 0 0 0 0 0 0 0 0 0 0 0 0 0 0 0 0 0 41 0.002 
784 7 0.0133252 0.0618916 0.0291166 0 0 0 -0.430001 -0.346882 0.0653645 0 -0.000164368 0 0 0 0 0 0 0 0 0 0 0 0 0 0 0 0 0 21 0.002 
1022 1 0.0174431 0.0629768 0.0299268 0 0 0 -0.27099 -0.163412 -0.195993 0 -0.000164368 0 0 0 0 0 0 0 0 0 0 0 0 0 0 0 0 0 15 0.002 
465 4 0.0128249 0.0669415 0.0301409 0 0 0 -0.0624851 -0.140421 -0.127018 0.000520717 -0.00150675 -0.000725377 0 0 0 1 0 0 0 0 0 0 0 0 0 0 0 0 36 0.002 
842 11 0.0173926 0.0669156 0.0290207 0 0 0 -0.213966 -0.108239 -0.0362715 0 -0.000164368 0 0 0 0 0 0 0 0 0 0 0 0 0 0 0 0 0 28 0.002 
510 9 0.00301839 0.0714514 0.0292035 0 0 0 -0.0151723 -0.127897 -0.00240293 0 -0.000164368 0 0 0 0 0 0 0 0 0 0 0 0 0 0 0 0 0 59 0.002 
300 1 0.0153466 0.0705819 0.0291776 0 0 0 -0.137387 -0.0208452 -0.10938 0.00445346 -0.00490324 0.00352603 1 0 0 0 0 0 0 0 0 0 0 0 0 0 0 0 32 0.002 
713 7 0.00719301 0.0731863 0.0292872 0 0 0 0.0706048 -0.0791094 -0.0509762 0 -0.000164368 0 0 0 0 0 0 0 0 0 0 0 0 0 0 0 0 0 26 0.002 
490 2 0.0123623 0.0732259 0.0290122 0 0 0 -0.13931 -0.0738746 -0.104224 -0.00558705 0.00172675 -0.00320658 1 1 0 0 0 0 0 0 0 0 0 0 0 0 0 0 50 0.002 
902 3 0.00357578 0.0419575 0.0319789 0 0 0 0.474319 -4.61998 -0.997147 0 -0.000164368 0 0 0 0 0 0 0 0 0 0 0 0 0 0 0 0 0 12 0.002 
1000 4 0.0109567 0.0530219 0.0320075 0 0 0 0.271376 -0.851628 -0.792594 0 -0.000164368 0 0 0 0 0 0 0 0 0 0 0 0 0 0 0 0 0 8 0.002 
590 2 0.0126996 0.0580828 0.0313434 0 0 0 -0.152139 -0.417766 0.176872 0 -0.000164368 0 0 0 0 0 0 0 0 0 0 0 0 0 0 0 0 0 35 0.002 
519 1 0.00644142 0.0612898 0.0330574 0 0 0 -0.138646 -0.317863 0.311027 0.0567775 -0.119282 -0.263914 0 0 0 0 0 0 0 0 0 0 0 0 0 0 0 0 30 0.002 
92 2 0.00631854 0.0651451 0.0307188 0 0 0 -0.11575 0.210419 -0.484781 0 -0.000164368 0 0 0 0 0 0 0 0 0 0 0 0 0 0 0 0 0 37 0.002 
540 4 0.00307278 0.0686518 0.0321281 0 0 0 -0.046774 -0.156832 -0.00652985 0 -0.000164368 0 0 0 0 0 0 0 0 0 0 0 0 0 0 0 0 0 31 0.002 
128 4 0.0146448 0.054704 0.0326508 0 0 0 0.294659 -0.439344 0.0533826 0 -0.000164368 0 0 0 0 0 0 0 0 0 0 0 0 0 0 0 0 0 31 0.002 
257 6 0.00298214 0.0585602 0.0327986 0 0 0 0.526599 0.0978326 0.175138 -0.0244229 -0.000612566 0.000147515 0 0 0 0 0 0 0 0 0 0 0 0 0 0 0 0 27 0.002 
932 2 0.00664757 0.0565146 0.0327546 0 0 0 -0.322543 -1.14327 0.988052 0 -0.000164368 0 0 0 0 0 0 0 0 0 0 0 0 0 0 0 0 0 15 0.002 
727 2 0.0171908 0.0595179 0.0327309 0 0 0 -0.178109 -0.245773 -0.0684632 0 -0.000164368 0 0 0 0 0 0 0 0 0 0 0 0 0 0 0 0 0 25 0.002 
552 8 0.0106789 0.0638485 0.0328988 0 0 0 -0.106811 -0.274956 -0.024218 0 -0.000164368 0 0 0 0 0 0 0 0 0 0 0 0 0 0 0 0 0 29 0.002 
814 13 0.0146989 0.0634796 0.0329561 0 0 0 -0.139605 -0.124575 -0.0271804 0 -0.000164368 0 0 0 0 0 0 0 0 0 0 0 0 0 0 0 0 0 35 0.002 
1065 3 0.00938113 0.0678309 0.0327603 0 0 0 -0.0846758 -0.216409 -0.00858124 0 -0.000164368 0 0 0 0 0 0 0 0 0 0 0 0 0 0 0 0 0 9 0.002 
1094 10 0.018657 0.0662952 0.0328535 0 0 0 -0.159422 -0.156133 -0.0328566 0 -0.000164368 0 0 0 0 0 0 0 0 0 0 0 0 0 0 0 0 0 9 0.002 
126 2 0.0129987 0.0697895 0.0329371 0 0 0 -0.109089 -0.216815 -0.0273778 -0.000520717 0.00117802 0.000725377 0 0 0 1 0 0 0 0 0 0 0 0 0 0 0 0 23 0.002 
1066 1 0.0065454 0.0706541 0.0329068 0 0 0 0.0161593 -0.189743 -0.0338262 0 -0.000164368 0 0 0 0 0 0 0 0 0 0 0 0 0 0 0 0 0 20 0.002 
1012 7 0.0101077 0.0725799 0.0329264 0 0 0 -0.1564 -0.15603 -0.00731191 0.000889106 0.000218463 -0.000114962 0 0 0 0 0 0 1 0 0 0 0 0 0 0 0 0 20 0.002 
102 1 0.0171783 0.0704058 0.0327705 0 0 0 -0.420438 0.10053 0.17055 0 -0.000164368 0 0 0 0 0 0 0 0 0 0 0 0 0 0 0 0 0 33 0.002 
796 15 0.00303067 0.0727161 0.032999 0 0 0 0.00648297 -0.137841 -0.00880822 0 -0.000164368 0 0 0 0 0 0 0 0 0 0 0 0 0 0 0 0 0 30 0.002 
961 1 0.00653989 0.0747933 0.0329494 0 0 0 0.0131709 -0.146763 -0.00500661 0 -0.000164368 0 0 0 0 0 0 0 0 0 0 0 0 0 0 0 0 0 8 0.002 
471 5 0.0139229 0.0737668 0.0329896 0 0 0 -0.0417209 -0.294857 0.007468 -5.68197e-05 9.67286e-05 0.000130404 0 0 0 0 1 0 1 0 0 0 0 0 0 0 0 0 36 0.002 
741 5 0.0176698 0.0403291 0.0413716 0 0 0 -0.0429087 7.21415 -6.07788 0 -0.000164368 0 0 0 0 0 0 0 0 0 0 0 0 0 0 0 0 0 18 0.002 
495 8 0.0158026 0.0545732 0.0102182 0 0 0 0.248095 -2.86762 0.659458 0 -0.000164368 0 0 0 0 0 0 0 0 0 0 0 0 0 0 0 0 0 30 0.002 
897 3 0.0187406 0.0534628 0.03276 0 0 0 -0.0683478 -0.405574 -0.0270851 0 -0.000164368 0 0 0 0 0 0 0 0 0 0 0 0 0 0 0 0 0 20 0.002 
1076 2 0.0150619 0.0803273 -0.032907 0 0 0 -2.6413 -3.21931 0.814064 0 -0.000164368 0 0 0 0 0 0 0 0 0 0 0 0 0 0 0 0 0 6 0.002 
898 1 0.00404596 0.0960379 -0.03169 0 0 0 0.0952838 -0.308881 0.0978009 0 -0.000164368 0 0 0 0 0 0 0 0 0 0 0 0 0 0 0 0 0 16 0.002 
430 4 0.00453843 0.100399 -0.0329437 0 0 0 0.0472066 -0.212977 0.0423053 0 -0.000164368 0 0 0 0 0 0 0 0 0 0 0 0 0 0 0 0 0 37 0.002 
974 2 0.00783374 0.0886962 -0.0293011 0 0 0 0.0101054 2.65362 0.924386 -0.402889 2.2237 0.611277 0 1 0 0 0 0 0 0 0 0 0 0 0 0 0 0 17 0.002 
167 2 0.00422252 0.107458 -0.0313598 0 0 0 0.0681433 -0.103246 0.0908542 0 -0.000164368 0 0 0 0 0 0 0 0 0 0 0 0 0 0 0 0 0 26 0.002 
716 5 0.0160445 0.106914 -0.0319033 0 0 0 -0.0849349 -2.33305 -1.48994 0 -0.000164368 0 0 0 0 0 0 0 0 0 0 0 0 0 0 0 0 0 14 0.002 
1119 4 0.00709864 0.106532 -0.0273717 0 0 0 0.00101725 -0.173095 0.134133 0 -0.000164368 0 0 0 0 0 0 0 0 0 0 0 0 0 0 0 0 0 1 0.002 
323 7 0.008379 0.0852167 -0.03009 0 0 0 16.1111 11.3227 15.5405 0.402889 -2.22403 -0.611277 0 1 0 0 0 0 0 0 0 0 0 0 0 0 0 0 44 0.002 
938 2 0.0098299 0.0806356 -0.0247111 0 0 0 0.478142 -0.920256 0.621014 0 -0.000164368 0 0 0 0 0 0 0 0 0 0 0 0 0 0 0 0 0 8 0.002 
1035 4 0.0155321 0.086572 -0.0253433 0 0 0 1.63428 0.298712 1.83757 0 -0.000164368 0 0 0 0 0 0 0 0 0 0 0 0 0 0 0 0 0 4 0.002 
704 9 0.00347444 0.107801 -0.0256554 0 0 0 0.242093 -0.0631663 -0.0359606 0 -0.000164368 0 0 0 0 0 0 0 0 0 0 0 0 0 0 0 0 0 23 0.002 
303 3 0.00898729 0.101749 -0.0241912 0 0 0 -0.440756 -0.781362 0.333239 0 -0.000164368 0 0 0 0 0 0 0 0 0 0 0 0 0 0 0 0 0 29 0.002 
321 7 0.00734004 0.0893236 -0.0208415 0 0 0 -1.0337 0.877583 2.31763 0 -0.000164368 0 0 0 0 0 0 0 0 0 0 0 0 0 0 0 0 0 20 0.002 
860 11 0.00920953 0.0810784 -0.0192985 0 0 0 0.312656 1.17831 -0.473807 0 -0.000164368 0 0 0 0 0 0 0 0 0 0 0 0 0 0 0 0 0 22 0.002 
1142 2 0.0120107 0.0925078 -0.0193051 0 0 0 0.038735 -1.25028 0.766313 0 -0.000164368 0 0 0 0 0 0 0 0 0 0 0 0 0 0 0 0 0 2 0.002 
1108 3 0.0162719 0.105962 -0.0191075 0 0 0 0.447841 -0.224528 0.263963 0 -0.000164368 0 0 0 0 0 0 0 0 0 0 0 0 0 0 0 0 0 1 0.002 
803 4 0.00484901 0.10611 -0.0131612 0 0 0 0.156587 -0.223799 0.657419 0 -0.000164368 0 0 0 0 0 0 0 0 0 0 0 0 0 0 0 0 0 18 0.002 
503 7 0.0162316 0.0888303 -0.0112264 0 0 0 0.607352 -1.37451 0.90308 0 -0.000164368 0 0 0 0 0 0 0 0 0 0 0 0 0 0 0 0 0 24 0.002 
1143 7 0.0122855 0.0911861 -0.0115843 0 0 0 1.01465 -1.3982 1.46444 0 -0.000164368 0 0 0 0 0 0 0 0 0 0 0 0 0 0 0 0 0 1 0.002 
885 6 0.0139229 0.0978502 -0.0105552 0 0 0 0.69616 -0.301423 1.46171 0 -0.000164368 0 0 0 0 0 0 0 0 0 0 0 0 0 0 0 0 0 2 0.002 
140 4 0.0158806 0.076245 -0.00938628 0 0 0 0.718371 -1.34775 0.639656 0 -0.000164368 0 0 0 0 0 0 0 0 0 0 0 0 0 0 0 0 0 30 0.002 
1093 3 0.0153045 0.0846637 -0.00650952 0 0 0 -1.17035 0.182343 -0.45772 0 -0.000164368 0 0 0 0 0 0 0 0 0 0 0 0 0 0 0 0 0 10 0.002 
176 2 0.00343864 0.093227 -0.0081698 0 0 0 0.0624117 -0.669274 0.438557 0 -0.000164368 0 0 0 0 0 0 0 0 0 0 0 0 0 0 0 0 0 23 0.002 
627 2 0.00755036 0.0983045 -0.00620983 0 0 0 0.0084754 -1.10015 0.77436 0 -0.000164368 0 0 0 0 0 0 0 0 0 0 0 0 0 0 0 0 0 36 0.002 
996 2 0.00380247 0.10417 -0.00696016 0 0 0 0.0787439 0.176689 1.13046 0 -0.000164368 0 0 0 0 0 0 0 0 0 0 0 0 0 0 0 0 0 12 0.002 
103 5 0.00856416 0.10618 -0.00615063 0 0 0 0.122001 0.0480318 0.0453984 0 -0.000164368 0 0 0 0 0 0 0 0 0 0 0 0 0 0 0 0 0 36 0.002 
553 7 0.00594176 0.0999 -0.00196167 0 0 0 0.714464 -0.320046 0.786772 0 -0.000164368 0 0 0 0 0 0 0 0 0 0 0 0 0 0 0 0 0 21 0.002 
762 6 0.00299412 0.108027 -0.00200488 0 0 0 -0.123615 -0.594327 -0.258648 0.0121389 0.0119167 0.00822121 0 0 0 0 0 0 0 0 0 0 0 0 0 0 0 0 30 0.002 
1002 1 0.00729003 0.107851 -0.00258301 0 0 0 0.135732 -0.0415432 0.1597 0 -0.000164368 0 0 0 0 0 0 0 0 0 0 0 0 0 0 0 0 0 7 0.002 
665 2 0.00347201 0.104478 4.28017e-05 0 0 0 -0.287114 0.731829 0.336682 0 -0.000164368 0 0 0 0 0 0 0 0 0 0 0 0 0 0 0 0 0 17 0.002 
899 3 0.00789758 0.103074 0.00143639 0 0 0 2.53105 2.51487 -0.867798 0 -0.000164368 0 0 0 0 0 0 0 0 0 0 0 0 0 0 0 0 0 10 0.002 
112 6 0.00549925 0.107301 0.00258924 0 0 0 0.133455 -0.0989925 0.193659 0 -0.000164368 0 0 0 0 0 0 0 0 0 0 0 0 0 0 0 0 0 37 0.002 
311 2 0.0142812 0.10283 0.00372727 0 0 0 4.16482 1.55121 0.350241 0 -0.000164368 0 0 0 0 0 0 0 0 0 0 0 0 0 0 0 0 0 36 0.002 
845 3 0.00979766 0.106023 0.00491028 0 0 0 0.534044 1.16721 0.538877 0 -0.000164368 0 0 0 0 0 0 0 0 0 0 0 0 0 0 0 0 0 18 0.002 
591 9 0.00921545 0.0803796 0.00842393 0 0 0 1.61876 0.648456 1.61726 0 -0.000164368 0 0 0 0 0 0 0 0 0 0 0 0 0 0 0 0 0 15 0.002 
933 1 0.0148017 0.0856761 0.0066828 0 0 0 0.366761 -0.243176 0.0565469 0 -0.000164368 0 0 0 0 0 0 0 0 0 0 0 0 0 0 0 0 0 16 0.002 
876 14 0.0101553 0.0884896 0.00664495 0 0 0 1.05223 -0.108683 -0.599895 0 -0.000164368 0 0 0 0 0 0 0 0 0 0 0 0 0 0 0 0 0 12 0.002 
254 10 0.0171135 0.0921115 0.00708136 0 0 0 0.804263 -1.4729 0.932178 0 -0.000164368 0 0 0 0 0 0 0 0 0 0 0 0 0 0 0 0 0 38 0.002 
1170 3 0.0152991 0.0982459 0.00703414 0 0 0 0.881421 -0.387288 0.835806 0 -0.000164368 0 0 0 0 0 0 0 0 0 0 0 0 0 0 0 0 0 0 0.002 
287 6 0.00335272 0.100845 0.00684445 0 0 0 0.219003 -0.0903444 0.582255 0 -0.000164368 0 0 0 0 0 0 0 0 0 0 0 0 0 0 0 0 0 22 0.002 
786 1 0.00466835 0.104741 0.00679254 0 0 0 0.204087 0.0490512 0.127049 0 -0.000164368 0 0 0 0 0 0 0 0 0 0 0 0 0 0 0 0 0 28 0.002 
1034 7 0.0171726 0.106517 0.00658043 0 0 0 0.413231 0.149339 0.617233 0 -0.000164368 0 0 0 0 0 0 0 0 0 0 0 0 0 0 0 0 0 0 0.002 
274 4 0.0111229 0.0921308 0.00800052 0 0 0 0.526823 0.0626584 0.124108 0 -0.000164368 0 0 0 0 0 0 0 0 0 0 0 0 0 0 0 0 0 31 0.002 
1121 3 0.00721804 0.0956811 0.00903373 0 0 0 0.103005 -0.826298 0.337021 0 -0.000164368 0 0 0 0 0 0 0 0 0 0 0 0 0 0 0 0 0 0 0.002 
631 1 0.00305562 0.0966943 0.0090094 0 0 0 0.0655457 0.513418 -0.613778 0 -0.000164368 0 0 0 0 0 0 0 0 0 0 0 0 0 0 0 0 0 34 0.002 
309 1 0.0115534 0.0962806 0.00855343 0 0 0 0.671613 -0.798685 0.113511 0 -0.000164368 0 0 0 0 0 0 0 0 0 0 0 0 0 0 0 0 0 44 0.002 
1153 8 0.00755998 0.101443 0.00968899 0 0 0 -0.110618 -0.499983 0.347467 0.00491074 0.00233621 -0.0126396 0 0 0 0 0 0 0 1 0 0 0 0 0 0 0 0 3 0.002 
369 6 0.00337766 0.108001 0.00885567 0 0 0 0.0771516 -0.0824767 0.0751511 -0.001049 0.00349474 -6.6295e-05 0 0 0 0 0 1 0 0 0 0 0 0 0 0 0 0 28 0.002 
55 4 0.00551145 0.0813988 0.0118535 0 0 0 0.160369 -0.993182 0.444976 0 -0.000164368 0 0 0 0 0 0 0 0 0 0 0 0 0 0 0 0 0 22 0.002 
118 2 0.0117211 0.0819356 0.0119321 0 0 0 0.42078 -0.395824 -0.0187554 0 -0.000164368 0 0 0 0 0 0 0 0 0 0 0 0 0 0 0 0 0 29 0.002 
598 1 0.00451729 0.0853275 0.011816 0 0 0 1.49415 -1.19088 0.574447 0 -0.000164368 0 0 0 0 0 0 0 0 0 0 0 0 0 0 0 0 0 30 0.002 
579 8 0.00763304 0.0879636 0.0116631 0 0 0 0.139459 -1.6125 0.431304 0 -0.000164368 0 0 0 0 0 0 0 0 0 0 0 0 0 0 0 0 0 36 0.002 
368 5 0.0119228 0.0868169 0.0107111 0 0 0 0.426065 -0.239418 0.194249 0 -0.000164368 0 0 0 0 0 0 0 0 0 0 0 0 0 0 0 0 0 31 0.002 
641 1 0.0169121 0.087354 0.0110618 0 0 0 0.775278 0.0599246 0.0110614 0 -0.000164368 0 0 0 0 0 0 0 0 0 0 0 0 0 0 0 0 0 16 0.002 
1039 3 0.00370294 0.089108 0.010609 0 0 0 -0.078737 -1.30843 0.127794 0.00105963 -0.000711018 0.00222576 0 0 1 0 0 0 0 0 0 0 0 0 0 0 0 0 7 0.002 
425 1 0.00450741 0.0994494 0.0120916 0 0 0 0.0106538 0.182499 0.220846 0.0059122 -0.0137983 -0.0322155 1 0 0 0 0 0 0 0 0 0 0 0 0 0 0 0 36 0.002 
534 13 0.00313022 0.102957 0.0104259 0 0 0 -0.190969 0.35063 0.599364 0 -0.000164368 0 0 0 0 0 0 0 0 0 0 0 0 0 0 0 0 0 27 0.002 
392 1 0.0156138 0.102104 0.0116609 0 0 0 0.05879 0.0208152 0.0955023 0 -0.000164368 0 0 0 0 0 0 0 0 0 0 0 0 0 0 0 0 0 35 0.002 
543 1 0.0112957 0.104782 0.0103693 0 0 0 -0.0202199 -0.333863 0.0569755 0 -0.000164368 0 0 0 0 0 0 0 0 0 0 0 0 0 0 0 0 0 29 0.002 
1136 1 0.00716491 0.107505 0.0100424 0 0 0 0.0992931 0.125675 -0.0191919 0.00064437 6.68131e-05 0.000326816 1 0 0 0 0 0 0 0 0 0 0 0 0 0 0 0 3 0.002 
789 5 0.00302516 0.0779404 0.0125802 0 0 0 0.0150141 -0.213147 -0.388359 0 -0.000164368 0 0 0 0 0 0 0 0 0 0 0 0 0 0 0 0 0 25 0.002 
685 7 0.0120593 0.0774929 0.0147136 0 0 0 1.46309 -0.987118 0.887922 0 -0.000164368 0 0 0 0 0 0 0 0 0 0 0 0 0 0 0 0 0 23 0.002 
926 2 0.0162506 0.083921 0.0138589 0 0 0 0.28705 -0.192587 -0.0185424 0 -0.000164368 0 0 0 0 0 0 0 0 0 0 0 0 0 0 0 0 0 14 0.002 
1063 3 0.00836371 0.084676 0.0140124 0 0 0 0.555147 -0.623457 0.288782 0 -0.000164368 0 0 0 0 0 0 0 0 0 0 0 0 0 0 0 0 0 10 0.002 
1155 5 0.00367931 0.0887623 0.0145839 0 0 0 -0.00436054 -0.128229 0.414196 -0.00105963 0.000382282 -0.00222576 0 0 1 0 0 0 0 0 0 0 0 0 0 0 0 0 2 0.002 
954 5 0.0114151 0.0902844 0.012741 0 0 0 0.394572 0.0503852 -0.217774 0 -0.000164368 0 0 0 0 0 0 0 0 0 0 0 0 0 0 0 0 0 15 0.002 
984 3 0.00349216 0.0930551 0.013466 0 0 0 0.238932 -0.186964 0.346282 0 -0.000164368 0 0 0 0 0 0 0 0 0 0 0 0 0 0 0 0 0 16 0.002 
301 5 0.00722225 0.0949684 0.0131325 0 0 0 0.508161 0.15391 0.678451 0 -0.000164368 0 0 0 0 0 0 0 0 0 0 0 0 0 0 0 0 0 39 0.002 
888 1 0.011293 0.094369 0.0134526 0 0 0 0.813574 -0.0671281 0.0764198 0 -0.000164368 0 0 0 0 0 0 0 0 0 0 0 0 0 0 0 0 0 19 0.002 
211 2 0.00686338 0.102396 0.0134961 0 0 0 0.0900091 0.277921 0.122221 -0.00491074 -0.00266494 0.0126396 0 1 0 0 0 0 0 0 0 0 0 0 0 0 0 0 20 0.002 
192 7 0.00322218 0.104089 0.0143627 0 0 0 0.219219 0.490013 0.212865 0.0175885 -0.02124 -0.0134894 0 0 0 0 0 0 1 0 0 0 0 0 0 0 0 0 36 0.002 
252 6 0.00652445 0.106384 0.0140025 0 0 0 0.189414 0.258748 0.238983 0 -0.000164368 0 0 0 0 0 0 0 0 0 0 0 0 0 0 0 0 0 18 0.002 
1074 10 0.0105489 0.106008 0.0143554 0 0 0 0.294556 0.208072 0.166293 0 -0.000164368 0 0 0 0 0 0 0 0 0 0 0 0 0 0 0 0 0 4 0.002 
923 10 0.00300976 0.108 0.0129319 0 0 0 0.0181894 -0.00138089 0.258934 -1.83548e-06 -0.000225981 -3.07519e-05 0 0 0 0 0 0 0 0 0 0 0 0 0 0 0 0 12 0.002 
826 5 0.018546 0.107821 0.0123754 0 0 0 0.162545 -0.0137187 0.187304 0 -0.000164368 0 0 0 0 0 0 0 0 0 0 0 0 0 0 0 0 0 20 0.002 
922 5 0.00924186 0.0755512 0.0169956 0 0 0 0.862954 -0.837696 0.80756 0 -0.000164368 0 0 0 0 0 0 0 0 0 0 0 0 0 0 0 0 0 5 0.002 
1098 3 0.00302328 0.0799389 0.0166341 0 0 0 -0.119705 -0.595939 0.454791 0.00331599 0.0133442 -0.0318447 0 0 1 0 0 0 0 0 0 0 0 0 0 0 0 0 10 0.002 
781 2 0.00965574 0.0815237 0.0163364 0 0 0 0.504511 -1.63683 0.820681 0 -0.000164368 0 0 0 0 0 0 0 0 0 0 0 0 0 0 0 0 0 32 0.002 
1158 12 0.0151392 0.0801414 0.0154086 0 0 0 1.42514 0.0458155 -0.00543116 -0.00110382 -0.00331805 0.00258594 0 0 0 0 0 0 0 0 0 0 0 1 0 0 0 0 2 0.002 
792 2 0.00299372 0.0837064 0.0151801 0 0 0 2.93176e-05 -0.608925 0.41016 0.00777267 0.00195743 -0.00325601 0 0 0 0 0 0 0 0 0 0 0 0 0 0 0 0 15 0.002 
230 6 0.0108177 0.0873661 0.01607 0 0 0 0.0954857 -0.257978 0.0295031 0 -0.000164368 0 0 0 0 0 0 0 0 0 0 0 0 0 0 0 0 0 41 0.002 
400 7 0.00746401 0.0900411 0.0151919 0 0 0 0.0190089 -0.945498 0.132732 0.0128187 0.0086076 -0.0267816 0 0 0 0 0 0 1 0 0 0 0 0 0 0 0 0 35 0.002 
403 8 0.0145711 0.0917624 0.0152327 0 0 0 0.104179 0.325432 0.637036 0 -0.000164368 0 0 0 0 0 0 0 0 0 0 0 0 0 0 0 0 0 28 0.002 
1077 1 0.00303875 0.0956854 0.0167072 0 0 0 0.0692423 0.114612 0.363674 0 -0.000164368 0 0 0 0 0 0 0 0 0 0 0 0 0 0 0 0 0 4 0.002 
572 3 0.00803458 0.0980273 0.0155843 0 0 0 0.11367 0.098512 0.811414 0 -0.000164368 0 0 0 0 0 0 0 0 0 0 0 0 0 0 0 0 0 22 0.002 
554 3 0.00300279 0.0998484 0.0157384 0 0 0 -0.138274 0.319372 0.200079 -0.00665539 -0.00515591 0.0048126 1 0 2 0 0 0 0 0 0 0 0 0 0 0 0 0 11 0.002 
73 3 0.0166109 0.0996611 0.0162008 0 0 0 0.0983012 -0.287977 0.349686 0 -0.000164368 0 0 0 0 0 0 0 0 0 0 0 0 0 0 0 0 0 37 0.002 
910 15 0.0107012 0.101788 0.01472 0 0 0 0.200952 0.0182242 0.112228 0 -0.000164368 0 0 0 0 0 0 0 0 0 0 0 0 0 0 0 0 0 15 0.002 
887 1 0.0166601 0.105939 0.0153728 0 0 0 -0.00416387 0.0267546 0.175576 0.000153776 -0.000352082 -0.00031062 1 0 0 0 0 0 0 0 0 0 0 0 0 0 0 0 9 0.002 
306 3 0.00331411 0.0759094 0.016823 0 0 0 0.164558 -1.01537 -0.0560875 0 -0.000164368 0 0 0 0 0 0 0 0 0 0 0 0 0 0 0 0 0 39 0.002 
718 11 0.0143497 0.0774517 0.0182616 0 0 0 1.40815 0.15679 0.412106 0.00110382 0.00298932 -0.00258594 0 0 0 0 0 0 0 0 0 0 0 1 0 0 0 0 26 0.002 
963 3 0.0181141 0.0759274 0.017785 0 0 0 0.102208 -0.14994 -0.542161 0 -0.000164368 0 0 0 0 0 0 0 0 0 0 0 0 0 0 0 0 0 18 0.002 
699 9 0.012138 0.0842709 0.0187514 0 0 0 0.102587 -0.0794718 -0.120741 0.000310347 -0.00172063 -0.00339899 0 0 0 0 0 0 0 0 2 0 0 0 0 0 0 0 18 0.002 
1124 4 0.0160068 0.0831111 0.0182153 0 0 0 0.116829 0.407909 0.428052 0 -0.000164368 0 0 0 0 0 0 0 0 0 0 0 0 0 0 0 0 0 3 0.002 
1031 3 0.00681044 0.0846646 0.018514 0 0 0 0.0273874 -0.142625 -0.0939858 0 -0.000164368 0 0 0 0 0 0 0 0 0 0 0 0 0 0 0 0 0 9 0.002 
979 4 0.003491 0.0872319 0.018326 0 0 0 0.132114 -0.0252568 0.299364 0.000110629 0.00138524 -0.00266214 0 0 0 1 0 0 0 0 0 0 0 0 0 0 0 0 16 0.002 
1147 9 0.00760446 0.0886633 0.0189196 0 0 0 0.0288375 -0.295564 0.21355 -0.0128187 -0.00893634 0.0267816 0 0 0 0 0 0 1 0 0 0 0 0 0 0 0 0 3 0.002 
904 3 0.00312441 0.091664 0.0173008 0 0 0 0.0265564 0.0213114 0.118356 0 -0.000164368 0 0 0 0 0 0 0 0 0 0 0 0 0 0 0 0 0 9 0.002 
841 3 0.00951038 0.0920931 0.0181116 0 0 0 0.00243448 -0.189392 -0.148925 0 -0.000164368 0 0 0 0 0 0 0 0 0 0 0 0 0 0 0 0 0 19 0.002 
26 9 0.0180638 0.0920967 0.0171738 0 0 0 0.597937 -0.276191 0.151053 0 -0.000164368 0 0 0 0 0 0 0 0 0 0 0 0 0 0 0 0 0 29 0.002 
1026 6 0.016528 0.0959889 0.0184643 0 0 0 0.396618 -0.0728991 -0.110462 0 -0.000164368 0 0 0 0 0 0 0 0 0 0 0 0 0 0 0 0 0 17 0.002 
742 3 0.0116102 0.0959902 0.0171364 0 0 0 0.140112 -0.235779 0.0176808 0 -0.000164368 0 0 0 0 0 0 0 0 0 0 0 0 0 0 0 0 0 20 0.002 
417 1 0.00329306 0.102898 0.0182593 0 0 0 -0.101386 0.182876 0.377923 0.000172022 0.0159431 0.0122093 1 0 1 0 0 0 0 0 0 0 0 0 0 0 0 0 50 0.002 
361 3 0.00762277 0.103171 0.0174955 0 0 0 0.0290181 0.313838 0.18274 0 -0.000164368 0 0 0 0 0 0 0 0 0 0 0 0 0 0 0 0 0 27 0.002 
1027 1 0.0114818 0.103897 0.0182973 0 0 0 0.193843 -0.0335059 0.257438 -0.00861286 -0.00908784 -0.00040902 1 0 0 0 0 0 0 0 0 0 0 0 0 0 0 0 4 0.002 
402 1 0.0168654 0.103302 0.0184364 0 0 0 0.0456938 -0.00151237 0.123056 0.000269457 -0.000360438 -0.000491243 1 0 0 0 0 0 0 0 0 0 0 0 0 0 0 0 31 0.002 
983 5 0.0034852 0.107017 0.0170649 0 0 0 0.00507153 -0.0825752 0.0911714 -0.0175885 0.0209112 0.0134894 0 0 0 0 0 0 1 0 0 0 0 0 0 0 0 0 11 0.002 
240 1 0.00821357 0.107665 0.0175052 0 0 0 0.211363 0.473651 0.157987 0.000572515 0.000575018 0.00100254 1 0 0 0 0 0 0 0 0 0 0 0 0 0 0 0 33 0.002 
1146 2 0.013621 0.107198 0.0176451 0 0 0 0.00195425 -0.0375629 0.224669 0.00785324 0.00847371 -0.000359565 2 1 0 0 0 0 0 0 0 0 0 0 0 0 0 0 4 0.002 
527 8 0.00675649 0.0787894 0.0190972 0 0 0 -0.398416 -0.0115317 -0.0745444 0 -0.000164368 0 0 0 0 0 0 0 0 0 0 0 0 0 0 0 0 0 28 0.002 
1082 1 0.00318596 0.0801076 0.020608 0 0 0 0.0387609 -0.218229 0.10832 -0.00331599 -0.0136729 0.0318447 0 0 1 0 0 0 0 0 0 0 0 0 0 0 0 0 13 0.002 
77 12 0.0110416 0.0806947 0.0201681 0 0 0 0.115104 -0.113958 -0.0467604 0.000335221 0.000502762 -0.000536968 0 0 0 0 0 0 0 0 1 0 0 0 0 0 0 0 37 0.002 
639 9 0.00300455 0.0841009 0.0207547 0 0 0 -0.00706098 -0.196414 0.0860186 0.000506284 0.000660271 -0.00174073 0 0 0 1 0 0 0 0 1 0 0 0 0 0 0 0 38 0.002 
291 1 0.0120704 0.107702 0.0329957 0 0 0 0.00945721 -0.0869436 -0.0396698 0 -0.000164368 0 0 0 0 0 0 0 0 0 0 0 0 0 0 0 0 0 32 0.002 
1129 5 0.0124023 0.0886689 0.0197096 0 0 0 -0.0328682 -0.185729 -0.0652212 0 -0.000164368 0 0 0 0 0 0 0 0 0 0 0 0 0 0 0 0 0 4 0.002 
653 9 0.0161899 0.0880125 0.0208364 0 0 0 -0.0109272 -0.0752755 0.0965887 0 -0.000164368 0 0 0 0 0 0 0 0 0 0 0 0 0 0 0 0 0 18 0.002 
183 9 0.00303078 0.0904219 0.0212509 0 0 0 0.0168307 -0.0800887 0.0869677 0.000657204 -0.000805417 0.000243845 0 0 0 0 0 0 0 0 1 0 0 0 0 0 0 0 27 0.002 
65 2 0.00300144 0.0943546 0.0205072 0 0 0 -0.201575 0.00706645 0.317576 0 -0.000164368 0 0 0 0 0 0 0 0 0 0 0 0 0 0 0 0 0 19 0.002 
730 3 0.0072912 0.0956703 0.0191047 0 0 0 -0.102326 -0.0403879 0.0525919 0 -0.000164368 0 0 0 0 0 0 0 0 0 0 0 0 0 0 0 0 0 16 0.002 
505 2 0.00338913 0.0987396 0.0195468 0 0 0 -0.215028 0.140482 0.317905 -0.00013988 -0.00267789 -0.0112984 0 1 1 0 0 0 0 0 0 0 0 0 0 0 0 0 34 0.002 
972 3 0.00736638 0.100055 0.0200585 0 0 0 0.0563712 0.287439 -0.00941745 0.00207149 -0.000306321 -0.00885131 0 0 1 0 0 0 0 0 0 0 0 0 0 0 0 0 11 0.002 
751 3 0.0155378 0.0997175 0.0204782 0 0 0 0.0779451 -0.0826011 0.0105036 0 -0.000164368 0 0 0 0 0 0 0 0 0 0 0 0 0 0 0 0 0 24 0.002 
917 8 0.00875086 0.103726 0.0213557 0 0 0 0.3067 0.237882 0.311464 0 -0.000164368 0 0 0 0 0 0 0 0 0 0 0 0 0 0 0 0 0 15 0.002 
314 6 0.00664705 0.107685 0.0212196 0 0 0 0.155934 0.0371771 0.262758 0 -0.000164368 0 0 0 0 0 0 0 0 0 0 0 0 0 0 0 0 0 19 0.002 
343 2 0.0106163 0.107974 0.0206869 0 0 0 0.190354 0.0605755 0.285664 -0.00289562 0.000328555 -0.0022108 1 1 0 0 0 0 0 0 0 0 0 0 0 0 0 0 35 0.002 
141 5 0.016817 0.107839 0.019961 0 0 0 -0.00943946 -0.0459791 0.186219 0.000605848 0.000308743 0.0010792 0 1 0 0 0 0 0 0 0 0 0 0 0 0 0 0 45 0.002 
674 10 0.0037107 0.0772012 0.0234467 0 0 0 0.0251285 -0.232955 0.0105716 0 -0.000164368 0 0 0 0 0 0 0 0 0 0 0 0 0 0 0 0 0 25 0.002 
1086 9 0.0142121 0.075548 0.0218372 0 0 0 0.146456 -0.610834 0.206294 0 -0.000164368 0 0 0 0 0 0 0 0 0 0 0 0 0 0 0 0 0 7 0.002 
650 3 0.0106423 0.0777884 0.0232053 0 0 0 0.143579 -0.120534 -0.129663 0 -0.000164368 0 0 0 0 0 0 0 0 0 0 0 0 0 0 0 0 0 26 0.002 
175 5 0.014384 0.0793785 0.0233185 0 0 0 0.12666 -0.187504 -0.111604 -0.0077825 0.00877808 -0.00153827 0 0 0 0 1 0 0 0 0 0 0 0 0 0 0 0 16 0.002 