ITEM: TIMESTEP
10050000
ITEM: NUMBER OF ATOMS
1230
ITEM: BOX BOUNDS ff ff ff
-0.01 0.45
-0.15 0.15
-0.08 0.1
ITEM: ATOMS id type x y z ix iy iz vx vy vz fx fy fz c_cc_1 c_cc_2 c_cc_3 c_cc_4 c_cc_5 c_cc_6 c_cc_7 c_cc_8 c_cc_9 c_cc_10 c_cc_11 c_cc_12 c_cc_13 c_cc_14 c_cc_15 c_cc_16 f_fppacc radius 
1058 2 0.00385415 -0.0549607 0.00922961 0 0 0 -1.70909 -0.873065 23.6345 0 -0.000164368 0 0 0 0 0 0 0 0 0 0 0 0 0 0 0 0 0 17 0.002 
773 5 0.00361327 -0.0382047 0.0403208 0 0 0 0.361656 1.04998 -0.576557 0 -0.000164368 0 0 0 0 0 0 0 0 0 0 0 0 0 0 0 0 0 18 0.002 
567 7 0.00789815 -0.0566745 0.0101274 0 0 0 -2.24079 5.81975 19.5787 0 -0.000164368 0 0 0 0 0 0 0 0 0 0 0 0 0 0 0 0 0 26 0.002 
1240 3 0.0116384 -0.0212402 0.0349355 0 0 0 3.5768 9.24823 -1.27304 0 -0.000164368 0 0 0 0 0 0 0 0 0 0 0 0 0 0 0 0 0 0 0.002 
810 6 0.0128189 0.0128265 -0.0562973 0 0 0 3.1846 -10.7211 -1.63414 0 -0.000164368 0 0 0 0 0 0 0 0 0 0 0 0 0 0 0 0 0 27 0.002 
323 7 0.0186498 0.00256399 -0.0577283 0 0 0 0.859627 -20.0453 6.62702 0 -0.000164368 0 0 0 0 0 0 0 0 0 0 0 0 0 0 0 0 0 44 0.002 
501 2 0.014284 0.0130832 0.0564008 0 0 0 -7.91835 23.2769 -4.40834 0.109794 -0.224894 -0.714311 0 0 0 0 0 0 0 0 0 0 0 0 0 0 0 0 29 0.002 
8 5 0.00460031 0.0414303 -0.0377561 0 0 0 0.299915 -1.07865 -2.38464 0 -0.000164368 0 0 0 0 0 0 0 0 0 0 0 0 0 0 0 0 0 37 0.002 
41 1 0.015124 0.0528572 -0.0355 0 0 0 -7.79785e-93 3.24482e-19 -6.7269e-12 1.13047e-92 0 0 0 0 0 0 0 0 0 0 0 0 0 0 0 0 0 0 2 0.002 
69 6 0.00566027 0.0529122 -0.0315396 0 0 0 0.652448 -0.461417 1.06985 0 -0.000164368 0 0 0 0 0 0 0 0 0 0 0 0 0 0 0 0 0 33 0.002 
824 6 0.0161782 0.0585948 -0.0323304 0 0 0 -0.428699 -0.299188 1.92708 0 -0.000164368 0 0 0 0 0 0 0 0 0 0 0 0 0 0 0 0 0 33 0.002 
707 2 0.00292462 0.0695664 -0.0297827 0 0 0 -1.34449 -0.474861 -2.83273 0.549392 -0.0282086 0.273261 0 0 0 0 0 0 0 0 0 0 0 0 0 0 0 0 51 0.002 
1256 2 0.0183706 0.0397806 -0.0252267 0 0 0 -0.624121 -1.37374 0.99279 -0.251153 0.0287439 0.0343235 0 1 0 0 0 0 0 0 0 0 0 0 0 0 0 0 1 0.002 
255 4 0.0110003 0.048322 -0.0245754 0 0 0 0.701024 -0.60017 1.43063 0 -0.000164368 0 0 0 0 0 0 0 0 0 0 0 0 0 0 0 0 0 10 0.002 
624 7 0.00899285 0.0381484 -0.0207383 0 0 0 -0.414581 -1.30564 -0.988682 0 -0.000164368 0 0 0 0 0 0 0 0 0 0 0 0 0 0 0 0 0 35 0.002 
1228 8 0.00731242 0.0682231 0.00653657 0 0 0 1.60501 0.577843 0.0532786 0 -0.000164368 0 0 0 0 0 0 0 0 0 0 0 0 0 0 0 0 0 1 0.002 
577 2 0.0110668 0.0605293 -0.0162778 0 0 0 -0.45396 0.326358 0.935397 0 -0.000164368 0 0 0 0 0 0 0 0 0 0 0 0 0 0 0 0 0 24 0.002 
195 7 0.0068097 0.0621812 -0.0100426 0 0 0 -1.09634 -1.41811 -2.99462 0 -0.000164368 0 0 0 0 0 0 0 0 0 0 0 0 0 0 0 0 0 37 0.002 
1192 2 0.0115997 0.0719905 -0.0100137 0 0 0 0.42462 0.225193 -1.52872 0 -0.000164368 0 0 0 0 0 0 0 0 0 0 0 0 0 0 0 0 0 6 0.002 
183 9 0.00342891 0.0641906 0.00508612 0 0 0 0.706281 0.579545 -2.53875 0 -0.000164368 0 0 0 0 0 0 0 0 0 0 0 0 0 0 0 0 0 37 0.002 
975 4 0.00815029 0.0693858 -0.00355027 0 0 0 1.34043 0.547991 -2.4688 0 -0.000164368 0 0 0 0 0 0 0 0 0 0 0 0 0 0 0 0 0 9 0.002 
800 1 0.00340094 0.0713758 0.00371549 0 0 0 0.104554 0.212047 -1.29649 0 -0.000164368 0 0 0 0 0 0 0 0 0 0 0 0 0 0 0 0 0 19 0.002 
712 2 0.0135153 0.071981 0.0028859 0 0 0 -0.0195671 1.26434 -2.24216 0 -0.000164368 0 0 0 0 0 0 0 0 0 0 0 0 0 0 0 0 0 35 0.002 
623 3 0.0122365 0.0727184 0.0117438 0 0 0 1.63533 -0.165952 -0.734605 0 -0.000164368 0 0 0 0 0 0 0 0 0 0 0 0 0 0 0 0 0 38 0.002 
993 8 0.00756982 0.063436 0.0123617 0 0 0 0.232458 -0.671119 -0.874601 0 -0.000164368 0 0 0 0 0 0 0 0 0 0 0 0 0 0 0 0 0 26 0.002 
576 2 0.00491446 0.066209 0.0142044 0 0 0 0.105381 -0.589783 -0.993209 0 -0.000164368 0 0 0 0 0 0 0 0 0 0 0 0 0 0 0 0 0 22 0.002 
380 3 0.0181615 0.0580851 0.0166684 0 0 0 0.228781 -0.688104 -1.08952 0 -0.000164368 0 0 0 0 0 0 0 0 0 0 0 0 0 0 0 0 0 28 0.002 
996 2 0.0143217 0.0634069 0.0182637 0 0 0 0.251448 -0.100472 -1.00122 0 -0.000164368 0 0 0 0 0 0 0 0 0 0 0 0 0 0 0 0 0 26 0.002 
211 2 0.0114498 0.0661279 0.0170403 0 0 0 0.228315 -0.0917495 -0.819464 0 -0.000164368 0 0 0 0 0 0 0 0 0 0 0 0 0 0 0 0 0 29 0.002 
287 6 0.00907714 0.0711577 0.0168952 0 0 0 -0.0372597 0.0698371 -0.68396 0 -0.000164368 0 0 0 0 0 0 0 0 0 0 0 0 0 0 0 0 0 32 0.002 
1032 4 0.017399 0.0723991 0.0174667 0 0 0 -0.549133 -0.211879 -0.25066 -0.00249301 -0.00819522 0.00943484 0 0 0 1 0 0 0 0 0 0 0 0 0 0 0 0 15 0.002 
1077 1 0.00502133 0.0747108 0.0169598 0 0 0 0.274891 0.164154 -1.01729 0 -0.000164368 0 0 0 0 0 0 0 0 0 0 0 0 0 0 0 0 0 9 0.002 
769 5 0.0139129 0.074878 0.017465 0 0 0 -0.443264 -0.178281 -0.318533 0.0016932 3.85633e-05 -0.000786357 0 0 0 0 1 0 0 0 0 0 0 0 0 0 0 0 29 0.002 
792 2 0.00332253 0.0649103 0.0194495 0 0 0 0.0705078 0.325514 -0.336575 0 -0.000164368 0 0 0 0 0 0 0 0 0 0 0 0 0 0 0 0 0 17 0.002 
979 4 0.00737079 0.0656513 0.0190905 0 0 0 0.0709235 0.283175 -0.64365 0 -0.000164368 0 0 0 0 0 0 0 0 0 0 0 0 0 0 0 0 0 26 0.002 
1090 12 0.0151188 0.0677541 0.0206057 0 0 0 0.195004 0.0620009 -0.236034 0 -0.000164368 0 0 0 0 0 0 0 0 0 0 0 0 0 0 0 0 0 7 0.002 
459 5 0.0154791 0.0724808 0.0209845 0 0 0 -0.104373 0.0126587 0.0133909 -0.000815561 -0.00239259 0.00360471 0 0 0 0 1 0 0 0 0 0 0 0 0 0 0 0 29 0.002 
915 9 0.0112501 0.0730071 0.0197838 0 0 0 -0.256509 -0.215649 -0.145616 -0.0016932 -0.0003673 0.000786357 0 0 0 0 1 0 0 0 0 0 0 0 0 0 0 0 31 0.002 
625 3 0.0182215 0.0596077 0.0220438 0 0 0 0.18996 0.196262 -0.704991 0 -0.000164368 0 0 0 0 0 0 0 0 0 0 0 0 0 0 0 0 0 23 0.002 
1027 1 0.0176458 0.0643274 0.022375 0 0 0 0.265361 0.131278 -0.218898 0 -0.000164368 0 0 0 0 0 0 0 0 0 0 0 0 0 0 0 0 0 18 0.002 
904 3 0.00339043 0.0695476 0.0226678 0 0 0 0.0570102 0.160663 -0.291603 0 -0.000164368 0 0 0 0 0 0 0 0 0 0 0 0 0 0 0 0 0 14 0.002 
730 3 0.00753928 0.0687588 0.0216818 0 0 0 -0.100234 -0.138151 -0.510528 0 -0.000164368 0 0 0 0 0 0 0 0 0 0 0 0 0 0 0 0 0 30 0.002 
261 1 0.00816413 0.0726819 0.0227801 0 0 0 -0.348968 0.078074 -0.0881241 0 -0.000164368 0 0 0 0 0 0 0 0 0 0 0 0 0 0 0 0 0 36 0.002 
65 2 0.00318189 0.0647889 0.0243528 0 0 0 0.0760138 0.282632 -0.265693 0 -0.000164368 0 0 0 0 0 0 0 0 0 0 0 0 0 0 0 0 0 31 0.002 
301 5 0.00812478 0.0634728 0.0233143 0 0 0 0.230695 0.351406 -0.543969 0 -0.000164368 0 0 0 0 0 0 0 0 0 0 0 0 0 0 0 0 0 48 0.002 
352 4 0.0121344 0.0637709 0.0251695 0 0 0 0.309003 0.146853 -0.457775 -0.0110723 -0.00870596 -0.00595777 0 0 0 0 0 0 0 0 0 0 0 0 0 0 0 0 35 0.002 
803 4 0.0152433 0.0662544 0.0249281 0 0 0 0.351549 -0.0396385 -0.155839 0.0110723 0.00837722 0.00595777 0 0 0 0 0 0 0 0 0 0 0 0 0 0 0 0 30 0.002 
762 6 0.0109533 0.0686041 0.0247049 0 0 0 0.0744861 -0.0666484 -0.239526 0 -0.000164368 0 0 0 0 0 0 0 0 0 0 0 0 0 0 0 0 0 40 0.002 
140 4 0.0186109 0.0697024 0.0257041 0 0 0 0.0356481 -0.117162 -0.0581887 0 -0.000164368 0 0 0 0 0 0 0 0 0 0 0 0 0 0 0 0 0 36 0.002 
877 4 0.0148737 0.070309 0.0242874 0 0 0 0.0636976 -0.249337 0.0992851 0.000815561 0.00206385 -0.00360471 0 0 0 0 1 0 0 0 0 0 0 0 0 0 0 0 23 0.002 
876 14 0.0134003 0.0739485 0.0251508 0 0 0 0.0139446 -0.16518 -0.0435986 0 -0.000164368 0 0 0 0 0 0 0 0 0 0 0 0 0 0 0 0 0 17 0.002 
802 4 0.00324354 0.0570059 0.0275333 0 0 0 0.0688212 0.00628984 -0.177222 0 -0.000164368 0 0 0 0 0 0 0 0 0 0 0 0 0 0 0 0 0 27 0.002 
917 8 0.0116146 0.0584336 0.0273678 0 0 0 0.375813 -0.204066 0.0793675 0 -0.000164368 0 0 0 0 0 0 0 0 0 0 0 0 0 0 0 0 0 31 0.002 
909 2 0.0063042 0.0600498 0.026351 0 0 0 0.703231 -0.0469995 0.309833 0 -0.000164368 0 0 0 0 0 0 0 0 0 0 0 0 0 0 0 0 0 37 0.002 
972 3 0.00782074 0.0704967 0.0274934 0 0 0 0.0712486 0.0709275 -0.160372 0 -0.000164368 0 0 0 0 0 0 0 0 0 0 0 0 0 0 0 0 0 26 0.002 
554 3 0.007713 0.0744033 0.0264966 0 0 0 -0.0652433 0.166628 0.0028237 -0.000151081 -0.000156223 -3.57405e-05 0 0 0 0 0 0 0 0 0 0 0 0 0 0 0 0 23 0.002 
964 2 0.00490043 0.0530696 0.0293657 0 0 0 -0.0898893 -0.46314 -0.34492 0 -0.000164368 0 0 0 0 0 0 0 0 0 0 0 0 0 0 0 0 0 14 0.002 
934 1 0.0150201 0.0593566 0.0293954 0 0 0 -0.135759 0.0657414 -0.231763 0 -0.000164368 0 0 0 0 0 0 0 0 0 0 0 0 0 0 0 0 0 31 0.002 
455 1 0.00309583 0.0622685 0.0288826 0 0 0 0.0632343 0.231713 -0.0938973 0 -0.000164368 0 0 0 0 0 0 0 0 0 0 0 0 0 0 0 0 0 49 0.002 
788 5 0.0150592 0.0632527 0.0281099 0 0 0 -0.0242946 -0.162019 -0.235727 0 -0.000164368 0 0 0 0 0 0 0 0 0 0 0 0 0 0 0 0 0 36 0.002 
669 1 0.00304429 0.0667573 0.0280192 0 0 0 -0.0410489 0.128269 -0.101395 0 -0.000164368 0 0 0 0 0 0 0 0 0 0 0 0 0 0 0 0 0 51 0.002 
680 6 0.00714224 0.0663291 0.0280355 0 0 0 0.0326177 0.120864 -0.273418 0 -0.000164368 0 0 0 0 0 0 0 0 0 0 0 0 0 0 0 0 0 52 0.002 
361 3 0.0108396 0.0677572 0.0287872 0 0 0 0.0142232 -0.00458119 -0.199443 -0.00516816 -0.00287234 0.000279964 0 0 1 0 0 0 0 0 0 0 0 0 0 0 0 0 40 0.002 
1146 2 0.0166471 0.0669644 0.0288026 0 0 0 -0.00744754 -0.149063 -0.0810548 0 -0.000164368 0 0 0 0 0 0 0 0 0 0 0 0 0 0 0 0 0 23 0.002 
505 2 0.00390853 0.0711241 0.0280928 0 0 0 0.0434002 -0.116173 -0.133854 0 -0.000164368 0 0 0 0 0 0 0 0 0 0 0 0 0 0 0 0 0 48 0.002 
131 7 0.0131667 0.0709745 0.0283849 0 0 0 0.059448 -0.0454043 -0.148441 0.00516816 0.0025436 -0.000279964 0 0 1 0 0 0 0 0 0 0 0 0 0 0 0 0 52 0.002 
141 5 0.017017 0.0709084 0.0295026 0 0 0 -0.0283259 -0.127251 -0.0188281 0 -0.000164368 0 0 0 0 0 0 0 0 0 0 0 0 0 0 0 0 0 61 0.002 
112 6 0.0149354 0.0745354 0.028826 0 0 0 0.0108008 -0.0857307 0.0151979 0 -0.000164368 0 0 0 0 0 0 0 0 0 0 0 0 0 0 0 0 0 44 0.002 
1081 4 0.00763485 0.0576629 0.0323614 0 0 0 0.151314 -0.229358 -0.00772067 0 -0.000164368 0 0 0 0 0 0 0 0 0 0 0 0 0 0 0 0 0 14 0.002 
989 4 0.0112497 0.0603712 0.0319 0 0 0 -0.307944 -0.151566 -0.109751 0 -0.000164368 0 0 0 0 0 0 0 0 0 0 0 0 0 0 0 0 0 12 0.002 
291 1 0.00911285 0.0644445 0.0319307 0 0 0 -0.0326696 -0.0526337 -0.199221 0 -0.000164368 0 0 0 0 0 0 0 0 0 0 0 0 0 0 0 0 0 43 0.002 
493 5 0.00300116 0.0718767 0.0324676 0 0 0 0.00918491 0.0237149 -0.0118216 0 -0.000164368 0 0 0 0 0 0 0 0 0 0 0 0 0 0 0 0 0 47 0.002 
603 7 0.00698827 0.0718432 0.0321383 0 0 0 -0.0041678 -0.0479327 -0.0236721 0 -0.000164368 0 0 0 0 0 0 0 0 0 0 0 0 0 0 0 0 0 36 0.002 
1036 6 0.00358712 0.049666 0.0327558 0 0 0 0.0986906 -0.312078 -0.0170885 0 -0.000164368 0 0 0 0 0 0 0 0 0 0 0 0 0 0 0 0 0 31 0.002 
953 3 0.00310346 0.0578174 0.0328434 0 0 0 0.0182767 0.00514883 -0.0282367 0 -0.000164368 0 0 0 0 0 0 0 0 0 0 0 0 0 0 0 0 0 15 0.002 
931 4 0.00309534 0.0623013 0.0329645 0 0 0 -0.0470429 -0.0913701 -0.0224708 0 -0.000164368 0 0 0 0 0 0 0 0 0 0 0 0 0 0 0 0 0 20 0.002 
677 9 0.0173801 0.0612732 0.0329667 0 0 0 -0.0171103 -0.214547 -0.0157371 0 -0.000164368 0 0 0 0 0 0 0 0 0 0 0 0 0 0 0 0 0 65 0.002 
1159 4 0.0133006 0.0641533 0.0326829 0 0 0 -0.0873182 -0.168152 -0.0585413 0 -0.000164368 0 0 0 0 0 0 0 0 0 0 0 0 0 0 0 0 0 13 0.002 
499 2 0.00302378 0.0664285 0.0329567 0 0 0 6.43285e-05 -0.000476415 -0.0117547 0 -0.000164368 0 0 0 0 0 0 0 0 0 0 0 0 0 0 0 0 0 38 0.002 
1080 4 0.0173191 0.0663425 0.0329684 0 0 0 -0.0256656 -0.138806 0.0286592 0 -0.000164368 0 0 0 0 0 0 0 0 0 0 0 0 0 0 0 0 0 12 0.002 
1008 4 0.00888691 0.06834 0.0329279 0 0 0 0.0208337 -0.0622528 -0.00752852 0 -0.000164368 0 0 0 0 0 0 0 0 0 0 0 0 0 0 0 0 0 12 0.002 
511 2 0.0140684 0.0686756 0.0328817 0 0 0 -0.0259054 -0.0835935 -0.0454866 -0.000677609 -0.00057576 -9.07871e-05 0 0 0 0 0 0 0 0 0 0 0 0 0 0 0 0 25 0.002 
343 2 0.0110527 0.0716921 0.0326183 0 0 0 0.014439 -0.0472054 -0.00384793 0 -0.000164368 0 0 0 0 0 0 0 0 0 0 0 0 0 0 0 0 0 43 0.002 
995 2 0.0155238 0.0723977 0.032908 0 0 0 -0.00571903 -0.0758647 -0.0153343 0.000244305 -0.000266274 0.000145144 0 1 0 0 0 0 0 0 0 0 0 0 0 0 0 0 21 0.002 
1257 5 0.00747598 0.0481435 0.0171592 0 0 0 8.2502 -5.52466 21.5749 0 -0.000164368 0 0 0 0 0 0 0 0 0 0 0 0 0 0 0 0 0 0 0.002 
26 9 0.0186289 0.0836748 -0.0304066 0 0 0 0.275006 1.59604 6.22777 0 -0.000164368 0 0 0 0 0 0 0 0 0 0 0 0 0 0 0 0 0 36 0.002 
130 1 0.0121818 0.0895858 -0.0325225 0 0 0 -0.348855 0.151979 0.336298 0 -0.000164368 0 0 0 0 0 0 0 0 0 0 0 0 0 0 0 0 0 35 0.002 
517 2 0.00666782 0.0929121 -0.0329166 0 0 0 -0.0525017 0.893915 0.404466 0 -0.000164368 0 0 0 0 0 0 0 0 0 0 0 0 0 0 0 0 0 23 0.002 
729 9 0.00695199 0.0976458 -0.0329902 0 0 0 -1.05487 1.59748 0.349455 0 -0.000164368 0 0 0 0 0 0 0 0 0 0 0 0 0 0 0 0 0 29 0.002 
744 1 0.00334532 0.101207 -0.0329894 0 0 0 0.117581 -0.0319823 0.0937518 0 -0.000164368 0 0 0 0 0 0 0 0 0 0 0 0 0 0 0 0 0 18 0.002 
1156 1 0.00857562 0.103176 -0.0328571 0 0 0 0.96182 1.50451 0.134717 0 -0.000164368 0 0 0 0 0 0 0 0 0 0 0 0 0 0 0 0 0 3 0.002 
905 3 0.00503644 0.106858 -0.0330374 0 0 0 0.88451 0.12005 0.601131 -0.00381376 0.0158006 -0.0140083 0 0 1 0 0 0 0 0 0 0 0 0 0 0 0 0 13 0.002 
1144 2 0.0157179 0.106459 -0.0321483 0 0 0 0.305751 -0.21443 0.606694 0 -0.000164368 0 0 0 0 0 0 0 0 0 0 0 0 0 0 0 0 0 1 0.002 
535 3 0.017666 0.0789525 -0.0308133 0 0 0 2.87752 0.783717 1.44808 0 -0.000164368 0 0 0 0 0 0 0 0 0 0 0 0 0 0 0 0 0 27 0.002 
796 15 0.00729125 0.0906048 -0.0293891 0 0 0 0.427634 -0.778104 0.569572 0 -0.000164368 0 0 0 0 0 0 0 0 0 0 0 0 0 0 0 0 0 30 0.002 
1250 6 0.00916781 0.100811 -0.0290028 0 0 0 0.067154 0.822732 0.573887 0 -0.000164368 0 0 0 0 0 0 0 0 0 0 0 0 0 0 0 0 0 0 0.002 
814 13 0.00303155 0.104431 -0.030633 0 0 0 0.504573 0.0281228 0.206396 -0.0521016 0.0381006 -0.0258523 0 0 1 0 0 0 0 0 0 0 0 0 2 0 0 0 39 0.002 
488 6 0.00680777 0.0793526 -0.0274115 0 0 0 -0.478081 -0.440745 -0.865142 0 -0.000164368 0 0 0 0 0 0 0 0 0 0 0 0 0 0 0 0 0 37 0.002 
310 2 0.0034464 0.0959406 -0.027717 0 0 0 0.495798 0.97665 -0.244987 0 -0.000164368 0 0 0 0 0 0 0 0 0 0 0 0 0 0 0 0 0 33 0.002 
1114 1 0.00297881 0.0999343 -0.0279718 0 0 0 0.257583 1.02146 -0.57656 0.0055662 -0.111626 0.0161478 1 0 0 0 0 0 0 0 0 0 0 0 0 0 0 0 9 0.002 
952 3 0.00440467 0.103484 -0.0270398 0 0 0 -0.20044 0.985343 -0.172286 0.0470346 0.038125 0.055195 1 0 0 0 0 0 0 0 0 0 0 0 1 0 0 0 10 0.002 
573 1 0.0133463 0.104598 -0.0270789 0 0 0 0.609505 -0.744366 -0.201484 0 -0.000164368 0 0 0 0 0 0 0 0 0 0 0 0 0 0 0 0 0 46 0.002 
645 2 0.0105728 0.10789 -0.0271235 0 0 0 1.17012 -1.21368 3.77354 0 -0.000164368 0 0 0 0 0 0 0 0 0 0 0 0 0 0 0 0 0 31 0.002 
1218 8 0.00375195 0.10799 -0.0289648 0 0 0 0.171321 -0.00269501 0.0153472 0.00627084 0.00738702 -0.00135311 0 0 0 0 0 0 0 0 0 0 0 0 1 0 0 0 1 0.002 
508 9 0.00376907 0.0893341 -0.0272366 0 0 0 1.34932 2.44406 -3.17841 0 -0.000164368 0 0 0 0 0 0 0 0 0 0 0 0 0 0 0 0 0 40 0.002 
1063 3 0.00350558 0.107721 -0.0237544 0 0 0 0.589325 1.28621 0.279168 0 -0.000164368 0 0 0 0 0 0 0 0 0 0 0 0 0 0 0 0 0 10 0.002 
598 1 0.0083818 0.0768011 -0.0222307 0 0 0 -0.168825 -1.32387 -0.543072 0 -0.000164368 0 0 0 0 0 0 0 0 0 0 0 0 0 0 0 0 0 34 0.002 
479 9 0.0176186 0.101732 -0.0230535 0 0 0 -0.802306 1.42438 -1.94996 0 -0.000164368 0 0 0 0 0 0 0 0 0 0 0 0 0 0 0 0 0 34 0.002 
463 9 0.00990426 0.0904091 -0.01883 0 0 0 -0.920654 -0.457258 -0.216575 0 -0.000164368 0 0 0 0 0 0 0 0 0 0 0 0 0 0 0 0 0 38 0.002 
1252 4 0.0160619 0.0947232 -0.0183479 0 0 0 1.77356 3.636 2.27687 0 -0.000164368 0 0 0 0 0 0 0 0 0 0 0 0 0 0 0 0 0 0 0.002 
903 8 0.00844145 0.103547 -0.0168573 0 0 0 0.0810006 2.27278 2.36353 0.0802063 -0.189715 0.023682 0 0 0 0 0 0 0 2 0 0 0 0 0 0 0 0 49 0.002 
1174 9 0.00614581 0.10624 -0.0199624 0 0 0 -0.796542 -0.240121 -0.383913 0 -0.000164368 0 0 0 0 0 0 0 0 0 0 0 0 0 0 0 0 0 1 0.002 
658 8 0.00541477 0.0897236 -0.017686 0 0 0 -1.73631 -0.144164 -0.216821 0 -0.000164368 0 0 0 0 0 0 0 0 0 0 0 0 0 0 0 0 0 30 0.002 
891 2 0.0126833 0.0890117 -0.0152838 0 0 0 -0.36401 -2.89281 0.270927 0 -0.000164368 0 0 0 0 0 0 0 0 0 0 0 0 0 0 0 0 0 16 0.002 
860 11 0.00765903 0.0794726 -0.01463 0 0 0 -0.266394 0.54856 -1.81569 0 -0.000164368 0 0 0 0 0 0 0 0 0 0 0 0 0 0 0 0 0 28 0.002 
869 7 0.00548213 0.102837 -0.0143984 0 0 0 -2.22896 1.18246 0.747693 -0.0411901 0.00874396 0.0731768 0 0 0 0 0 0 0 1 0 0 0 0 0 0 0 0 20 0.002 
1101 3 0.00752502 0.106769 -0.0146965 0 0 0 0.16332 1.44087 -0.114865 -0.0390163 0.180478 -0.0968589 0 0 0 0 0 0 0 1 0 0 0 0 0 0 0 0 7 0.002 
206 6 0.0156926 0.092874 -0.0116973 0 0 0 0.46714 -2.53213 2.33801 0 -0.000164368 0 0 0 0 0 0 0 0 0 0 0 0 0 0 0 0 0 46 0.002 
317 11 0.00484803 0.107628 -0.0118259 0 0 0 0.105684 -0.00916283 0.719788 0 -0.000164368 0 0 0 0 0 0 0 0 0 0 0 0 0 0 0 0 0 34 0.002 
433 9 0.00584167 0.0822157 -0.0109311 0 0 0 -0.733843 0.439531 -1.37184 0 -0.000164368 0 0 0 0 0 0 0 0 0 0 0 0 0 0 0 0 0 33 0.002 
1227 5 0.0138279 0.0898441 -0.00907177 0 0 0 -0.186182 -0.950539 -0.731494 0 -0.000164368 0 0 0 0 0 0 0 0 0 0 0 0 0 0 0 0 0 0 0.002 
1066 1 0.00566793 0.0753201 0.0054806 0 0 0 -0.307751 1.12445 -0.23368 0 -0.000164368 0 0 0 0 0 0 0 0 0 0 0 0 0 0 0 0 0 22 0.002 
1169 3 0.00839248 0.10755 -0.00995417 0 0 0 0.492792 -0.328064 0.26012 0 -0.000164368 0 0 0 0 0 0 0 0 0 0 0 0 0 0 0 0 0 1 0.002 
1024 5 0.00771497 0.0798763 -0.00769081 0 0 0 -0.271832 0.346914 -1.76661 0 -0.000164368 0 0 0 0 0 0 0 0 0 0 0 0 0 0 0 0 0 10 0.002 
550 10 0.00416745 0.100942 -0.00574383 0 0 0 0.309426 -0.359875 0.760279 0 -0.000164368 0 0 0 0 0 0 0 0 0 0 0 0 0 0 0 0 0 35 0.002 
755 2 0.00836045 0.0828524 -0.00389438 0 0 0 0.289168 3.05991 -1.75047 0 -0.000164368 0 0 0 0 0 0 0 0 0 0 0 0 0 0 0 0 0 11 0.002 
331 7 0.00632298 0.105499 -0.00286581 0 0 0 0.0741098 -0.0817517 1.21581 0 -0.000164368 0 0 0 0 0 0 0 0 0 0 0 0 0 0 0 0 0 47 0.002 
96 2 0.00360128 0.0831341 0.00030264 0 0 0 0.0373112 -0.33 -0.361109 0 -0.000164368 0 0 0 0 0 0 0 0 0 0 0 0 0 0 0 0 0 48 0.002 
1004 3 0.0116455 0.10293 -0.000351729 0 0 0 0.196558 -0.358827 0.110311 0 -0.000164368 0 0 0 0 0 0 0 0 0 0 0 0 0 0 0 0 0 17 0.002 
945 9 0.00309439 0.0764351 0.0020238 0 0 0 -0.0674263 0.917933 -1.18034 0 -0.000164368 0 0 0 0 0 0 0 0 0 0 0 0 0 0 0 0 0 13 0.002 
633 6 0.00540642 0.0920747 0.0031593 0 0 0 -0.978929 0.0389695 0.191785 0 -0.000164368 0 0 0 0 0 0 0 0 0 0 0 0 0 0 0 0 0 35 0.002 
583 1 0.00764993 0.0988224 0.00297655 0 0 0 0.309248 -0.244143 0.166234 0 -0.000164368 0 0 0 0 0 0 0 0 0 0 0 0 0 0 0 0 0 40 0.002 
546 1 0.0182424 0.0797016 0.00474414 0 0 0 0.0257723 0.756579 -0.865466 0 -0.000164368 0 0 0 0 0 0 0 0 0 0 0 0 0 0 0 0 0 31 0.002 
927 3 0.00833493 0.0893669 0.00478833 0 0 0 1.1842 0.714992 0.144429 0 -0.000164368 0 0 0 0 0 0 0 0 0 0 0 0 0 0 0 0 0 13 0.002 
362 1 0.0115316 0.0937416 0.00487295 0 0 0 0.0217736 0.0295218 -0.236978 0 -0.000164368 0 0 0 0 0 0 0 0 0 0 0 0 0 0 0 0 0 20 0.002 
58 1 0.00336686 0.101355 0.00454346 0 0 0 0.0679618 -0.0508392 0.321189 0.000753102 -0.00515563 -0.00850605 1 0 0 0 0 0 0 0 0 0 0 0 0 0 0 0 43 0.002 
811 5 0.00856053 0.102625 0.00428457 0 0 0 -0.0669811 -0.0755026 0.46191 0 -0.000164368 0 0 0 0 0 0 0 0 0 0 0 0 0 0 0 0 0 31 0.002 
1091 5 0.00455312 0.107467 0.00392717 0 0 0 0.13121 -0.0802628 0.289104 0 -0.000164368 0 0 0 0 0 0 0 0 0 0 0 0 0 0 0 0 0 8 0.002 
121 2 0.0142598 0.106386 0.00304269 0 0 0 -0.0160155 0.862252 -0.140567 0 -0.000164368 0 0 0 0 0 0 0 0 0 0 0 0 0 0 0 0 0 44 0.002 
703 3 0.00881771 0.107776 0.00369369 0 0 0 -0.00858973 -0.264897 -0.0878216 0 -0.000164368 0 0 0 0 0 0 0 0 0 0 0 0 0 0 0 0 0 28 0.002 
264 10 0.00519801 0.0796223 0.00653559 0 0 0 0.576171 -0.0610186 -0.0285087 0 -0.000164368 0 0 0 0 0 0 0 0 0 0 0 0 0 0 0 0 0 35 0.002 
966 3 0.0143541 0.0894894 0.00532448 0 0 0 0.512781 2.22084 -0.277329 0 -0.000164368 0 0 0 0 0 0 0 0 0 0 0 0 0 0 0 0 0 22 0.002 
753 6 0.00474934 0.0963348 0.00559308 0 0 0 0.10621 -0.0384656 0.392888 0 -0.000164368 0 0 0 0 0 0 0 0 0 0 0 0 0 0 0 0 0 54 0.002 
584 8 0.00331545 0.104696 0.00673397 0 0 0 -0.0495813 -0.213076 0.189399 -0.000652989 0.00411471 0.00827927 1 0 0 0 0 0 0 1 0 0 0 0 0 0 0 0 48 0.002 
836 4 0.00688943 0.107294 0.00717117 0 0 0 0.0871191 -0.108195 0.0738266 0 -0.000164368 0 0 0 0 0 0 0 0 0 0 0 0 0 0 0 0 0 28 0.002 
189 5 0.00726819 0.0757446 -0.00542956 0 0 0 1.28499 2.7639 -1.2289 0 -0.000164368 0 0 0 0 0 0 0 0 0 0 0 0 0 0 0 0 0 28 0.002 
920 3 0.0117476 0.0866758 0.00960834 0 0 0 -0.82431 0.912518 -0.391166 -0.0900814 0.0849925 -0.0234374 0 0 1 0 0 0 0 0 0 0 0 0 0 0 0 0 23 0.002 
1098 3 0.0052969 0.089879 0.00954273 0 0 0 -0.139631 0.369265 0.728801 0 -0.000164368 0 0 0 0 0 0 0 0 0 0 0 0 0 0 0 0 0 14 0.002 
1154 12 0.0102709 0.107 0.00938926 0 0 0 0.112477 -0.203293 0.160255 0 -0.000164368 0 0 0 0 0 0 0 0 0 0 0 0 0 0 0 0 0 3 0.002 
1215 2 0.00306303 0.0966612 0.00922109 0 0 0 0.0255296 -0.0878714 0.362497 0 -0.000164368 0 0 0 0 0 0 0 0 0 0 0 0 0 0 0 0 0 0 0.002 
954 5 0.00884653 0.0964757 0.00802601 0 0 0 0.323206 0.0972235 0.0209682 0 -0.000164368 0 0 0 0 0 0 0 0 0 0 0 0 0 0 0 0 0 21 0.002 
661 2 0.0063448 0.103257 0.00912571 0 0 0 0.0344184 -0.175654 0.194099 0 -0.000164368 0 0 0 0 0 0 0 0 0 0 0 0 0 0 0 0 0 14 0.002 
767 5 0.00357272 0.10767 0.00938769 0 0 0 -0.00138219 -0.0901129 0.129798 -0.000835014 0.000698616 0.00128425 0 0 0 0 1 0 0 1 0 0 0 0 0 0 0 0 30 0.002 
572 3 0.00299227 0.0775099 0.0125804 0 0 0 0.606757 1.63908 1.67007 -0.0470394 0.0138181 -0.00395696 0 0 0 0 0 0 0 0 0 0 0 0 0 0 0 0 35 0.002 
430 4 0.0064542 0.0789209 0.0110876 0 0 0 -0.499359 1.04641 0.0602509 0 -0.000164368 0 0 0 0 0 0 0 0 0 0 0 0 0 0 0 0 0 39 0.002 
481 2 0.0136477 0.0841267 0.0118932 0 0 0 -0.301852 0.775403 -0.401584 0.0900814 -0.0853212 0.0234374 0 1 0 0 0 0 0 0 0 0 0 0 0 0 0 0 23 0.002 
1111 4 0.00303132 0.0870027 0.0123128 0 0 0 0.0399939 -0.0785408 0.385286 0 -0.000164368 0 0 0 0 0 0 0 0 0 0 0 0 0 0 0 0 0 12 0.002 
745 7 0.0175403 0.0876365 0.0105304 0 0 0 0.367483 0.0541152 -0.273972 0 -0.000164368 0 0 0 0 0 0 0 0 0 0 0 0 0 0 0 0 0 23 0.002 
263 2 0.0107294 0.0946985 0.0115916 0 0 0 0.431121 -0.195739 0.223839 0 -0.000164368 0 0 0 0 0 0 0 0 0 0 0 0 0 0 0 0 0 31 0.002 
1223 2 0.00299938 0.100522 0.0103171 0 0 0 0.000451522 -0.0207297 0.220182 0.000218218 -0.000251662 -6.54564e-05 0 0 0 0 0 0 0 0 0 0 0 0 0 0 0 0 1 0.002 
1225 1 0.00839093 0.0987083 0.0114086 0 0 0 0.0420318 -0.282458 0.297621 0 -0.000164368 0 0 0 0 0 0 0 0 0 0 0 0 0 0 0 0 0 1 0.002 
296 2 0.00338371 0.104147 0.0120574 0 0 0 0.0739045 0.0172931 0.187099 0 -0.000164368 0 0 0 0 0 0 0 0 0 0 0 0 0 0 0 0 0 21 0.002 
214 8 0.00750866 0.107957 0.0121361 0 0 0 0.065872 -0.0314808 0.0556775 0 -0.000164368 0 0 0 0 0 0 0 0 0 0 0 0 0 0 0 0 0 10 0.002 
1231 3 0.0132732 0.107962 0.0119127 0 0 0 0.0171723 0.0101199 0.197656 0 -0.000164368 0 0 0 0 0 0 0 0 0 0 0 0 0 0 0 0 0 0 0.002 
1221 1 0.00510222 0.0824692 0.0141598 0 0 0 -1.05416 1.03828 1.57467 0 -0.000164368 0 0 0 0 0 0 0 0 0 0 0 0 0 0 0 0 0 0 0.002 
370 4 0.00528497 0.0913283 0.0138033 0 0 0 0.0436119 -0.150019 0.445089 0 -0.000164368 0 0 0 0 0 0 0 0 0 0 0 0 0 0 0 0 0 41 0.002 
827 2 0.00335624 0.0947848 0.0129193 0 0 0 0.0255707 -0.283909 0.29109 0 -0.000164368 0 0 0 0 0 0 0 0 0 0 0 0 0 0 0 0 0 23 0.002 
126 2 0.0056247 0.0979442 0.0143598 0 0 0 0.098881 -0.117143 0.0622846 -4.41199e-05 -0.000140985 -1.83052e-05 0 1 0 0 0 0 0 0 0 0 0 0 0 0 0 0 25 0.002 
299 1 0.00810929 0.102465 0.0128449 0 0 0 0.062252 -0.236704 0.234798 0 -0.000164368 0 0 0 0 0 0 0 0 0 0 0 0 0 0 0 0 0 33 0.002 
1064 5 0.0163117 0.102715 0.0126844 0 0 0 -0.342767 -0.279047 0.418043 0 -0.000164368 0 0 0 0 0 0 0 0 0 0 0 0 0 0 0 0 0 18 0.002 
288 1 0.012132 0.103898 0.0125221 0 0 0 0.0819652 0.012417 0.385947 0 -0.000164368 0 0 0 0 0 0 0 0 0 0 0 0 0 0 0 0 0 34 0.002 
1200 1 0.0163578 0.106543 0.0140342 0 0 0 0.0842559 -0.106625 0.047364 0.000626859 -0.00116566 -0.00516575 1 0 0 0 0 0 0 0 0 0 0 0 0 0 0 0 2 0.002 
713 7 0.0030065 0.107998 0.0133314 0 0 0 0.0734288 -0.0102635 0.194537 0.000953571 -9.02498e-05 -0.00278361 0 0 0 0 0 0 2 0 0 0 0 0 0 0 0 0 35 0.002 
797 6 0.0176655 0.0760346 0.0158576 0 0 0 -0.356527 0.00833628 0.313071 0.00343119 0.00449752 -0.0162188 0 0 0 0 0 2 0 0 0 0 0 0 0 0 0 0 32 0.002 
1188 4 0.0100832 0.0833372 0.0165297 0 0 0 -0.329876 0.0819063 0.530657 0 -0.000164368 0 0 0 0 0 0 0 0 0 0 0 0 0 0 0 0 0 5 0.002 
179 1 0.013808 0.0864899 0.015951 0 0 0 0.108916 -0.30741 0.238803 0 -0.000164368 0 0 0 0 0 0 0 0 0 0 0 0 0 0 0 0 0 35 0.002 
570 1 0.00337018 0.0874345 0.0163314 0 0 0 -0.160607 -0.26607 0.244716 0 -0.000164368 0 0 0 0 0 0 0 0 0 0 0 0 0 0 0 0 0 35 0.002 
602 6 0.00727752 0.0868268 0.0155096 0 0 0 -0.309438 -0.0488825 -0.159111 0 -0.000164368 0 0 0 0 0 0 0 0 0 0 0 0 0 0 0 0 0 28 0.002 
243 5 0.0106128 0.0900906 0.0153574 0 0 0 -0.0658331 -0.375719 0.21294 0 -0.000164368 0 0 0 0 0 0 0 0 0 0 0 0 0 0 0 0 0 19 0.002 
698 6 0.00899818 0.0939945 0.015592 0 0 0 0.0509279 -0.18058 0.206604 0.00105995 -0.00159499 -0.00214286 0 0 0 0 0 2 0 0 0 0 0 0 0 0 0 0 32 0.002 
377 4 0.0133165 0.0957842 0.016151 0 0 0 0.120817 -0.0884463 0.354706 -3.95919e-05 -0.000296529 -7.30141e-05 0 0 0 1 0 0 0 0 0 0 0 0 0 0 0 0 48 0.002 
906 5 0.0185199 0.0941048 0.0166358 0 0 0 0.511874 -0.323253 0.338793 0 -0.000164368 0 0 0 0 0 0 0 0 0 0 0 0 0 0 0 0 0 30 0.002 
650 3 0.00937851 0.0979707 0.0157347 0 0 0 0.0742381 -0.152996 0.183123 0.00201006 0.00109693 -0.00367644 0 1 2 0 0 1 0 0 0 0 0 0 0 0 0 0 35 0.002 
832 8 0.0123192 0.100682 0.0157208 0 0 0 0.0714114 -0.130548 0.223908 -0.000171775 -0.000258325 -8.15141e-05 0 0 1 0 0 0 0 0 0 0 0 0 0 0 0 0 32 0.002 
582 7 0.00317038 0.101788 0.0153118 0 0 0 -0.0158465 -0.111963 0.11906 0 -0.000164368 0 0 0 0 0 0 0 0 0 0 0 0 0 0 0 0 0 24 0.002 
957 4 0.00616049 0.10535 0.0148535 0 0 0 0.106765 -0.0432748 0.0563833 0 -0.000164368 0 0 0 0 0 0 0 0 0 0 0 0 0 0 0 0 0 13 0.002 
262 3 0.00701968 0.0834334 0.019106 0 0 0 -0.359763 -0.00939972 0.214138 -0.0217914 -0.00103281 -0.0117769 0 0 1 0 0 0 0 0 0 0 0 0 0 0 0 0 32 0.002 
1060 2 0.00868749 0.0908922 0.0188094 0 0 0 0.108463 -0.291253 0.233392 -0.00616343 0.00135745 -0.0117229 0 2 0 0 0 0 0 0 0 0 0 0 0 0 0 0 10 0.002 
297 3 0.00317076 0.0915877 0.0174641 0 0 0 0.0110392 -0.278315 0.168789 0 -0.000164368 0 0 0 0 0 0 0 0 0 0 0 0 0 0 0 0 0 42 0.002 
492 4 0.0155781 0.0923001 0.0187045 0 0 0 0.16006 -0.233457 0.0467446 0 -0.000164368 0 0 0 0 0 0 0 0 0 0 0 0 0 0 0 0 0 25 0.002 
674 10 0.00313985 0.0958775 0.0168337 0 0 0 0.0528539 -0.191268 0.0662873 0 -0.000164368 0 0 0 0 0 0 0 0 0 0 0 0 0 0 0 0 0 27 0.002 
457 6 0.0157106 0.0980292 0.0184357 0 0 0 0.0405169 0.0349629 0.320393 -0.000108007 0.000217115 0.000147182 0 0 0 1 0 1 0 0 0 0 0 0 0 0 0 0 29 0.002 
446 9 0.00670921 0.0989118 0.0185739 0 0 0 -0.000592873 -0.210828 0.0228197 0.00123258 -4.01407e-05 5.7882e-05 0 0 0 0 0 0 0 0 2 0 0 0 0 0 0 0 48 0.002 
823 9 0.0087334 0.102754 0.0172367 0 0 0 -0.00532745 -0.0826806 0.156317 0.00858507 -0.00785478 -0.00383095 0 0 0 0 0 0 0 0 0 0 0 0 0 0 0 0 10 0.002 
1176 6 0.0185606 0.102956 0.0176987 0 0 0 0.228823 -0.185005 0.134049 -0.000932462 0.000231414 -0.00410655 0 0 0 0 0 1 0 0 0 0 0 0 0 0 0 0 1 0.002 
510 9 0.00501857 0.103688 0.018343 0 0 0 0.0505899 -0.0089039 0.073635 -0.00858507 0.00752605 0.00383095 0 0 0 0 0 0 0 0 0 0 0 0 0 0 0 0 63 0.002 
999 5 0.0128995 0.104412 0.0187045 0 0 0 0.0396282 -0.0310139 0.238359 -0.000536365 0.000269658 5.32893e-05 0 0 0 0 1 0 0 0 0 0 0 0 0 0 0 0 13 0.002 
760 3 0.00355728 0.107398 0.0172408 0 0 0 0.0714383 -0.11318 0.213349 -0.000500412 -0.000542593 -0.00531745 0 0 1 0 0 0 1 0 0 0 0 0 0 0 0 0 24 0.002 
1189 5 0.00921385 0.107696 0.0173761 0 0 0 0.138253 -0.02363 0.27141 0 -0.000164368 0 0 0 0 0 0 0 0 0 0 0 0 0 0 0 0 0 1 0.002 
818 4 0.016055 0.10728 0.0179451 0 0 0 0.0828095 0.000317311 0.0107685 0.000741371 0.00016476 -0.00210576 1 0 0 1 0 0 0 0 0 0 0 0 0 0 0 0 23 0.002 
1001 4 0.00931517 0.078818 0.0192309 0 0 0 -0.277381 -0.02908 0.111681 0 -0.000164368 0 0 0 0 0 0 0 0 0 0 0 0 0 0 0 0 0 26 0.002 
926 2 0.015456 0.0808047 0.0194848 0 0 0 0.163425 0.0104395 -0.199356 0 -0.000164368 0 0 0 0 0 0 0 0 0 0 0 0 0 0 0 0 0 17 0.002 
1229 6 0.00320257 0.084436 0.019735 0 0 0 -0.83664 0.2227 0.869583 0.0132479 -0.0100254 -0.0260742 0 0 1 0 0 0 0 0 0 0 0 0 0 0 0 0 1 0.002 
534 13 0.0112329 0.0862072 0.0194745 0 0 0 0.244288 0.181782 -0.161956 0 -0.000164368 0 0 0 0 0 0 0 0 0 0 0 0 0 0 0 0 0 38 0.002 
1204 4 0.0118597 0.0907832 0.0212164 0 0 0 0.140707 -0.239383 0.177863 0.00610634 -0.00180724 0.0121405 0 1 0 0 0 0 0 0 0 0 0 0 0 0 0 0 3 0.002 
1232 7 0.016989 0.0891782 0.0207994 0 0 0 -0.0858074 -0.22497 0.156287 0 -0.000164368 0 0 0 0 0 0 0 0 0 0 0 0 0 0 0 0 0 0 0.002 
278 11 0.00299435 0.0942214 0.0204732 0 0 0 0.00516095 -0.11264 0.0458839 -0.00115932 -0.00110757 -8.92289e-05 0 0 0 0 0 0 0 0 0 0 2 0 0 0 0 0 43 0.002 
1212 1 0.00924097 0.0958582 0.0191179 0 0 0 0.0329171 -0.188254 0.184354 0.00434253 -0.000192786 -0.00349122 1 0 1 0 0 1 0 0 0 0 0 0 0 0 0 0 7 0.002 
451 1 0.0129678 0.09558 0.02054 0 0 0 0.0679111 -0.196891 0.0623892 0.000748936 -0.000397101 -8.51938e-05 1 0 0 0 0 0 0 0 0 0 0 0 0 0 0 0 35 0.002 
938 2 0.0177087 0.095571 0.0208825 0 0 0 0.019672 -0.196502 0.116492 -0.000197383 -0.000296883 -0.000403328 0 1 0 0 0 0 0 0 0 0 0 0 0 0 0 0 9 0.002 
1116 4 0.00304971 0.0983907 0.0200895 0 0 0 0.00610943 -0.0810086 0.0960624 -0.00193561 0.00011153 3.15164e-05 0 0 0 0 0 0 0 0 1 0 0 0 0 0 0 0 16 0.002 
959 6 0.0112483 0.100284 0.0202195 0 0 0 0.0316631 -0.101488 0.236662 0 -0.000164368 0 0 0 0 0 0 0 0 0 0 0 0 0 0 0 0 0 26 0.002 
329 7 0.0154157 0.101644 0.0201198 0 0 0 0.0905144 0.0731021 0.289212 -0.000841 -0.00159204 -0.00186152 0 0 0 0 1 1 1 0 0 0 0 0 0 0 0 0 37 0.002 
1016 8 0.00932644 0.104317 0.0209255 0 0 0 -0.0165572 -0.161579 0.179162 -0.00184483 -0.00134773 5.46186e-05 0 0 0 0 0 0 0 0 0 0 0 0 0 0 0 0 5 0.002 
419 10 0.00305242 0.107508 0.0211963 0 0 0 -0.00864002 -0.0785313 0.187593 0.00156595 -0.00269875 -0.0126729 0 0 1 0 0 0 0 0 0 1 0 0 0 0 0 0 49 0.002 
403 8 0.0113676 0.107745 0.0208916 0 0 0 -0.148109 0.0128195 0.0445585 0.000544669 0.000586493 0.000103486 0 0 0 0 0 0 0 1 0 0 0 0 0 0 0 0 34 0.002 
693 8 0.00726795 0.107826 0.0209803 0 0 0 0.0105081 -0.0526967 0.283125 0 -0.000164368 0 0 0 0 0 0 0 0 0 0 0 0 0 0 0 0 0 33 0.002 
399 3 0.0106856 0.0768577 0.0226035 0 0 0 -0.0691684 -0.0485746 0.00409077 0 -0.000164368 0 0 0 0 0 0 0 0 0 0 0 0 0 0 0 0 0 39 0.002 
873 6 0.014664 0.0763857 0.0220261 0 0 0 -0.0187728 -0.124214 -0.0174469 0 -0.000164368 0 0 0 0 0 0 0 0 0 0 0 0 0 0 0 0 0 14 0.002 