ITEM: TIMESTEP
9800000
ITEM: NUMBER OF ATOMS
1202
ITEM: BOX BOUNDS ff ff ff
-0.01 0.45
-0.15 0.15
-0.08 0.1
ITEM: ATOMS id type x y z ix iy iz vx vy vz fx fy fz c_cc_1 c_cc_2 c_cc_3 c_cc_4 c_cc_5 c_cc_6 c_cc_7 c_cc_8 c_cc_9 c_cc_10 c_cc_11 c_cc_12 c_cc_13 c_cc_14 c_cc_15 c_cc_16 f_fppacc radius 
675 1 0.00790847 -0.0463618 -0.0343169 0 0 0 -1.03838 -12.185 15.0134 0 -0.000164368 0 0 0 0 0 0 0 0 0 0 0 0 0 0 0 0 0 30 0.002 
122 5 0.0172629 -0.0322384 -0.0469207 0 0 0 0.230336 -2.09437 -0.60815 0 -0.000164368 0 0 0 0 0 0 0 0 0 0 0 0 0 0 0 0 0 49 0.002 
659 4 0.0179761 -0.0280158 -0.0432267 0 0 0 1.33988 -7.60992 6.44902 0 -0.000164368 0 0 0 0 0 0 0 0 0 0 0 0 0 0 0 0 0 14 0.002 
821 3 0.0168187 0.0358701 0.0303722 0 0 0 0.394594 -1.29634 -0.126305 0 -0.000164368 0 0 0 0 0 0 0 0 0 0 0 0 0 0 0 0 0 17 0.002 
41 1 0.015124 0.0528566 -0.0355 0 0 0 1.37828e-307 -8.10361e-20 1.12852e-12 -1.48168e-307 0 0 0 0 0 0 0 0 0 0 0 0 0 0 0 0 0 0 2 0.002 
1204 4 0.0110916 0.066641 -0.0202972 0 0 0 -8.97155 10.4177 18.8483 0 -0.000164368 0 0 0 0 0 0 0 0 0 0 0 0 0 0 0 0 0 0 0.002 
750 1 0.0098836 0.0692279 -0.0126383 0 0 0 4.4634 -5.96077 -0.894844 0 -0.000164368 0 0 0 0 0 0 0 0 0 0 0 0 0 0 0 0 0 22 0.002 
1089 6 0.00336099 0.0524102 -0.0139487 0 0 0 1.3933 0.838555 -7.12107 0 -0.000164368 0 0 0 0 0 0 0 0 0 0 0 0 0 0 0 0 0 8 0.002 
1032 4 0.0102974 0.0406521 -0.0102706 0 0 0 4.45135 -4.48406 -25.4216 0 -0.000164368 0 0 0 0 0 0 0 0 0 0 0 0 0 0 0 0 0 13 0.002 
254 10 0.00683394 0.0670524 0.0157081 0 0 0 0.710692 -1.29343 0.548662 0 -0.000164368 0 0 0 0 0 0 0 0 0 0 0 0 0 0 0 0 0 39 0.002 
895 10 0.00358363 0.0644868 0.0183269 0 0 0 0.417189 -2.11882 0.637771 0 -0.000164368 0 0 0 0 0 0 0 0 0 0 0 0 0 0 0 0 0 40 0.002 
1011 6 0.016677 0.0739317 0.0183237 0 0 0 -0.922229 0.952011 -1.08226 0 -0.000164368 0 0 0 0 0 0 0 0 0 0 0 0 0 0 0 0 0 15 0.002 
854 2 0.00380673 0.0602016 0.0201398 0 0 0 -1.10679 -0.651511 0.152874 0 -0.000164368 0 0 0 0 0 0 0 0 0 0 0 0 0 0 0 0 0 25 0.002 
308 1 0.00371439 0.0696833 0.0201358 0 0 0 -0.344384 0.0928773 -0.414844 0 -0.000164368 0 0 0 0 0 0 0 0 0 0 0 0 0 0 0 0 0 54 0.002 
924 7 0.00997672 0.0578229 0.0188606 0 0 0 3.00045 1.52889 -5.78695 0 -0.000164368 0 0 0 0 0 0 0 0 0 0 0 0 0 0 0 0 0 16 0.002 
471 5 0.00380604 0.0742422 0.0211512 0 0 0 -0.11998 -0.0710698 -0.323918 0 -0.000164368 0 0 0 0 0 0 0 0 0 0 0 0 0 0 0 0 0 40 0.002 
263 2 0.00638139 0.0674275 0.0255723 0 0 0 0.13703 0.236687 -0.311751 0 -0.000164368 0 0 0 0 0 0 0 0 0 0 0 0 0 0 0 0 0 31 0.002 
624 7 0.0111223 0.0673846 0.0252169 0 0 0 -1.22111 -0.0986961 -0.730755 0 -0.000164368 0 0 0 0 0 0 0 0 0 0 0 0 0 0 0 0 0 32 0.002 
1111 4 0.00644175 0.0743649 0.0249089 0 0 0 -0.37494 -0.11322 -0.0820708 0 -0.000164368 0 0 0 0 0 0 0 0 0 0 0 0 0 0 0 0 0 12 0.002 
54 6 0.0104571 0.0749935 0.0247413 0 0 0 -0.349364 0.49811 -0.383143 0 -0.000164368 0 0 0 0 0 0 0 0 0 0 0 0 0 0 0 0 0 46 0.002 
589 5 0.00941578 0.0639791 0.0279006 0 0 0 1.65798 3.55241 -0.481117 -0.015741 0.0114105 0.00189917 0 0 0 0 0 0 0 0 0 0 0 0 0 0 0 0 32 0.002 
232 7 0.0168394 0.0618 0.027195 0 0 0 2.14634 -1.03191 -0.242659 0 -0.000164368 0 0 0 0 0 0 0 0 0 0 0 0 0 0 0 0 0 7 0.002 
811 5 0.0030971 0.0716453 0.0266331 0 0 0 0.0116542 0.0623467 -0.171262 0 -0.000164368 0 0 0 0 0 0 0 0 0 0 0 0 0 0 0 0 0 30 0.002 
288 1 0.0145899 0.0702419 0.0259049 0 0 0 -0.651984 -0.276638 0.137145 0 -0.000164368 0 0 0 0 0 0 0 0 0 0 0 0 0 0 0 0 0 33 0.002 
399 3 0.00651346 0.0579244 0.0279285 0 0 0 2.82374 2.96368 -0.460241 0 -0.000164368 0 0 0 0 0 0 0 0 0 0 0 0 0 0 0 0 0 36 0.002 
773 5 0.00641563 0.0656089 0.0299589 0 0 0 -0.554672 0.270122 -0.00696316 0.015741 -0.0117392 -0.00189917 0 0 0 0 0 0 0 0 0 0 0 0 0 0 0 0 18 0.002 
707 2 0.0132948 0.0668859 0.0285845 0 0 0 -1.16225 -0.472549 -0.334029 0 -0.000164368 0 0 0 0 0 0 0 0 0 0 0 0 0 0 0 0 0 51 0.002 
58 1 0.00653733 0.0723368 0.0295258 0 0 0 -0.137074 -0.00488423 -0.0125484 0 -0.000164368 0 0 0 0 0 0 0 0 0 0 0 0 0 0 0 0 0 41 0.002 
150 7 0.0107105 0.0715906 0.0292269 0 0 0 -0.022091 0.106396 -0.010705 0 -0.000164368 0 0 0 0 0 0 0 0 0 0 0 0 0 0 0 0 0 31 0.002 
513 4 0.0176574 0.0709831 0.0288681 0 0 0 -0.0884902 -0.0929561 -0.0980097 0.000303351 -0.000419128 0.000392366 0 0 0 1 0 0 0 0 0 0 0 0 0 0 0 0 44 0.002 
671 3 0.00300651 0.0747842 0.0296508 0 0 0 0.00430218 -0.0726756 -0.00410873 -0.000391521 -0.000706508 0.000120646 0 0 1 0 0 0 0 0 0 0 0 0 0 0 0 0 47 0.002 
130 1 0.0150654 0.0742919 0.0296014 0 0 0 -0.0431715 0.0306746 -0.0116616 0 -0.000164368 0 0 0 0 0 0 0 0 0 0 0 0 0 0 0 0 0 35 0.002 
189 5 0.0160891 0.0557685 0.0322517 0 0 0 -0.183268 -1.67304 1.16056 0.00632232 0.0276598 -0.0197221 0 0 0 0 1 0 0 0 0 0 0 0 0 0 0 0 27 0.002 
463 9 0.00309453 0.0655298 0.0323794 0 0 0 -0.0227971 -0.248708 -0.0747397 0 -0.000164368 0 0 0 0 0 0 0 0 0 0 0 0 0 0 0 0 0 38 0.002 
882 3 0.00993128 0.0668233 0.0325762 0 0 0 -0.316944 -0.405102 0.488665 0 -0.000164368 0 0 0 0 0 0 0 0 0 0 0 0 0 0 0 0 0 23 0.002 
874 1 0.0177667 0.0672871 0.0320391 0 0 0 -0.287308 -0.24348 -0.680444 0 -0.000164368 0 0 0 0 0 0 0 0 0 0 0 0 0 0 0 0 0 27 0.002 
1021 3 0.00496907 0.0691077 0.0313595 0 0 0 -0.0655194 -0.0408463 0.0432461 0 -0.000164368 0 0 0 0 0 0 0 0 0 0 0 0 0 0 0 0 0 14 0.002 
662 1 0.0132297 0.0483812 0.0328736 0 0 0 0.699578 -2.18867 -0.22516 0 -0.000164368 0 0 0 0 0 0 0 0 0 0 0 0 0 0 0 0 0 32 0.002 
404 6 0.0110154 0.0525976 0.032215 0 0 0 -0.578896 -1.73557 -0.649884 0 -0.000164368 0 0 0 0 0 0 0 0 0 0 0 0 0 0 0 0 0 25 0.002 
121 2 0.0152228 0.051931 0.0328107 0 0 0 -0.472588 -1.7531 -0.753451 -0.00632232 -0.0279885 0.0197221 0 0 0 0 1 0 0 0 0 0 0 0 0 0 0 0 42 0.002 
658 8 0.0114839 0.0589872 0.0329601 0 0 0 -0.978063 -0.645889 -0.766599 0 -0.000164368 0 0 0 0 0 0 0 0 0 0 0 0 0 0 0 0 0 30 0.002 
165 4 0.0136925 0.0687883 0.0328064 0 0 0 -0.0773395 -0.0269761 -0.175315 0 -0.000164368 0 0 0 0 0 0 0 0 0 0 0 0 0 0 0 0 0 32 0.002 
625 3 0.00299865 0.0723608 0.0328705 0 0 0 -0.0212641 -0.0322634 0.016077 -0.00302459 -0.00177388 -0.000529149 0 0 1 0 0 0 0 0 0 0 0 0 0 0 0 0 21 0.002 
1046 3 0.00923313 0.0722285 0.0329898 0 0 0 -0.0919273 -0.0729303 -0.0299192 0 -0.000164368 0 0 0 0 0 0 0 0 0 0 0 0 0 0 0 0 0 10 0.002 
104 1 0.0171291 0.0716413 0.0327708 0 0 0 -0.0454968 0.0340535 -0.0198688 -0.000303351 9.03913e-05 -0.000392366 0 0 0 1 0 0 0 0 0 0 0 0 0 0 0 0 23 0.002 
934 1 0.0061663 0.0747788 0.0326738 0 0 0 -0.0265513 -0.0246963 0.0153985 0.00474724 0.0026071 0.000259049 1 0 1 0 0 0 0 0 0 0 0 0 0 0 0 0 30 0.002 
577 2 0.0132006 0.0727614 0.0329339 0 0 0 -0.0805258 -0.00743053 -0.0308275 0 -0.000164368 0 0 0 0 0 0 0 0 0 0 0 0 0 0 0 0 0 24 0.002 
430 4 0.00299881 0.038729 0.042114 0 0 0 6.21683 16.5853 -20.8328 -0.36908 0.0277884 -0.0976019 0 0 0 0 0 0 0 0 0 0 0 0 0 0 0 0 39 0.002 
678 9 0.00428283 0.0868094 -0.0329696 0 0 0 0.177657 -0.682432 -1.15381 0 -0.000164368 0 0 0 0 0 0 0 0 0 0 0 0 0 0 0 0 0 29 0.002 
492 4 0.0131123 0.0889811 -0.0327651 0 0 0 0.26668 -0.843316 0.0347658 0 -0.000164368 0 0 0 0 0 0 0 0 0 0 0 0 0 0 0 0 0 25 0.002 
814 13 0.00473094 0.0952876 -0.032999 0 0 0 0.253064 0.0876038 0.1055 0 -0.000164368 0 0 0 0 0 0 0 0 0 0 0 0 0 0 0 0 0 35 0.002 
562 3 0.00893769 0.0977971 -0.0329651 0 0 0 0.328695 -0.158629 -0.111628 0 -0.000164368 0 0 0 0 0 0 0 0 0 0 0 0 0 0 0 0 0 23 0.002 
836 4 0.00319799 0.0990323 -0.0329833 0 0 0 0.115934 0.0034129 0.105411 0 -0.000164368 0 0 0 0 0 0 0 0 0 0 0 0 0 0 0 0 0 27 0.002 
709 1 0.0171617 0.102681 -0.0319256 0 0 0 0.00740915 0.706182 0.39917 0 -0.000164368 0 0 0 0 0 0 0 0 0 0 0 0 0 0 0 0 0 28 0.002 
598 1 0.00297278 0.105528 -0.0321154 0 0 0 -0.0077021 0.258777 -0.346699 0.0711563 0.00177112 0.00136829 0 0 0 0 0 0 0 0 0 0 0 0 0 0 0 0 31 0.002 
584 8 0.00645891 0.103394 -0.0318426 0 0 0 -0.299686 0.1471 -0.313868 -0.00307125 -0.00473771 0.000843716 0 0 0 0 0 0 0 1 0 0 0 0 0 0 0 0 42 0.002 
1093 3 0.00975792 0.105313 -0.0330061 0 0 0 -0.0169808 -0.0640331 0.0765747 -0.00372717 -0.00358218 -0.00493751 0 0 1 0 0 0 0 1 0 0 0 0 0 0 0 0 13 0.002 
396 3 0.0130176 0.103055 -0.0326383 0 0 0 -0.295294 -0.252903 0.163402 0.0128635 -0.0153587 -0.00597821 0 0 0 0 0 0 0 0 0 0 0 0 0 0 0 0 48 0.002 
1154 12 0.00632683 0.107678 -0.0329816 0 0 0 -0.222826 0.0377088 0.0238855 0 -0.000164368 0 0 0 0 0 0 0 0 0 0 0 0 0 0 0 0 0 2 0.002 
938 2 0.0149214 0.107798 -0.032778 0 0 0 0.0129925 -0.0532856 0.116332 0 -0.000164368 0 0 0 0 0 0 0 0 0 0 0 0 0 0 0 0 0 8 0.002 
145 6 0.0175951 0.0802802 -0.0302844 0 0 0 1.4588 -0.942249 -0.888007 0 -0.000164368 0 0 0 0 0 0 0 0 0 0 0 0 0 0 0 0 0 38 0.002 
633 6 0.00953191 0.0879292 -0.0311177 0 0 0 -0.12015 -0.760962 0.215855 0 -0.000164368 0 0 0 0 0 0 0 0 0 0 0 0 0 0 0 0 0 35 0.002 
645 2 0.00439668 0.0913553 -0.0317018 0 0 0 -0.693152 -0.44952 -0.732264 0 -0.000164368 0 0 0 0 0 0 0 0 0 0 0 0 0 0 0 0 0 31 0.002 
879 4 0.00308927 0.0970813 -0.0294862 0 0 0 0.136034 0.0934159 0.193585 0 -0.000164368 0 0 0 0 0 0 0 0 0 0 0 0 0 0 0 0 0 22 0.002 
1156 1 0.00612687 0.0996631 -0.0303076 0 0 0 0.193316 0.265646 0.154098 0 -0.000164368 0 0 0 0 0 0 0 0 0 0 0 0 0 0 0 0 0 3 0.002 
638 6 0.00917892 0.108014 -0.0301532 0 0 0 -0.106319 -0.0331201 0.0965597 -0.00485397 -0.000246872 -0.000777783 0 0 1 0 0 0 0 0 0 0 0 0 0 0 0 0 24 0.002 
1213 1 0.00443513 0.0821749 -0.0298461 0 0 0 0.88078 -0.781233 -1.65566 0 -0.000164368 0 0 0 0 0 0 0 0 0 0 0 0 0 0 0 0 0 0 0.002 
507 6 0.00460059 0.0879826 -0.028598 0 0 0 1.16439 -0.546084 -0.656545 0 -0.000164368 0 0 0 0 0 0 0 0 0 0 0 0 0 0 0 0 0 33 0.002 
1214 5 0.0084898 0.0949045 -0.0296882 0 0 0 0.814555 0.055751 -1.06008 0 -0.000164368 0 0 0 0 0 0 0 0 0 0 0 0 0 0 0 0 0 0 0.002 
1012 7 0.0157019 0.0974134 -0.0288167 0 0 0 0.958067 0.0458356 -0.123927 0 -0.000164368 0 0 0 0 0 0 0 0 0 0 0 0 0 0 0 0 0 25 0.002 
289 3 0.004386 0.104167 -0.0280906 0 0 0 -0.0547425 0.0784466 -0.0300348 0 -0.000164368 0 0 0 0 0 0 0 0 0 0 0 0 0 0 0 0 0 24 0.002 
1174 9 0.0106166 0.104306 -0.0287544 0 0 0 -0.236229 0.414505 0.131509 0 -0.000164368 0 0 0 0 0 0 0 0 0 0 0 0 0 0 0 0 0 1 0.002 
960 3 0.00303669 0.107967 -0.0282379 0 0 0 -0.139647 0.0993709 -0.127929 0 -0.000164368 0 0 0 0 0 0 0 0 0 0 0 0 0 0 0 0 0 12 0.002 
1067 10 0.0100307 0.0809839 -0.0256994 0 0 0 0.447311 -0.972779 0.98014 0 -0.000164368 0 0 0 0 0 0 0 0 0 0 0 0 0 0 0 0 0 7 0.002 
186 11 0.00634067 0.0943378 -0.0260302 0 0 0 1.56273 0.271718 0.0161969 0 -0.000164368 0 0 0 0 0 0 0 0 0 0 0 0 0 0 0 0 0 39 0.002 
317 11 0.00312613 0.100565 -0.0266315 0 0 0 0.00135491 0.0941479 -0.161338 -0.00123089 -0.0151367 -0.00388587 0 0 0 0 0 0 0 0 0 0 1 0 0 0 0 0 32 0.002 
512 7 0.0116115 0.103636 -0.0246089 0 0 0 0.108119 -0.653401 0.283124 0 -0.000164368 0 0 0 0 0 0 0 0 0 0 0 0 0 0 0 0 0 30 0.002 
570 1 0.0070478 0.107957 -0.0264423 0 0 0 -0.0462156 -0.0340986 0.0151731 0 -0.000164368 0 0 0 0 0 0 0 0 0 0 0 0 0 0 0 0 0 33 0.002 
1197 5 0.0173375 0.107756 -0.0255617 0 0 0 -0.209125 -0.221484 0.136219 0 -0.000164368 0 0 0 0 0 0 0 0 0 0 0 0 0 0 0 0 0 0 0.002 
620 1 0.00446851 0.0981662 -0.0237174 0 0 0 0.422574 0.290953 -0.0572052 0 -0.000164368 0 0 0 0 0 0 0 0 0 0 0 0 0 0 0 0 0 22 0.002 
356 7 0.0119965 0.0999477 -0.0225095 0 0 0 0.479422 -0.130603 0.275864 0 -0.000164368 0 0 0 0 0 0 0 0 0 0 0 0 0 0 0 0 0 45 0.002 
329 7 0.00354208 0.103638 -0.0241285 0 0 0 -0.0679809 0.0300722 -0.217984 0.00123089 0.014808 0.00388587 0 0 0 0 0 0 0 0 0 0 1 0 0 0 0 0 33 0.002 
1091 5 0.00747182 0.104216 -0.0234393 0 0 0 -0.0222967 -0.0291312 0.137537 0 -0.000164368 0 0 0 0 0 0 0 0 0 0 0 0 0 0 0 0 0 8 0.002 
1086 9 0.00301611 0.107789 -0.0242059 0 0 0 0.0162158 0.113858 -0.0991164 0 -0.000164368 0 0 0 0 0 0 0 0 0 0 0 0 0 0 0 0 0 8 0.002 
1058 2 0.00300472 0.100811 -0.0209528 0 0 0 -0.0471646 0.258664 0.207652 0 -0.000164368 0 0 0 0 0 0 0 0 0 0 0 0 0 0 0 0 0 17 0.002 
1120 6 0.0153029 0.106132 -0.0219992 0 0 0 0.396046 -0.437507 -0.355731 0 -0.000164368 0 0 0 0 0 0 0 0 0 0 0 0 0 0 0 0 0 2 0.002 
713 7 0.00339677 0.107992 -0.0201705 0 0 0 0.000389792 -0.00246171 -0.0454147 0 -0.000164368 0 0 0 0 0 0 0 0 0 0 0 0 0 0 0 0 0 30 0.002 
961 1 0.00408914 0.0975319 -0.0182929 0 0 0 0.185474 0.132639 0.317976 0 -0.000164368 0 0 0 0 0 0 0 0 0 0 0 0 0 0 0 0 0 10 0.002 
661 2 0.00828881 0.0982777 -0.0176453 0 0 0 0.399233 0.0119285 0.462409 0 -0.000164368 0 0 0 0 0 0 0 0 0 0 0 0 0 0 0 0 0 13 0.002 
891 2 0.00640612 0.101643 -0.0190169 0 0 0 0.014924 -0.0785448 0.408917 0 -0.000164368 0 0 0 0 0 0 0 0 0 0 0 0 0 0 0 0 0 12 0.002 
1215 2 0.00301774 0.104658 -0.0177047 0 0 0 0.0120203 0.15563 0.443862 0 -0.000164368 0 0 0 0 0 0 0 0 0 0 0 0 0 0 0 0 0 0 0.002 
546 1 0.0100784 0.103583 -0.0178215 0 0 0 -0.0315869 0.311276 0.11559 0 -0.000164368 0 0 0 0 0 0 0 0 0 0 0 0 0 0 0 0 0 31 0.002 
582 7 0.00337498 0.100949 -0.0162015 0 0 0 0.09093 0.199287 0.459787 0 -0.000164368 0 0 0 0 0 0 0 0 0 0 0 0 0 0 0 0 0 24 0.002 
729 9 0.014226 0.101869 -0.0175723 0 0 0 -0.0222793 0.349509 -0.179826 0 -0.000164368 0 0 0 0 0 0 0 0 0 0 0 0 0 0 0 0 0 28 0.002 
551 10 0.0171076 0.10513 -0.0157866 0 0 0 -2.06308 0.14247 3.10478 0 -0.000164368 0 0 0 0 0 0 0 0 0 0 0 0 0 0 0 0 0 18 0.002 
1121 3 0.00679955 0.106441 -0.0167209 0 0 0 -0.313064 0.160362 0.365523 0 -0.000164368 0 0 0 0 0 0 0 0 0 0 0 0 0 0 0 0 0 0 0.002 
1062 4 0.00302989 0.0955315 -0.0149484 0 0 0 0.33741 -0.000619353 -0.0634869 0 -0.000164368 0 0 0 0 0 0 0 0 0 0 0 0 0 0 0 0 0 14 0.002 
1218 8 0.0144302 0.095393 -0.0149604 0 0 0 0.617324 -0.676041 -0.187291 0 -0.000164368 0 0 0 0 0 0 0 0 0 0 0 0 0 0 0 0 0 0 0.002 
999 5 0.00386604 0.107859 -0.0142927 0 0 0 -0.429228 0.209252 0.457757 0 -0.000164368 0 0 0 0 0 0 0 0 0 0 0 0 0 0 0 0 0 9 0.002 
1201 4 0.0116477 0.105919 -0.0149495 0 0 0 -0.0562481 -0.13011 -0.198648 0 -0.000164368 0 0 0 0 0 0 0 0 0 0 0 0 0 0 0 0 0 1 0.002 
293 1 0.0151633 0.107985 -0.0133735 0 0 0 -0.0554962 -0.23497 0.345436 0 -0.000164368 0 0 0 0 0 0 0 0 0 0 0 0 0 0 0 0 0 35 0.002 
767 5 0.00784101 0.100652 -0.0127443 0 0 0 0.738944 0.883479 0.643458 0 -0.000164368 0 0 0 0 0 0 0 0 0 0 0 0 0 0 0 0 0 26 0.002 
602 6 0.00980373 0.097946 -0.00976294 0 0 0 1.06102 0.373152 0.0299472 0 -0.000164368 0 0 0 0 0 0 0 0 0 0 0 0 0 0 0 0 0 24 0.002 
451 1 0.00652445 0.10369 -0.0092446 0 0 0 0.34613 0.730702 0.39733 0 -0.000164368 0 0 0 0 0 0 0 0 0 0 0 0 0 0 0 0 0 33 0.002 
489 10 0.012226 0.103206 -0.00912664 0 0 0 -0.327342 -0.860338 0.0622071 0 -0.000164368 0 0 0 0 0 0 0 0 0 0 0 0 0 0 0 0 0 39 0.002 
760 3 0.00506989 0.107862 -0.0103833 0 0 0 0.00532911 1.08568 0.524726 0 -0.000164368 0 0 0 0 0 0 0 0 0 0 0 0 0 0 0 0 0 20 0.002 
297 3 0.00366305 0.0765413 -0.00667016 0 0 0 -3.23972 2.67009 2.41409 0 -0.000164368 0 0 0 0 0 0 0 0 0 0 0 0 0 0 0 0 0 42 0.002 
1124 4 0.0177579 0.0779494 -0.00806135 0 0 0 0.929144 1.3879 -1.47648 0 -0.000164368 0 0 0 0 0 0 0 0 0 0 0 0 0 0 0 0 0 3 0.002 
1103 1 0.00823263 0.107443 -0.00671429 0 0 0 0.0295641 0.00181176 -0.0457784 0 -0.000164368 0 0 0 0 0 0 0 0 0 0 0 0 0 0 0 0 0 11 0.002 
526 2 0.00952944 0.0996699 -0.00414715 0 0 0 0.997295 0.273679 0.955183 0 -0.000164368 0 0 0 0 0 0 0 0 0 0 0 0 0 0 0 0 0 22 0.002 
167 2 0.00999802 0.104297 -0.00416791 0 0 0 0.167951 -0.427155 0.118752 0 -0.000164368 0 0 0 0 0 0 0 0 0 0 0 0 0 0 0 0 0 27 0.002 
1147 9 0.00457484 0.0892876 -0.00302818 0 0 0 0.346358 0.0386439 -0.3392 0 -0.000164368 0 0 0 0 0 0 0 0 0 0 0 0 0 0 0 0 0 5 0.002 
833 6 0.00992755 0.0923641 -0.002989 0 0 0 -0.594441 -1.70133 0.836531 0 -0.000164368 0 0 0 0 0 0 0 0 0 0 0 0 0 0 0 0 0 21 0.002 
704 9 0.0157188 0.0915313 -0.00386165 0 0 0 0.387838 -1.58586 -0.809405 0 -0.000164368 0 0 0 0 0 0 0 0 0 0 0 0 0 0 0 0 0 24 0.002 
377 4 0.0164462 0.104013 -0.00196311 0 0 0 -0.0186994 0.700317 1.24241 0 -0.000164368 0 0 0 0 0 0 0 0 0 0 0 0 0 0 0 0 0 46 0.002 
419 10 0.00543866 0.10701 -0.00230244 0 0 0 -0.386976 -0.445502 0.33327 0 -0.000164368 0 0 0 0 0 0 0 0 0 0 0 0 0 0 0 0 0 45 0.002 
797 6 0.00301698 0.0987123 -0.00141526 0 0 0 0.0419362 0.196982 -0.184434 0 -0.000164368 0 0 0 0 0 0 0 0 0 0 0 0 0 0 0 0 0 30 0.002 
674 10 0.00438767 0.104219 0.000527213 0 0 0 0.282729 0.0760499 -0.352624 0 -0.000164368 0 0 0 0 0 0 0 0 0 0 0 0 0 0 0 0 0 26 0.002 
1127 2 0.0129519 0.107604 -0.00135632 0 0 0 -0.0477454 -0.109557 0.351593 0 -0.000164368 0 0 0 0 0 0 0 0 0 0 0 0 0 0 0 0 0 3 0.002 
907 8 0.00503333 0.0964749 0.00155692 0 0 0 0.364142 0.165018 -0.314618 0 -0.000164368 0 0 0 0 0 0 0 0 0 0 0 0 0 0 0 0 0 21 0.002 
510 9 0.00627314 0.100352 0.00180912 0 0 0 -0.132489 -0.0510566 -0.128999 0 -0.000164368 0 0 0 0 0 0 0 0 0 0 0 0 0 0 0 0 0 63 0.002 
1167 8 0.011295 0.099902 0.00251326 0 0 0 -0.076582 -0.208312 0.253301 0 -0.000164368 0 0 0 0 0 0 0 0 0 0 0 0 0 0 0 0 0 0 0.002 
765 1 0.0161228 0.101554 0.00138252 0 0 0 0.658436 0.0984958 0.632884 0 -0.000164368 0 0 0 0 0 0 0 0 0 0 0 0 0 0 0 0 0 21 0.002 
930 3 0.00938779 0.103576 0.00277411 0 0 0 0.29272 0.140079 0.302731 -0.0185862 -0.0584266 -0.0045669 0 0 1 0 0 0 0 0 0 0 0 0 0 0 0 0 34 0.002 
632 6 0.0107359 0.107246 0.00214237 0 0 0 0.01454 -0.062288 0.2469 0.0185862 0.0580979 0.0045669 0 0 1 0 0 0 0 0 0 0 0 0 0 0 0 0 32 0.002 
922 5 0.0163541 0.107882 0.00286637 0 0 0 0.317592 -0.0824295 0.210882 0 -0.000164368 0 0 0 0 0 0 0 0 0 0 0 0 0 0 0 0 0 9 0.002 
827 2 0.0157386 0.0789978 0.00273247 0 0 0 0.111516 -0.443868 -0.816094 0 -0.000164368 0 0 0 0 0 0 0 0 0 0 0 0 0 0 0 0 0 23 0.002 
395 6 0.0175662 0.0837904 0.00437314 0 0 0 -0.482498 -0.460132 0.198701 0 -0.000164368 0 0 0 0 0 0 0 0 0 0 0 0 0 0 0 0 0 44 0.002 
976 5 0.00458855 0.088181 0.00512962 0 0 0 0.352009 0.446974 0.0952131 0 -0.000164368 0 0 0 0 0 0 0 0 0 0 0 0 0 0 0 0 0 9 0.002 
1196 5 0.0147676 0.0916723 0.00491705 0 0 0 -0.428785 1.08664 -0.51338 0.0105108 -0.00275755 -0.0103393 0 0 0 0 1 0 0 0 0 0 0 0 0 0 0 0 1 0.002 
446 9 0.00396716 0.102291 0.00486873 0 0 0 0.047276 0.265032 -0.00780802 0 -0.000164368 0 0 0 0 0 0 0 0 0 0 0 0 0 0 0 0 0 41 0.002 
946 1 0.0147137 0.104203 0.0043846 0 0 0 0.327734 0.111942 0.705198 0 -0.000164368 0 0 0 0 0 0 0 0 0 0 0 0 0 0 0 0 0 15 0.002 
306 3 0.00396593 0.10758 0.00373283 0 0 0 -0.0645028 -0.0887575 0.0792087 0 -0.000164368 0 0 0 0 0 0 0 0 0 0 0 0 0 0 0 0 0 40 0.002 
1043 8 0.006093 0.097855 0.00635698 0 0 0 0.305641 -0.00584069 -0.354749 0 -0.000164368 0 0 0 0 0 0 0 0 0 0 0 0 0 0 0 0 0 12 0.002 
9 6 0.0108052 0.100439 0.00680397 0 0 0 0.636172 0.0757445 0.0907037 0 -0.000164368 0 0 0 0 0 0 0 0 0 0 0 0 0 0 0 0 0 50 0.002 
375 4 0.00971329 0.104416 0.00669847 0 0 0 0.368655 0.0825706 0.12772 0 -0.000164368 0 0 0 0 0 0 0 0 0 0 0 0 0 0 0 0 0 27 0.002 
1187 4 0.00757313 0.10783 0.00765991 0 0 0 0.0498689 -0.116339 0.115649 0 -0.000164368 0 0 0 0 0 0 0 0 0 0 0 0 0 0 0 0 0 0 0.002 
945 9 0.0178071 0.0787851 0.00787648 0 0 0 0.789012 -0.633218 -0.314487 0 -0.000164368 0 0 0 0 0 0 0 0 0 0 0 0 0 0 0 0 0 13 0.002 
1193 8 0.00832495 0.0972684 0.00984288 0 0 0 0.0476789 0.0761356 -0.0510007 0 -0.000164368 0 0 0 0 0 0 0 0 0 0 0 0 0 0 0 0 0 2 0.002 
719 3 0.00464303 0.104904 0.00792958 0 0 0 0.155521 0.110502 0.228663 -0.000334758 0.00654408 -0.00461283 0 0 1 0 0 0 0 0 0 0 0 0 0 0 0 0 19 0.002 
1017 2 0.0137896 0.105872 0.0084687 0 0 0 0.163231 0.0441998 0.333873 0 -0.000164368 0 0 0 0 0 0 0 0 0 0 0 0 0 0 0 0 0 2 0.002 
336 9 0.0181863 0.107337 0.00797063 0 0 0 0.445498 0.195265 0.216461 0 -0.000164368 0 0 0 0 0 0 0 0 0 0 0 0 0 0 0 0 0 34 0.002 
639 9 0.0184307 0.0906004 0.00373569 0 0 0 -0.243021 -0.54569 0.093572 -0.0105108 0.00242881 0.0103393 0 0 0 0 1 0 0 0 0 0 0 0 0 0 0 0 42 0.002 
524 5 0.0150161 0.0890807 0.00983986 0 0 0 1.3496 -0.291913 -0.425358 0 -0.000164368 0 0 0 0 0 0 0 0 0 0 0 0 0 0 0 0 0 35 0.002 
592 7 0.0185893 0.100579 -0.0261184 0 0 0 -0.459582 -0.151109 1.20219 0 -0.000164368 0 0 0 0 0 0 0 0 0 0 0 0 0 0 0 0 0 37 0.002 
896 1 0.0180368 0.107563 0.0329289 0 0 0 0.212599 -0.0250242 0.000152438 -0.000372272 0.000664918 0.00170943 1 0 0 0 0 0 0 0 0 0 0 0 0 0 0 0 28 0.002 
593 1 0.0170295 0.0938515 0.0107253 0 0 0 0.675092 0.470725 0.512213 0 -0.000164368 0 0 0 0 0 0 0 0 0 0 0 0 0 0 0 0 0 34 0.002 
278 11 0.00335115 0.0955607 0.0115805 0 0 0 0.060352 0.0485061 0.126585 -0.000299509 -0.00041193 0.000465017 0 0 0 0 0 0 0 0 0 0 1 0 0 0 0 0 39 0.002 
1221 1 0.0107074 0.0941678 0.0110434 0 0 0 0.58042 0.341731 -0.0290289 0 -0.000164368 0 0 0 0 0 0 0 0 0 0 0 0 0 0 0 0 0 0 0.002 
809 1 0.0147863 0.0973342 0.0108765 0 0 0 0.0657451 0.855311 0.419047 0 -0.000164368 0 0 0 0 0 0 0 0 0 0 0 0 0 0 0 0 0 21 0.002 
1116 4 0.0033043 0.0997327 0.0106455 0 0 0 0.013641 0.0195779 0.0615291 0 -0.000164368 0 0 0 0 0 0 0 0 0 0 0 0 0 0 0 0 0 15 0.002 
706 9 0.0106656 0.0999867 0.0118234 0 0 0 0.126125 0.0035142 0.0238802 -5.47902e-05 -0.000216956 -0.000201151 0 0 0 0 0 0 0 0 1 0 0 0 0 0 0 0 45 0.002 
1031 3 0.0185375 0.0997154 0.0118933 0 0 0 0.109779 0.0362795 0.434933 0 -0.000164368 0 0 0 0 0 0 0 0 0 0 0 0 0 0 0 0 0 12 0.002 
400 7 0.00639799 0.102457 0.0105418 0 0 0 0.125822 -0.0977383 0.103199 0.000334758 -0.00687282 0.00461283 0 0 0 0 0 0 1 0 0 0 0 0 0 0 0 0 38 0.002 
985 4 0.0146202 0.102057 0.0107008 0 0 0 0.236101 0.2138 0.0697624 0.012821 -0.00835459 0.000141985 0 0 0 1 0 0 0 0 0 0 0 0 0 0 0 0 11 0.002 
695 2 0.0110392 0.103786 0.01049 0 0 0 0.241454 0.159605 0.205568 -0.012821 0.00802586 -0.000141985 0 0 0 1 0 0 0 0 0 0 0 0 0 0 0 0 20 0.002 
1040 3 0.00301256 0.107752 0.0102353 0 0 0 -0.00063383 -0.0705548 0.314826 0 -0.000164368 0 0 0 0 0 0 0 0 0 0 0 0 0 0 0 0 0 13 0.002 
1191 3 0.00680958 0.107627 0.0116969 0 0 0 0.123498 0.0277794 0.132602 0 -0.000164368 0 0 0 0 0 0 0 0 0 0 0 0 0 0 0 0 0 1 0.002 
114 6 0.0158853 0.107778 0.0114335 0 0 0 0.44274 0.152787 0.413588 0 -0.000164368 0 0 0 0 0 0 0 0 0 0 0 0 0 0 0 0 0 21 0.002 
574 5 0.0126401 0.0835288 0.0131049 0 0 0 0.18111 0.365239 -0.486734 0 -0.000164368 0 0 0 0 0 0 0 0 0 0 0 0 0 0 0 0 0 24 0.002 
516 2 0.0159591 0.0867402 0.0134691 0 0 0 0.488025 -0.468532 -0.0480108 -0.0189797 0.0343635 -0.0573655 0 1 0 0 0 0 0 0 0 0 0 0 0 0 0 0 35 0.002 
1066 1 0.00603366 0.0910795 0.013456 0 0 0 0.592941 -0.100773 0.442983 0 -0.000164368 0 0 0 0 0 0 0 0 0 0 0 0 0 0 0 0 0 22 0.002 
863 1 0.0126312 0.0975299 0.0144494 0 0 0 0.0617455 -0.118695 0.0736384 -0.000906316 0.00107955 -0.000944804 1 0 0 0 0 0 0 0 0 0 0 0 0 0 0 0 12 0.002 
988 10 0.00675546 0.0987813 0.0132018 0 0 0 0.0665391 -0.01181 -0.0360247 0.000133518 -0.00264518 -0.00101408 0 0 0 0 0 0 0 0 0 1 0 0 0 0 0 0 13 0.002 
338 6 0.00828847 0.102353 0.0141164 0 0 0 0.0376865 -0.0248012 0.167584 -0.0019677 -0.00031124 0.000560332 0 0 0 0 0 1 0 0 0 1 0 0 0 0 0 0 31 0.002 
1065 3 0.00340951 0.10436 0.0124005 0 0 0 0.0717559 -0.0624228 0.0679402 0 -0.000164368 0 0 0 0 0 0 0 0 0 0 0 0 0 0 0 0 0 12 0.002 
1076 2 0.0173215 0.103795 0.0135464 0 0 0 0.340628 0.171161 0.157958 0 -0.000164368 0 0 0 0 0 0 0 0 0 0 0 0 0 0 0 0 0 6 0.002 
107 2 0.0131151 0.105674 0.0134196 0 0 0 0.349842 0.0294825 0.197746 0.000118545 -0.00109621 -0.000478823 0 1 0 0 0 0 0 0 0 0 0 0 0 0 0 0 12 0.002 
1142 2 0.0030795 0.108003 0.0145347 0 0 0 -0.0427358 0.0353237 0.130893 -0.0010245 -0.00571479 -0.00257919 0 0 0 0 0 0 0 0 0 0 0 0 0 0 0 0 2 0.002 
199 4 0.00527127 0.0802157 0.0147454 0 0 0 0.0357855 0.147058 -0.428676 0 -0.000164368 0 0 0 0 0 0 0 0 0 0 0 0 0 0 0 0 0 44 0.002 
865 7 0.0181586 0.0856993 0.0165855 0 0 0 0.412358 -0.0107808 -0.0381767 0.0170895 -0.0222301 0.0390518 0 1 0 0 0 0 1 0 0 0 0 0 0 0 0 0 12 0.002 
503 7 0.00301089 0.0871419 0.0145467 0 0 0 -0.0228017 -0.231507 0.0591668 0 -0.000164368 0 0 0 0 0 0 0 0 0 0 0 0 0 0 0 0 0 24 0.002 
261 1 0.00660825 0.088021 0.0160761 0 0 0 -0.0620207 -0.235732 0.271766 0 -0.000164368 0 0 0 0 0 0 0 0 0 0 0 0 0 0 0 0 0 35 0.002 
1060 2 0.0130967 0.0882554 0.0163985 0 0 0 0.359169 -0.343964 0.0444354 0 -0.000164368 0 0 0 0 0 0 0 0 0 0 0 0 0 0 0 0 0 7 0.002 
926 2 0.0143703 0.0933064 0.0145493 0 0 0 0.197224 -0.220295 0.0255229 0 -0.000164368 0 0 0 0 0 0 0 0 0 0 0 0 0 0 0 0 0 15 0.002 
321 7 0.00312104 0.0939213 0.0152211 0 0 0 -0.0605227 -0.139778 0.06634 0.000165994 0.00181171 -0.00395174 0 0 0 0 0 0 2 0 0 0 1 0 0 0 0 0 27 0.002 
873 6 0.0104022 0.0940669 0.0150905 0 0 0 0.245913 0.0535235 0.0301778 0 -0.000164368 0 0 0 0 0 0 0 0 0 0 0 0 0 0 0 0 0 14 0.002 
892 5 0.00299754 0.0979041 0.0158104 0 0 0 0.0143456 -0.150373 0.09152 0.000238005 0.000105707 -6.05443e-05 0 0 0 0 1 0 0 0 0 0 0 0 0 0 0 0 14 0.002 
726 1 0.00908711 0.0979636 0.0164001 0 0 0 0.0594523 -0.0194938 0.050328 0.00172656 -0.00304734 -0.00138958 1 0 0 0 0 0 0 0 0 0 0 0 0 0 0 0 23 0.002 
1153 8 0.00595281 0.100414 0.0167755 0 0 0 0.045007 -0.131697 0.08039 -0.00155104 0.00245021 0.00103803 1 0 0 0 1 0 0 1 0 0 0 0 0 0 0 0 8 0.002 
59 3 0.0160616 0.0990098 0.0161368 0 0 0 0.036506 -0.134615 0.015332 0 -0.000164368 0 0 0 0 0 0 0 0 0 0 0 0 0 0 0 0 0 12 0.002 
480 3 0.0129396 0.101835 0.0145429 0 0 0 0.19554 -0.0454924 0.0182518 -0.00400331 0.000419515 -0.00391075 0 0 2 0 0 0 0 0 1 0 0 0 0 0 0 0 34 0.002 
531 1 0.00389212 0.10454 0.0163732 0 0 0 0.00704197 0.00282227 0.0598467 0 -0.000164368 0 0 0 0 0 0 0 0 0 0 0 0 0 0 0 0 0 49 0.002 
941 3 0.00884571 0.106227 0.0149211 0 0 0 0.206777 -0.054289 0.00996036 0.00183418 0.00246331 0.000453747 0 0 0 0 0 1 0 0 0 0 0 0 0 0 0 0 21 0.002 
1078 1 0.0162639 0.107162 0.016163 0 0 0 0.183547 0.0473807 0.188575 -0.00227774 -8.94587e-05 -0.00927986 1 0 0 0 0 0 0 0 0 0 0 0 0 0 0 0 3 0.002 
1023 1 0.0121098 0.108006 0.0165087 0 0 0 0.169654 0.0073403 0.123265 -5.42027e-05 -0.00634322 4.56425e-05 0 1 0 0 0 0 0 0 0 0 0 0 0 0 0 0 13 0.002 
979 4 0.00592806 0.0833794 0.0188137 0 0 0 0.163395 0.117001 0.136448 0 -0.000164368 0 0 0 0 0 0 0 0 0 0 0 0 0 0 0 0 0 24 0.002 
299 1 0.0171817 0.0826307 0.0189118 0 0 0 0.599341 0.000254541 0.212514 0.00189029 -0.0126264 0.0183137 0 0 0 0 0 0 1 0 0 0 0 0 0 0 0 0 33 0.002 
69 6 0.0113091 0.0849074 0.0178481 0 0 0 0.815117 0.00683025 0.465874 0 -0.000164368 0 0 0 0 0 0 0 0 0 0 0 0 0 0 0 0 0 32 0.002 
425 1 0.00300494 0.0909398 0.0178715 0 0 0 -0.00143771 -0.250891 0.00747021 -0.000623571 -0.00163738 0.000781635 0 0 0 0 0 0 1 0 0 0 0 0 0 0 0 0 38 0.002 
860 11 0.0157005 0.0922093 0.0181681 0 0 0 0.195503 -0.0988599 0.0829669 0 -0.000164368 0 0 0 0 0 0 0 0 0 0 0 0 0 0 0 0 0 27 0.002 
128 4 0.00596594 0.095388 0.0176108 0 0 0 -0.0168028 -0.0555995 0.00736747 -0.00101257 -0.0010734 -0.000102997 0 0 0 0 0 0 1 0 0 0 0 0 0 0 0 0 33 0.002 
876 14 0.00994435 0.0949544 0.018968 0 0 0 0.145607 -0.00244449 0.0385624 0 -0.000164368 0 0 0 0 0 0 0 0 0 0 0 0 0 0 0 0 0 12 0.002 
459 5 0.0139159 0.0958538 0.0178412 0 0 0 -0.0231736 -0.141271 0.0984152 0.000633054 -0.00175435 -0.000571272 1 0 0 0 1 0 0 0 0 0 0 0 0 0 0 0 25 0.002 
595 6 0.0179946 0.0957033 0.017347 0 0 0 0.0938471 -0.144651 0.0549577 0 -0.000164368 0 0 0 0 0 0 0 0 0 0 0 0 0 0 0 0 0 34 0.002 
176 2 0.0127047 0.100217 0.0181913 0 0 0 0.101094 -0.129302 0.0124008 0.000143165 0.000685169 -0.00182904 0 2 1 0 0 0 0 0 0 0 0 0 0 0 0 0 30 0.002 
798 4 0.0156199 0.102819 0.0173364 0 0 0 0.0496066 -0.0874355 0.0502466 0.00392092 -0.00143039 0.00431556 0 0 1 0 0 0 0 0 0 0 0 0 0 0 0 0 20 0.002 
665 2 0.00726425 0.104266 0.0185219 0 0 0 0.0422159 -0.0398518 0.0243994 -3.79864e-05 -0.000202281 -1.40368e-05 0 1 0 0 0 0 0 0 0 0 0 0 0 0 0 0 19 0.002 
322 2 0.0113049 0.104164 0.0182783 0 0 0 0.100946 -0.0738805 0.0823679 0 -0.000164368 0 0 0 0 0 0 0 0 0 0 0 0 0 0 0 0 0 40 0.002 
690 2 0.00351434 0.107758 0.0187602 0 0 0 0.0479092 -0.0024741 0.15347 -8.69047e-05 -0.000481624 0.000164097 0 0 0 0 0 0 0 0 0 0 0 0 0 0 0 0 15 0.002 
1206 3 0.00872814 0.107984 0.0186503 0 0 0 0.0712597 -0.0394228 0.0307707 4.94454e-05 -0.000411863 -0.000737844 0 1 1 0 0 0 0 0 0 0 0 0 0 0 0 0 2 0.002 
769 5 0.0147216 0.0789115 0.0193091 0 0 0 0.17962 0.137128 -0.220669 0 -0.000164368 0 0 0 0 0 0 0 0 0 0 0 0 0 0 0 0 0 28 0.002 
768 6 0.0128688 0.0830613 0.0213141 0 0 0 0.253048 -0.098496 0.440593 -0.00877972 -0.00549389 -0.00277332 0 0 0 0 0 1 0 0 0 0 0 0 0 0 0 0 19 0.002 
1155 5 0.0154376 0.0860942 0.0210263 0 0 0 0.178718 -0.0510108 0.0522464 0.006909 0.00666968 0.00225143 0 0 0 0 1 1 0 0 0 0 0 0 0 0 0 0 7 0.002 
904 3 0.0033716 0.0865328 0.0191074 0 0 0 -0.00757179 -0.406873 0.11624 0 -0.000164368 0 0 0 0 0 0 0 0 0 0 0 0 0 0 0 0 0 12 0.002 
1192 2 0.00923436 0.088398 0.0204499 0 0 0 0.26624 0.144731 -0.0148392 0 -0.000164368 0 0 0 0 0 0 0 0 0 0 0 0 0 0 0 0 0 1 0.002 
1188 4 0.0136573 0.0896814 0.020572 0 0 0 0.130003 -0.00296003 -0.108336 0 -0.000164368 0 0 0 0 0 0 0 0 0 0 0 0 0 0 0 0 0 4 0.002 
287 6 0.00680688 0.09179 0.0191876 0 0 0 0.0266942 -0.03339 0.0934184 0 -0.000164368 0 0 0 0 0 0 0 0 0 0 0 0 0 0 0 0 0 28 0.002 
534 13 0.00300286 0.0945742 0.0202736 0 0 0 0.0438019 -0.0430315 0.0431838 0.000372457 0.00202779 -0.00255597 0 0 0 0 0 0 0 0 0 0 0 0 1 0 0 0 34 0.002 
140 4 0.0161119 0.0958031 0.0211788 0 0 0 0.144358 -0.108874 -0.00442635 0.000273262 0.000181699 0.00151608 0 0 0 0 1 0 0 0 0 0 0 0 0 0 0 0 32 0.002 
606 4 0.0070634 0.0971768 0.0210104 0 0 0 0.0796716 0.036199 -0.082863 0.00154426 0.00116766 0.00140179 0 0 0 0 0 0 0 0 0 0 0 0 0 0 0 0 41 0.002 
364 3 0.00344857 0.0990319 0.0196318 0 0 0 -0.134848 0.0696347 0.0586807 0.00256772 -0.00160888 -0.00399362 0 0 1 0 0 0 0 0 0 0 0 0 0 0 0 0 31 0.002 
998 5 0.00893516 0.100741 0.0194153 0 0 0 0.110105 -0.0155057 0.0167951 0.000840177 0.000555959 -0.0004144 0 1 0 0 1 0 0 1 0 0 0 0 0 0 0 0 11 0.002 
1051 10 0.0185636 0.100636 0.0193439 0 0 0 0.14392 -0.0890718 0.220315 0 -0.000164368 0 0 0 0 0 0 0 0 0 0 0 0 0 0 0 0 0 9 0.002 
1115 2 0.0029982 0.104092 0.0202676 0 0 0 0.00747405 -0.054783 0.104499 1.56295e-05 0.00148694 -0.000869789 0 1 0 0 0 0 0 0 0 0 0 0 0 0 0 0 2 0.002 
18 3 0.0146819 0.104048 0.0210302 0 0 0 -0.0183416 -0.0901776 0.056745 1.25169e-05 -0.000135459 9.22769e-05 0 0 1 0 0 0 0 0 0 0 0 0 0 0 0 0 36 0.002 
1183 1 0.0186735 0.104201 0.0212587 0 0 0 0.00232727 -0.0907168 0.0829163 4.33647e-05 -0.000151531 9.98071e-05 1 0 0 0 0 0 0 0 0 0 0 0 0 0 0 0 2 0.002 
718 11 0.0132391 0.107983 0.020349 0 0 0 0.0921378 -0.0128958 0.186384 0 -0.000164368 0 0 0 0 0 0 0 0 0 0 0 0 0 0 0 0 0 28 0.002 
635 4 0.0183145 0.107911 0.01949 0 0 0 0.226259 0.0369403 0.344551 0.00324225 -0.000344366 -0.00368996 1 0 0 0 0 0 0 0 0 0 0 0 0 0 0 0 42 0.002 