ITEM: TIMESTEP
10000000
ITEM: NUMBER OF ATOMS
1225
ITEM: BOX BOUNDS ff ff ff
-0.01 0.45
-0.15 0.15
-0.08 0.1
ITEM: ATOMS id type x y z ix iy iz vx vy vz fx fy fz c_cc_1 c_cc_2 c_cc_3 c_cc_4 c_cc_5 c_cc_6 c_cc_7 c_cc_8 c_cc_9 c_cc_10 c_cc_11 c_cc_12 c_cc_13 c_cc_14 c_cc_15 c_cc_16 f_fppacc radius 
854 2 0.0116484 0.0265076 0.021567 0 0 0 0.308436 -2.57028 2.26268 0 -0.000164368 0 0 0 0 0 0 0 0 0 0 0 0 0 0 0 0 0 25 0.002 
671 3 0.00903239 0.0307728 0.0222692 0 0 0 0.35894 -1.48019 -0.64716 0 -0.000164368 0 0 0 0 0 0 0 0 0 0 0 0 0 0 0 0 0 47 0.002 
773 5 0.00717743 0.0104942 0.0547936 0 0 0 -0.186156 -2.46299 0.000344136 0 -0.000164368 0 0 0 0 0 0 0 0 0 0 0 0 0 0 0 0 0 18 0.002 
743 11 0.0111567 0.0239209 0.0527193 0 0 0 -0.416546 17.8188 -8.37848 0.00574085 -0.33144 -0.570536 0 0 0 0 0 0 0 0 0 0 0 0 0 0 0 0 19 0.002 
41 1 0.015124 0.0528572 -0.0355 0 0 0 0 -2.0192e-20 -1.69037e-12 0 -1.35525e-20 0 0 0 0 0 0 0 0 0 0 0 0 0 0 0 0 0 2 0.002 
4 6 0.0133668 0.064858 -0.0301229 0 0 0 0.531611 -1.78285 -1.25781 0 -0.000164368 0 0 0 0 0 0 0 0 0 0 0 0 0 0 0 0 0 28 0.002 
475 2 0.0152771 0.0712238 -0.0251434 0 0 0 0.836541 -1.12278 0.326475 0 -0.000164368 0 0 0 0 0 0 0 0 0 0 0 0 0 0 0 0 0 30 0.002 
895 10 0.00579908 0.0619245 -0.0185009 0 0 0 -0.139768 -2.48094 0.444786 0 -0.000164368 0 0 0 0 0 0 0 0 0 0 0 0 0 0 0 0 0 40 0.002 
34 3 0.00761047 0.0412437 -0.0231526 0 0 0 2.17961 5.77687 -16.8818 0 -0.000164368 0 0 0 0 0 0 0 0 0 0 0 0 0 0 0 0 0 28 0.002 
26 9 0.00819004 0.0416315 -0.0125673 0 0 0 2.59915 -1.31615 0.270195 0 -0.000164368 0 0 0 0 0 0 0 0 0 0 0 0 0 0 0 0 0 36 0.002 
8 5 0.00302924 0.0515886 -0.0116649 0 0 0 1.07666 1.15991 2.14297 0 -0.000164368 0 0 0 0 0 0 0 0 0 0 0 0 0 0 0 0 0 37 0.002 
407 4 0.00927695 0.0670396 -0.0101144 0 0 0 -3.1103 -1.85282 0.461645 0 -0.000164368 0 0 0 0 0 0 0 0 0 0 0 0 0 0 0 0 0 30 0.002 
255 4 0.00408343 0.0695121 -0.00749336 0 0 0 -0.664201 -0.438482 -2.59285 0 -0.000164368 0 0 0 0 0 0 0 0 0 0 0 0 0 0 0 0 0 10 0.002 
130 1 0.00662166 0.0696593 -0.000250208 0 0 0 0.843066 1.69203 -2.01251 0 -0.000164368 0 0 0 0 0 0 0 0 0 0 0 0 0 0 0 0 0 35 0.002 
237 10 0.0101201 0.0702694 -0.00225318 0 0 0 1.66929 0.975525 -1.46046 0 -0.000164368 0 0 0 0 0 0 0 0 0 0 0 0 0 0 0 0 0 44 0.002 
463 9 0.0183526 0.0734145 0.00202261 0 0 0 -0.30825 0.867572 -0.855568 0 -0.000164368 0 0 0 0 0 0 0 0 0 0 0 0 0 0 0 0 0 38 0.002 
601 8 0.00403409 0.0502352 0.00330551 0 0 0 0.637167 -1.458 -0.863626 0 -0.000164368 0 0 0 0 0 0 0 0 0 0 0 0 0 0 0 0 0 33 0.002 
1248 3 0.0157246 0.0708744 0.00711786 0 0 0 0.107695 -1.40039 -1.11691 0 -0.000164368 0 0 0 0 0 0 0 0 0 0 0 0 0 0 0 0 0 0 0.002 
1235 5 0.00717308 0.0659211 0.0114048 0 0 0 -0.307254 -1.27402 -0.239822 3.94598e-05 -0.000547481 -0.000850579 0 0 0 0 1 0 0 0 0 0 0 0 0 0 0 0 1 0.002 
800 1 0.00396941 0.0693186 0.0123104 0 0 0 0.423454 -0.0564735 0.75762 0 -0.000164368 0 0 0 0 0 0 0 0 0 0 0 0 0 0 0 0 0 19 0.002 
69 6 0.0107077 0.0686095 0.0119745 0 0 0 -0.410459 -1.00618 -0.448533 0 -0.000164368 0 0 0 0 0 0 0 0 0 0 0 0 0 0 0 0 0 33 0.002 
1012 7 0.0178785 0.0691207 0.0106839 0 0 0 0.0912871 -0.820146 0.00935486 0 -0.000164368 0 0 0 0 0 0 0 0 0 0 0 0 0 0 0 0 0 25 0.002 
245 1 0.0173088 0.0735003 0.0111799 0 0 0 -0.765085 -0.891184 0.180069 0 -0.000164368 0 0 0 0 0 0 0 0 0 0 0 0 0 0 0 0 0 28 0.002 
860 11 0.0149631 0.0674667 0.0134374 0 0 0 -0.0743608 -0.671012 -0.0244524 0 -0.000164368 0 0 0 0 0 0 0 0 0 0 0 0 0 0 0 0 0 28 0.002 
624 7 0.00774479 0.0659119 0.0153327 0 0 0 0.0261389 -1.40714 0.230728 -0.000874595 0.000816876 -0.00135355 0 0 0 0 1 0 1 0 0 0 0 0 0 0 0 0 35 0.002 
308 1 0.00370944 0.0712975 0.0157809 0 0 0 0.00457412 -0.322091 0.421541 0 -0.000164368 0 0 0 0 0 0 0 0 0 0 0 0 0 0 0 0 0 55 0.002 
1098 3 0.0180766 0.055535 0.0198262 0 0 0 1.84855 -3.52071 2.14697 0 -0.000164368 0 0 0 0 0 0 0 0 0 0 0 0 0 0 0 0 0 14 0.002 
303 3 0.016388 0.0602043 0.0184681 0 0 0 0.76021 -2.07664 0.796256 0.00121341 0.00102705 0.00423217 0 0 1 0 0 0 0 0 0 0 0 0 0 0 0 0 30 0.002 
579 8 0.0092188 0.0633603 0.0180117 0 0 0 -0.164148 -1.1355 0.91565 -0.0015846 -0.0150797 -0.062142 0 0 0 0 0 0 1 1 0 0 0 0 0 0 0 0 41 0.002 
1155 5 0.0156986 0.064812 0.018705 0 0 0 0.0027756 -0.843436 -0.0793757 0 -0.000164368 0 0 0 0 0 0 0 0 0 0 0 0 0 0 0 0 0 9 0.002 
993 8 0.00351522 0.0682957 0.0189424 0 0 0 0.0563792 -0.354683 -0.0181099 0 -0.000164368 0 0 0 0 0 0 0 0 0 0 0 0 0 0 0 0 0 26 0.002 
1188 4 0.0122834 0.0685963 0.018315 0 0 0 -0.076225 -0.7761 -0.122973 0 -0.000164368 0 0 0 0 0 0 0 0 0 0 0 0 0 0 0 0 0 5 0.002 
576 2 0.00299962 0.0742541 0.0184624 0 0 0 0.0535621 0.0345166 0.293621 -0.0026217 -0.000979188 0.0053825 0 2 0 0 0 0 0 0 0 0 0 0 0 0 0 0 22 0.002 
264 10 0.00814255 0.0732311 0.0170632 0 0 0 -1.95406 -0.179774 0.141914 0 -0.000164368 0 0 0 0 0 0 0 0 0 0 0 0 0 0 0 0 0 35 0.002 
945 9 0.0141178 0.072218 0.0185656 0 0 0 0.820849 -1.02687 -0.342597 0 -0.000164368 0 0 0 0 0 0 0 0 0 0 0 0 0 0 0 0 0 13 0.002 
707 2 0.00986528 0.0601451 0.0209738 0 0 0 -0.0439225 -0.565612 0.584748 0.0299433 0.0981493 -0.117358 0 0 0 0 0 0 0 0 0 0 0 0 0 0 0 0 51 0.002 
830 7 0.00515097 0.0614012 0.0192267 0 0 0 0.128736 -0.326536 -0.239767 0 -0.000164368 0 0 0 0 0 0 0 0 0 0 0 0 0 0 0 0 0 37 0.002 
1228 8 0.0118032 0.064268 0.0208629 0 0 0 0.153076 -0.738282 0.754227 0.0230473 -0.019797 0.036753 0 0 0 0 0 0 0 1 0 0 0 0 0 0 0 0 1 0.002 
189 5 0.00798485 0.0669027 0.0193029 0 0 0 -0.00178998 -0.86408 0.503771 -0.017633 0.0196842 0.0199371 0 0 0 0 0 0 0 1 0 0 0 0 0 0 0 0 28 0.002 
947 4 0.0170653 0.0697142 0.0215242 0 0 0 0.126031 -0.299513 0.183361 -0.0027793 -0.00049092 0.005606 0 0 0 2 0 0 0 0 0 0 0 0 0 0 0 0 21 0.002 
287 6 0.00816017 0.0707622 0.0208716 0 0 0 0.230478 -0.871757 1.42304 0 -0.000164368 0 0 0 0 0 0 0 0 0 0 0 0 0 0 0 0 0 32 0.002 
595 6 0.0174559 0.0745941 0.0195822 0 0 0 0.355986 -0.309841 0.36244 0 -0.000164368 0 0 0 0 0 0 0 0 0 0 0 0 0 0 0 0 0 35 0.002 
768 6 0.0165376 0.0619224 0.0220719 0 0 0 0.352672 -0.861882 0.427944 6.0168e-05 -0.013993 -0.011287 0 0 1 0 0 3 0 0 0 0 0 0 0 0 0 0 23 0.002 
792 2 0.0030592 0.0650586 0.0227919 0 0 0 -0.0343059 -0.488825 0.0493473 0 -0.000164368 0 0 0 0 0 0 0 0 0 0 0 0 0 0 0 0 0 17 0.002 
979 4 0.0066472 0.0668459 0.0231404 0 0 0 0.142963 -0.766564 0.497734 -0.0132201 -0.0073585 -0.0415177 0 0 0 1 0 0 0 0 0 0 0 0 0 0 0 0 26 0.002 
631 1 0.0165681 0.0657755 0.0229901 0 0 0 0.332026 -0.550226 0.663177 0.000425927 0.0228979 -0.00539117 0 0 0 0 0 1 0 0 0 0 0 0 0 0 0 0 37 0.002 
1192 2 0.0106672 0.0678675 0.0221338 0 0 0 0.32769 -0.599467 0.295225 -0.00299456 0.0139368 0.00765609 0 0 0 0 0 0 0 1 0 0 0 0 0 0 0 0 6 0.002 
1090 12 0.0128649 0.0713759 0.0233668 0 0 0 0.215723 -1.03692 -0.0567932 0 -0.000164368 0 0 0 0 0 0 0 0 0 0 0 0 0 0 0 0 0 7 0.002 
904 3 0.00318796 0.0724866 0.02204 0 0 0 0.179139 -0.300322 0.23646 0.000658666 -0.00371349 0.00123332 0 1 1 0 0 0 0 0 0 0 0 0 0 0 0 0 14 0.002 
140 4 0.0177007 0.0733545 0.0233788 0 0 0 0.0939597 -0.760942 0.258045 0.0187683 -0.0694501 0.0109497 0 0 0 2 0 0 0 0 0 0 0 0 0 0 0 0 36 0.002 
501 2 0.00827439 0.0584168 0.0241089 0 0 0 -0.130544 -0.721885 0.152679 -0.0299433 -0.098478 0.117358 0 0 0 0 0 0 0 0 0 0 0 0 0 0 0 0 29 0.002 
712 2 0.0125787 0.0595838 0.0254504 0 0 0 0.0895051 -0.576865 -0.0794714 0 -0.000164368 0 0 0 0 0 0 0 0 0 0 0 0 0 0 0 0 0 35 0.002 
968 2 0.0167389 0.0584977 0.024073 0 0 0 0.0914475 -1.26827 0.478382 0.000387914 -0.00735061 0.000464366 0 0 0 0 0 1 0 0 0 0 0 0 0 0 0 0 12 0.002 
183 9 0.00507528 0.0613835 0.0251542 0 0 0 0.0755377 -0.0546942 -0.351446 0 -0.000164368 0 0 0 0 0 0 0 0 0 0 0 0 0 0 0 0 0 37 0.002 
572 3 0.0094737 0.0628331 0.0241237 0 0 0 -0.109286 -0.382652 -0.0316278 0 -0.000164368 0 0 0 0 0 0 0 0 0 0 0 0 0 0 0 0 0 35 0.002 
543 1 0.012907 0.0655698 0.0248442 0 0 0 0.0517271 -0.692936 0.0172014 -7.38562e-05 -8.17871e-05 -0.000526177 1 0 0 0 0 0 0 0 0 0 0 0 0 0 0 0 42 0.002 
65 2 0.00299454 0.0694999 0.0246892 0 0 0 0.0796887 -0.580443 0.215292 -0.00276142 0.00437728 -0.00905282 0 2 1 0 0 0 0 0 0 0 0 0 0 0 0 0 31 0.002 
1002 1 0.0174109 0.0698851 0.0254882 0 0 0 0.215683 -0.661532 0.333933 0.0018951 -0.00475628 -0.0186217 1 0 0 1 0 0 0 0 0 0 0 0 0 0 0 0 15 0.002 
730 3 0.00686924 0.0703319 0.0251362 0 0 0 0.163491 -0.558676 0.268725 -0.000845938 -0.00212486 -0.00564368 0 1 1 0 0 0 0 0 0 0 0 0 0 0 0 0 30 0.002 
355 5 0.0157304 0.0627278 0.0258651 0 0 0 -0.140746 -0.614341 0.82229 -0.00208742 -0.00340314 0.0119817 0 0 0 0 0 1 0 0 0 0 0 0 0 0 0 0 41 0.002 
301 5 0.00551925 0.0651582 0.0266146 0 0 0 -0.0643482 -0.785496 0.651944 0 -0.000164368 0 0 0 0 0 0 0 0 0 0 0 0 0 0 0 0 0 48 0.002 
211 2 0.00940396 0.0671935 0.0259866 0 0 0 0.0661619 -0.577027 -0.00806003 0.0132201 0.00702977 0.0415177 0 0 0 1 0 0 0 0 0 0 0 0 0 0 0 0 29 0.002 
803 4 0.0134954 0.0695862 0.0269343 0 0 0 0.0429025 -0.877499 0.312155 0.000158319 -5.15489e-05 -0.000506792 0 0 0 1 0 0 0 0 0 0 0 0 0 0 0 0 30 0.002 
762 6 0.0100543 0.0724625 0.0262388 0 0 0 0.119318 -0.325553 0.0871757 0.00502764 0.00301104 -0.00564789 0 0 1 0 0 2 0 0 0 0 0 0 0 0 0 0 40 0.002 
877 4 0.0145352 0.0734477 0.0263764 0 0 0 -0.270295 -0.712059 0.10544 0 -0.000164368 0 0 0 0 0 0 0 0 0 0 0 0 0 0 0 0 0 22 0.002 
909 2 0.00392875 0.056207 0.0289338 0 0 0 0.072489 -0.255484 -0.110932 0 -0.000164368 0 0 0 0 0 0 0 0 0 0 0 0 0 0 0 0 0 37 0.002 
206 6 0.00924531 0.057795 0.0290631 0 0 0 0.216769 -0.567548 -0.18451 0 -0.000164368 0 0 0 0 0 0 0 0 0 0 0 0 0 0 0 0 0 46 0.002 
917 8 0.007981 0.0624143 0.0283539 0 0 0 0.0835999 -0.91508 0.338198 0 -0.000164368 0 0 0 0 0 0 0 0 0 0 0 0 0 0 0 0 0 31 0.002 
380 3 0.0136609 0.0613686 0.0290358 0 0 0 -0.0188635 -0.667652 0.0506184 0 -0.000164368 0 0 0 0 0 0 0 0 0 0 0 0 0 0 0 0 0 28 0.002 
1027 1 0.0174538 0.0626938 0.0297724 0 0 0 -0.0224883 -0.46781 -0.00200235 0 -0.000164368 0 0 0 0 0 0 0 0 0 0 0 0 0 0 0 0 0 18 0.002 
802 4 0.00310759 0.0627919 0.028965 0 0 0 -0.427143 -0.988448 0.550362 0 -0.000164368 0 0 0 0 0 0 0 0 0 0 0 0 0 0 0 0 0 27 0.002 
996 2 0.0116287 0.0650545 0.028597 0 0 0 -0.0567721 -0.670655 -0.0140015 7.38562e-05 -0.000246949 0.000526177 1 0 0 0 0 0 0 0 0 0 0 0 0 0 0 0 26 0.002 
455 1 0.00299737 0.0672017 0.0289639 0 0 0 -0.208645 -0.456022 0.0832724 0.018894 0.0101598 -0.018918 1 0 0 0 0 0 0 0 0 0 0 0 0 0 0 0 49 0.002 
788 5 0.0155146 0.0662331 0.0289684 0 0 0 -0.0858699 -0.497682 -0.0554724 0 -0.000164368 0 0 0 0 0 0 0 0 0 0 0 0 0 0 0 0 0 36 0.002 
680 6 0.00709366 0.0677344 0.0292794 0 0 0 0.0190722 -0.608589 -0.111889 0 -0.000164368 0 0 0 0 0 0 0 0 0 0 0 0 0 0 0 0 0 52 0.002 
361 3 0.0107645 0.0692432 0.0298365 0 0 0 -0.180157 -0.672555 0.0864528 -0.00857261 -0.00660147 -0.0167321 0 0 2 1 0 0 0 0 0 0 0 0 0 0 0 0 39 0.002 
669 1 0.002999 0.0711449 0.0283191 0 0 0 -0.0039354 -0.471942 0.23123 -0.000549386 0.00279985 0.00588215 0 1 0 0 0 0 0 0 0 0 0 0 0 0 0 0 51 0.002 
972 3 0.00777384 0.0719753 0.0294669 0 0 0 -0.125864 -0.474096 -0.0418807 -0.00487296 0.00957836 -0.0206899 0 0 1 0 0 1 0 0 0 0 0 0 0 0 0 0 26 0.002 
1146 2 0.0165887 0.0708796 0.029251 0 0 0 -0.0687561 -0.494408 0.0975904 -0.00394342 0.00272613 0.017994 1 1 0 0 0 0 0 0 0 0 0 0 0 0 0 0 23 0.002 
131 7 0.0117998 0.0741245 0.0294711 0 0 0 0.0371303 -0.324567 0.202242 -0.00587879 0.00183153 -0.0117207 0 0 0 0 0 0 1 0 0 0 0 0 0 0 0 0 51 0.002 
508 9 0.0118426 0.0549754 0.0317703 0 0 0 0.135566 -0.661247 0.0832206 -0.0112149 0.0041726 -0.00325386 0 0 0 0 0 0 0 0 1 0 0 0 0 0 0 0 40 0.002 
934 1 0.0156737 0.0576496 0.0315466 0 0 0 0.0332907 -0.468736 -0.0550516 0 -0.000164368 0 0 0 0 0 0 0 0 0 0 0 0 0 0 0 0 0 31 0.002 
1036 6 0.00355087 0.0588777 0.0324894 0 0 0 0.0491016 -0.355822 0.0318422 -0.000237107 8.71295e-05 1.00734e-05 0 0 0 0 0 1 0 0 0 0 0 0 0 0 0 0 31 0.002 
493 5 0.00303892 0.0744118 0.0308512 0 0 0 -0.0539042 -0.403957 0.162701 0.000189368 0.00558806 -0.00593149 0 0 0 0 2 0 0 0 0 0 0 0 0 0 0 0 47 0.002 
625 3 0.011464 0.0511192 0.0327574 0 0 0 0.00232154 -0.52979 0.00220108 0.0112149 -0.00450133 0.00325386 0 0 0 0 0 0 0 0 1 0 0 0 0 0 0 0 23 0.002 
903 8 0.00488665 0.051689 0.0328879 0 0 0 0.0336657 -0.56394 -0.0133945 0 -0.000164368 0 0 0 0 0 0 0 0 0 0 0 0 0 0 0 0 0 47 0.002 
29 5 0.00710539 0.0569009 0.0329142 0 0 0 0.0753981 -0.375277 0.00649543 0 -0.000164368 0 0 0 0 0 0 0 0 0 0 0 0 0 0 0 0 0 53 0.002 
352 4 0.0110904 0.0598019 0.0329942 0 0 0 -0.0140259 -0.608561 0.0243948 0 -0.000164368 0 0 0 0 0 0 0 0 0 0 0 0 0 0 0 0 0 35 0.002 
953 3 0.00351042 0.062848 0.0329578 0 0 0 0.0444933 -0.324005 -0.01144 0.000237107 -0.000415866 -1.00734e-05 0 0 0 0 0 1 0 0 0 0 0 0 0 0 0 0 15 0.002 
964 2 0.00724728 0.0612948 0.0329141 0 0 0 0.00620821 -0.581409 -0.0088562 0 -0.000164368 0 0 0 0 0 0 0 0 0 0 0 0 0 0 0 0 0 14 0.002 
989 4 0.0142542 0.0623103 0.0329825 0 0 0 -0.103682 -0.443294 -0.0249361 0 -0.000164368 0 0 0 0 0 0 0 0 0 0 0 0 0 0 0 0 0 12 0.002 
291 1 0.0109087 0.0651366 0.032992 0 0 0 -0.0160176 -0.458185 -0.00238194 0 -0.000164368 0 0 0 0 0 0 0 0 0 0 0 0 0 0 0 0 0 43 0.002 
931 4 0.00299079 0.0669333 0.0329341 0 0 0 0.0170416 -0.316387 0.331162 0.0103645 -0.00202396 -0.0020823 1 0 0 1 0 0 0 0 0 0 0 0 0 0 0 0 20 0.002 
1081 4 0.00687469 0.0659366 0.032955 0 0 0 -0.0412011 -0.474367 -0.00705981 0 -0.000164368 0 0 0 0 0 0 0 0 0 0 0 0 0 0 0 0 0 14 0.002 
677 9 0.0163691 0.0657252 0.0329137 0 0 0 -0.178351 -0.401447 -0.0353533 -1.74183e-05 -0.000593352 0.000186622 0 0 0 0 0 0 0 0 1 0 0 0 0 0 0 0 65 0.002 
1159 4 0.0131038 0.0686565 0.0329927 0 0 0 -0.113226 -0.404282 0.297434 0.0139667 -0.00286508 0.010035 0 0 1 0 0 0 0 0 0 0 0 0 0 0 0 0 13 0.002 
1080 4 0.0172897 0.0696135 0.0329714 0 0 0 -0.0955467 -0.395693 0.0849354 0.00015827 0.000755622 0.00631542 0 1 0 0 0 0 0 0 1 0 0 0 0 0 0 0 12 0.002 
499 2 0.00332409 0.0709111 0.0327633 0 0 0 0.0537063 -0.310431 -0.00868986 -0.00499814 -0.00163583 0.00482151 0 0 0 1 1 0 0 0 0 0 0 0 0 0 0 0 38 0.002 
1008 4 0.00873771 0.0705122 0.0330248 0 0 0 -0.0923279 -0.419473 -0.00337583 -0.000226909 0.000181317 -0.0154547 0 0 2 1 0 0 0 0 0 0 0 0 0 0 0 0 12 0.002 
603 7 0.00642408 0.0737497 0.032863 0 0 0 -0.0529178 -0.380509 0.0476893 -0.00505726 0.00448668 -0.00420307 0 0 0 1 1 0 0 0 0 0 0 0 0 0 0 0 36 0.002 
511 2 0.0133352 0.0727305 0.0328712 0 0 0 0.00641954 -0.347965 0.199428 0.00587879 -0.00216027 0.0117207 0 0 0 0 0 0 1 0 0 0 0 0 0 0 0 0 25 0.002 
1068 4 0.0178911 0.0739571 0.0329931 0 0 0 0.0642272 -0.213226 -0.0326838 -0.00381555 0.000248018 0.00533137 0 0 0 1 0 0 0 0 0 0 0 0 0 0 0 0 14 0.002 
505 2 0.00304594 0.0749045 0.0268674 0 0 0 -0.165664 -0.398822 0.108119 0 -0.000164368 0 0 0 0 0 0 0 0 0 0 0 0 0 0 0 0 0 48 0.002 
1066 1 0.0103371 0.0747815 0.0207147 0 0 0 0.468372 -1.64907 0.726645 0 -0.000164368 0 0 0 0 0 0 0 0 0 0 0 0 0 0 0 0 0 22 0.002 
814 13 0.0104322 0.0994645 -0.0320216 0 0 0 -0.0158347 0.864607 0.177757 0 -0.000164368 0 0 0 0 0 0 0 0 0 0 0 0 0 0 0 0 0 36 0.002 
1218 8 0.00343167 0.108057 -0.0320409 0 0 0 0.834222 1.25617 0.920101 0.174374 -0.412056 0.151602 0 0 0 0 0 0 0 0 0 0 0 0 0 0 0 0 0 0.002 
1021 3 0.00513386 0.0810299 -0.030736 0 0 0 0.136447 -1.91014 1.18662 0 -0.000164368 0 0 0 0 0 0 0 0 0 0 0 0 0 0 0 0 0 14 0.002 
645 2 0.00520159 0.0948977 -0.0308601 0 0 0 0.776909 1.79256 0.834963 0 -0.000164368 0 0 0 0 0 0 0 0 0 0 0 0 0 0 0 0 0 31 0.002 
960 3 0.0129813 0.100638 -0.0255039 0 0 0 0.778368 -0.616784 -0.416872 0 -0.000164368 0 0 0 0 0 0 0 0 0 0 0 0 0 0 0 0 0 15 0.002 
453 3 0.0172389 0.102343 -0.0259738 0 0 0 0.132389 -0.439831 0.434609 0 -0.000164368 0 0 0 0 0 0 0 0 0 0 0 0 0 0 0 0 0 23 0.002 
598 1 0.00443679 0.0896588 -0.0237438 0 0 0 0.267751 -0.177384 0.479063 0 -0.000164368 0 0 0 0 0 0 0 0 0 0 0 0 0 0 0 0 0 34 0.002 
1242 4 0.0165271 0.0980619 -0.0239279 0 0 0 0.798597 -0.317824 0.475945 0 -0.000164368 0 0 0 0 0 0 0 0 0 0 0 0 0 0 0 0 0 0 0.002 
1174 9 0.00374839 0.100542 -0.0228443 0 0 0 0.304667 1.41959 0.0771152 0 -0.000164368 0 0 0 0 0 0 0 0 0 0 0 0 0 0 0 0 0 1 0.002 
253 2 0.0109178 0.0871069 -0.0211796 0 0 0 0.65186 -0.632113 1.10887 0 -0.000164368 0 0 0 0 0 0 0 0 0 0 0 0 0 0 0 0 0 38 0.002 
1237 4 0.0152233 0.104901 -0.0218667 0 0 0 0.0128454 -0.226666 0.378496 0 -0.000164368 0 0 0 0 0 0 0 0 0 0 0 0 0 0 0 0 0 0 0.002 
753 6 0.0144938 0.0853185 -0.0164137 0 0 0 -2.68751 2.09766 2.04921 0 -0.000164368 0 0 0 0 0 0 0 0 0 0 0 0 0 0 0 0 0 54 0.002 
658 8 0.011653 0.0822397 -0.0161359 0 0 0 -2.05568 -0.80311 0.623821 0 -0.000164368 0 0 0 0 0 0 0 0 0 0 0 0 0 0 0 0 0 30 0.002 
433 9 0.00345343 0.0911471 -0.0158859 0 0 0 0.195772 -0.447348 0.668831 0 -0.000164368 0 0 0 0 0 0 0 0 0 0 0 0 0 0 0 0 0 33 0.002 
952 3 0.0107813 0.0914559 -0.0166666 0 0 0 -1.25629 1.27668 -0.485906 0 -0.000164368 0 0 0 0 0 0 0 0 0 0 0 0 0 0 0 0 0 8 0.002 
1063 3 0.00413225 0.107967 -0.0169405 0 0 0 -0.0094788 -0.0636051 0.03145 0 -0.000164368 0 0 0 0 0 0 0 0 0 0 0 0 0 0 0 0 0 10 0.002 
1004 3 0.0139932 0.107974 -0.0137752 0 0 0 -0.164096 0.412836 0.300231 0 -0.000164368 0 0 0 0 0 0 0 0 0 0 0 0 0 0 0 0 0 17 0.002 
891 2 0.0101233 0.101037 -0.0114248 0 0 0 0.314614 -0.184224 0.351281 0 -0.000164368 0 0 0 0 0 0 0 0 0 0 0 0 0 0 0 0 0 16 0.002 
955 2 0.0172049 0.104958 -0.0116763 0 0 0 0.613185 0.602289 0.821015 0 -0.000164368 0 0 0 0 0 0 0 0 0 0 0 0 0 0 0 0 0 12 0.002 
317 11 0.00322128 0.106861 -0.0123047 0 0 0 0.0269999 -0.167727 0.092335 0 -0.000164368 0 0 0 0 0 0 0 0 0 0 0 0 0 0 0 0 0 34 0.002 
1114 1 0.0146778 0.0855297 -0.0105946 0 0 0 -0.182912 0.103319 -0.510506 0 -0.000164368 0 0 0 0 0 0 0 0 0 0 0 0 0 0 0 0 0 8 0.002 
288 1 0.0129385 0.103772 -0.00944067 0 0 0 0.0785646 -0.117593 0.561788 0 -0.000164368 0 0 0 0 0 0 0 0 0 0 0 0 0 0 0 0 0 34 0.002 
836 4 0.00827968 0.107574 -0.00854166 0 0 0 -0.27244 0.430909 0.789967 0 -0.000164368 0 0 0 0 0 0 0 0 0 0 0 0 0 0 0 0 0 28 0.002 
121 2 0.012567 0.10798 -0.00885558 0 0 0 -0.221969 -0.045584 0.664146 0 -0.000164368 0 0 0 0 0 0 0 0 0 0 0 0 0 0 0 0 0 44 0.002 
550 10 0.0118612 0.0888296 -0.00716471 0 0 0 -2.23323 2.62548 -0.805655 0 -0.000164368 0 0 0 0 0 0 0 0 0 0 0 0 0 0 0 0 0 35 0.002 
633 6 0.0186693 0.0923507 -0.00712342 0 0 0 -0.239967 0.6402 0.198204 0 -0.000164368 0 0 0 0 0 0 0 0 0 0 0 0 0 0 0 0 0 35 0.002 
811 5 0.00334021 0.10021 -0.0078331 0 0 0 0.0768382 0.800228 0.0353877 0.0144594 0.101332 -0.0907539 0 0 0 0 1 0 0 0 0 0 0 0 0 0 0 0 31 0.002 
583 1 0.0174124 0.0989219 -0.00580776 0 0 0 -2.38607 -0.0795491 0.827005 0 -0.000164368 0 0 0 0 0 0 0 0 0 0 0 0 0 0 0 0 0 40 0.002 
584 8 0.00650691 0.104409 -0.00628143 0 0 0 -0.136448 -0.0409855 0.564494 0 -0.000164368 0 0 0 0 0 0 0 0 0 0 0 0 0 0 0 0 0 46 0.002 
331 7 0.00315119 0.106283 -0.00772876 0 0 0 -0.0544589 0.0580894 0.1946 0 -0.000164368 0 0 0 0 0 0 0 0 0 0 0 0 0 0 0 0 0 47 0.002 
1121 3 0.00401459 0.0862842 -0.00455443 0 0 0 0.197307 -0.249332 -0.375685 0 -0.000164368 0 0 0 0 0 0 0 0 0 0 0 0 0 0 0 0 0 0 0.002 
1211 4 0.0160483 0.088776 -0.00385632 0 0 0 -0.456995 0.0853354 0.992252 0 -0.000164368 0 0 0 0 0 0 0 0 0 0 0 0 0 0 0 0 0 0 0.002 
1024 5 0.00567158 0.0934506 -0.00471636 0 0 0 1.00748 -0.105682 0.953484 0 -0.000164368 0 0 0 0 0 0 0 0 0 0 0 0 0 0 0 0 0 10 0.002 
58 1 0.00309209 0.0979151 -0.0046801 0 0 0 0.154459 0.646877 0.292824 -0.0144594 -0.101661 0.0907539 0 0 0 0 1 0 0 0 0 0 0 0 0 0 0 0 42 0.002 
362 1 0.0140912 0.0983602 -0.00360023 0 0 0 0.0621091 -0.637739 0.800612 0 -0.000164368 0 0 0 0 0 0 0 0 0 0 0 0 0 0 0 0 0 20 0.002 
1154 12 0.00803075 0.107991 -0.00439733 0 0 0 -0.342479 -0.00649987 0.974916 0 -0.000164368 0 0 0 0 0 0 0 0 0 0 0 0 0 0 0 0 0 3 0.002 
1225 1 0.00644691 0.101952 -0.00282745 0 0 0 0.338306 -0.107089 0.743233 0 -0.000164368 0 0 0 0 0 0 0 0 0 0 0 0 0 0 0 0 0 1 0.002 
1091 5 0.00357241 0.107955 -0.00359388 0 0 0 0.0574292 -0.016939 0.206835 0 -0.000164368 0 0 0 0 0 0 0 0 0 0 0 0 0 0 0 0 0 8 0.002 
954 5 0.00682145 0.0943023 -0.000815308 0 0 0 1.04755 1.49358 1.6862 0 -0.000164368 0 0 0 0 0 0 0 0 0 0 0 0 0 0 0 0 0 21 0.002 
243 5 0.0142081 0.0945368 0.000631731 0 0 0 -0.33311 -0.893755 1.15475 0 -0.000164368 0 0 0 0 0 0 0 0 0 0 0 0 0 0 0 0 0 19 0.002 
1215 2 0.00302352 0.102954 -0.000775482 0 0 0 0.0163298 -0.025332 0.399142 0 -0.000164368 0 0 0 0 0 0 0 0 0 0 0 0 0 0 0 0 0 0 0.002 
661 2 0.00666929 0.106208 -0.000861731 0 0 0 -0.168325 -0.148959 0.998966 0 -0.000164368 0 0 0 0 0 0 0 0 0 0 0 0 0 0 0 0 0 14 0.002 
745 7 0.00699096 0.0907662 0.00205168 0 0 0 0.485973 1.00027 -0.464354 0 -0.000164368 0 0 0 0 0 0 0 0 0 0 0 0 0 0 0 0 0 23 0.002 
492 4 0.0112355 0.0980778 0.00117684 0 0 0 -0.0954676 -0.328563 0.163798 0 -0.000164368 0 0 0 0 0 0 0 0 0 0 0 0 0 0 0 0 0 25 0.002 
377 4 0.00710327 0.0986676 0.000813245 0 0 0 0.0764001 -0.207252 0.0187364 0 -0.000164368 0 0 0 0 0 0 0 0 0 0 0 0 0 0 0 0 0 47 0.002 
961 1 0.0139173 0.102514 0.00226904 0 0 0 0.253375 -0.291661 0.829517 0 -0.000164368 0 0 0 0 0 0 0 0 0 0 0 0 0 0 0 0 0 13 0.002 
832 8 0.010059 0.103769 0.00255129 0 0 0 0.1744 0.170593 0.758535 0.00246128 0.0194832 -0.00361244 0 0 0 0 0 0 0 1 0 0 0 0 0 0 0 0 31 0.002 
767 5 0.00327655 0.107605 0.00239679 0 0 0 -0.0245739 -0.213039 0.137736 0 -0.000164368 0 0 0 0 0 0 0 0 0 0 0 0 0 0 0 0 0 28 0.002 
1231 3 0.00960292 0.107732 0.00218291 0 0 0 0.305358 0.0186174 0.471966 0 -0.000164368 0 0 0 0 0 0 0 0 0 0 0 0 0 0 0 0 0 0 0.002 
1064 5 0.0168288 0.105309 0.00107623 0 0 0 0.234593 -0.353673 0.358504 0 -0.000164368 0 0 0 0 0 0 0 0 0 0 0 0 0 0 0 0 0 18 0.002 
927 3 0.00672235 0.0827487 0.00334986 0 0 0 -2.75821 0.0351439 -0.079616 0 -0.000164368 0 0 0 0 0 0 0 0 0 0 0 0 0 0 0 0 0 13 0.002 
263 2 0.00338304 0.0946271 0.00449655 0 0 0 0.19981 0.0259741 0.395929 0 -0.000164368 0 0 0 0 0 0 0 0 0 0 0 0 0 0 0 0 0 31 0.002 
1223 2 0.00312603 0.100658 0.00438812 0 0 0 0.0940619 0.395708 0.145406 0.000130907 -0.000368682 -0.00127442 0 0 0 0 0 0 0 0 0 0 0 0 0 0 0 0 1 0.002 
650 3 0.0102518 0.100521 0.00483863 0 0 0 0.147513 -0.190655 0.289663 -0.00246128 -0.0198119 0.00361244 0 0 0 0 0 0 0 1 0 0 0 0 0 0 0 0 31 0.002 
299 1 0.00647587 0.104999 0.00397816 0 0 0 0.347328 0.101276 0.280088 0 -0.000164368 0 0 0 0 0 0 0 0 0 0 0 0 0 0 0 0 0 33 0.002 
675 1 0.0157121 0.105473 0.00536119 0 0 0 -2.46851e-06 -0.139782 0.742751 0 -0.000164368 0 0 0 0 0 0 0 0 0 0 0 0 0 0 0 0 0 30 0.002 
975 4 0.0130294 0.0768913 0.00530779 0 0 0 -0.931644 -0.148553 -0.409524 0 -0.000164368 0 0 0 0 0 0 0 0 0 0 0 0 0 0 0 0 0 9 0.002 
698 6 0.00880833 0.0969194 0.00640848 0 0 0 0.1973 0.124816 0.820571 0 -0.000164368 0 0 0 0 0 0 0 0 0 0 0 0 0 0 0 0 0 30 0.002 
906 5 0.013862 0.0996445 0.00653612 0 0 0 0.149425 -0.102883 0.360521 0 -0.000164368 0 0 0 0 0 0 0 0 0 0 0 0 0 0 0 0 0 30 0.002 
126 2 0.00671231 0.101533 0.00694105 0 0 0 -0.112942 0.0857166 0.176247 0 -0.000164368 0 0 0 0 0 0 0 0 0 0 0 0 0 0 0 0 0 24 0.002 
296 2 0.00323755 0.104094 0.00654284 0 0 0 -0.00157581 0.303268 0.0940061 -0.015125 -0.0205732 -0.00371177 0 1 0 0 0 0 0 0 0 0 0 0 0 0 0 0 21 0.002 
214 8 0.00524821 0.107494 0.00692691 0 0 0 0.138913 0.309729 0.366083 0.0177489 0.0157621 -0.0035979 0 1 0 0 0 0 0 1 0 0 0 0 0 0 0 0 10 0.002 
1189 5 0.00938174 0.106869 0.0062872 0 0 0 0.315895 0.130339 0.658655 0 -0.000164368 0 0 0 0 0 0 0 0 0 0 0 0 0 0 0 0 0 1 0.002 
1111 4 0.00601247 0.0910003 0.0087895 0 0 0 -0.316931 -0.250301 0.19587 0 -0.000164368 0 0 0 0 0 0 0 0 0 0 0 0 0 0 0 0 0 12 0.002 
823 9 0.00974485 0.10345 0.00871184 0 0 0 -0.123781 0.114919 0.445339 0 -0.000164368 0 0 0 0 0 0 0 0 0 0 0 0 0 0 0 0 0 10 0.002 
827 2 0.00318974 0.0995136 0.00821891 0 0 0 -0.0213392 -0.0473046 -0.0204213 -0.000130907 3.9946e-05 0.00127442 0 0 0 0 0 0 0 0 0 0 0 0 0 0 0 0 23 0.002 
370 4 0.00977829 0.0931223 0.00998353 0 0 0 -0.309339 0.140041 -0.173879 0 -0.000164368 0 0 0 0 0 0 0 0 0 0 0 0 0 0 0 0 0 41 0.002 
920 3 0.00337256 0.0884828 0.0119786 0 0 0 0.203029 -0.584697 0.121554 0 -0.000164368 0 0 0 0 0 0 0 0 0 0 0 0 0 0 0 0 0 22 0.002 
1043 8 0.0164873 0.0908027 0.0102744 0 0 0 0.144919 -0.0292268 -0.303182 0 -0.000164368 0 0 0 0 0 0 0 0 0 0 0 0 0 0 0 0 0 12 0.002 
324 5 0.0106215 0.100661 0.0328269 0 0 0 -0.113981 -0.203129 0.0194735 0 -0.000164368 0 0 0 0 0 0 0 0 0 0 0 0 0 0 0 0 0 40 0.002 
589 5 0.0141816 0.0939866 0.012005 0 0 0 0.481946 0.358953 -0.372283 0 -0.000164368 0 0 0 0 0 0 0 0 0 0 0 0 0 0 0 0 0 32 0.002 
297 3 0.00304406 0.0970205 0.011409 0 0 0 0.00488425 -0.0315726 -0.0445568 0 -0.000164368 0 0 0 0 0 0 0 0 0 0 0 0 0 0 0 0 0 42 0.002 
1212 1 0.00893404 0.0973467 0.0109335 0 0 0 0.00492932 0.0669915 0.125503 0.00106698 -0.0402941 -0.0431975 1 0 0 0 0 0 0 0 0 0 0 0 0 0 0 0 4 0.002 
457 6 0.0148516 0.101694 0.0105728 0 0 0 -0.251292 -0.036617 0.137338 0 -0.000164368 0 0 0 0 0 0 0 0 0 0 0 0 0 0 0 0 0 27 0.002 
582 7 0.00309573 0.103588 0.010649 0 0 0 0.0408821 0.0281518 0.229255 0 -0.000164368 0 0 0 0 0 0 0 0 0 0 0 0 0 0 0 0 0 24 0.002 
999 5 0.0118653 0.105231 0.0116697 0 0 0 -0.102592 -0.0320468 0.214573 0 -0.000164368 0 0 0 0 0 0 0 0 0 0 0 0 0 0 0 0 0 12 0.002 
957 4 0.00659288 0.105664 0.0107108 0 0 0 -0.0778523 -0.179094 0.263819 0 -0.000164368 0 0 0 0 0 0 0 0 0 0 0 0 0 0 0 0 0 13 0.002 
713 7 0.00303413 0.107985 0.0102034 0 0 0 -0.0421266 0.0612951 0.343041 -0.00262397 0.00431796 0.00730967 0 0 0 0 0 0 1 0 0 0 0 0 0 0 0 0 33 0.002 
1200 1 0.014676 0.107908 0.0101612 0 0 0 0.0655599 0.0414148 0.135345 0 -0.000164368 0 0 0 0 0 0 0 0 0 0 0 0 0 0 0 0 0 1 0.002 
1232 7 0.0119347 0.0917804 0.0144727 0 0 0 0.341641 0.689202 0.870317 0 -0.000164368 0 0 0 0 0 0 0 0 0 0 0 0 0 0 0 0 0 0 0.002 
1060 2 0.00805942 0.0949777 0.0145618 0 0 0 -0.0393217 -0.217584 0.262755 0 -0.000164368 0 0 0 0 0 0 0 0 0 0 0 0 0 0 0 0 0 8 0.002 
560 4 0.0161231 0.0969172 0.014449 0 0 0 1.03538 0.149928 -0.173678 0.039306 -0.0074501 -0.0407783 0 0 0 1 0 0 0 0 0 0 0 0 0 0 0 0 28 0.002 
446 9 0.0084943 0.100436 0.0133509 0 0 0 -0.137141 0.225516 0.148736 -0.00106698 0.0399653 0.0431975 1 0 0 0 0 0 0 0 0 0 0 0 0 0 0 0 46 0.002 
674 10 0.00434911 0.100921 0.0135821 0 0 0 -0.000706478 -0.138987 0.199608 0 -0.000164368 0 0 0 0 0 0 0 0 0 0 0 0 0 0 0 0 0 27 0.002 
959 6 0.0121442 0.101965 0.0141133 0 0 0 0.0190626 0.091237 -0.14389 0.00365448 0.0598738 -0.032056 0 0 0 0 0 1 0 0 0 0 0 0 0 0 0 0 26 0.002 
329 7 0.0158794 0.10366 0.0141135 0 0 0 -0.107694 -0.101822 0.097158 0.000853766 -0.000280401 -0.00155577 0 0 0 0 0 0 1 0 0 0 0 0 0 0 0 0 34 0.002 
760 3 0.00305367 0.107635 0.01434 0 0 0 0.0188969 -0.0200793 0.261393 0 -0.000164368 0 0 0 0 0 0 0 0 0 0 0 0 0 0 0 0 0 22 0.002 
818 4 0.0178724 0.107518 0.013271 0 0 0 -0.132643 -0.124898 0.252403 0 -0.000164368 0 0 0 0 0 0 0 0 0 0 0 0 0 0 0 0 0 21 0.002 
693 8 0.00910503 0.107882 0.0130908 0 0 0 -0.0575999 -0.0636557 0.229382 0 -0.000164368 0 0 0 0 0 0 0 0 0 0 0 0 0 0 0 0 0 33 0.002 
262 3 0.0168727 0.0755758 0.0148075 0 0 0 -0.280627 -0.389532 0.22828 0 -0.000164368 0 0 0 0 0 0 0 0 0 0 0 0 0 0 0 0 0 31 0.002 
602 6 0.00633693 0.0842008 0.0184421 0 0 0 1.58013 4.28332 2.19329 -0.0503908 -0.0843628 -0.398484 0 0 0 0 0 1 0 0 0 0 0 0 0 0 0 0 28 0.002 
1236 1 0.0152963 0.0845775 0.0165653 0 0 0 0.119318 -0.264035 -0.0250922 0 -0.000164368 0 0 0 0 0 0 0 0 0 0 0 0 0 0 0 0 0 0 0.002 
570 1 0.00601199 0.0916429 0.0156993 0 0 0 -0.264262 0.162932 0.379505 0 -0.000164368 0 0 0 0 0 0 0 0 0 0 0 0 0 0 0 0 0 35 0.002 
924 7 0.0156018 0.091307 0.0166665 0 0 0 -0.253221 -0.459759 0.458146 -0.00122668 0.00737721 -0.00946908 0 0 0 0 0 0 1 0 0 0 0 0 0 0 0 0 17 0.002 
451 1 0.0127678 0.0960829 0.0162987 0 0 0 0.280939 0.809295 0.882753 -0.039306 0.00712137 0.0407783 0 0 0 1 0 0 0 0 0 0 0 0 0 0 0 0 34 0.002 
510 9 0.00584539 0.105202 0.0159984 0 0 0 -0.167268 -0.281523 0.306417 0 -0.000164368 0 0 0 0 0 0 0 0 0 0 0 0 0 0 0 0 0 63 0.002 
1016 8 0.00998166 0.10564 0.0166057 0 0 0 -0.134249 -0.0829305 0.162327 0 -0.000164368 0 0 0 0 0 0 0 0 0 0 0 0 0 0 0 0 0 5 0.002 
403 8 0.0130104 0.107744 0.0146502 0 0 0 -0.0512592 0.111047 0.254501 0 -0.000164368 0 0 0 0 0 0 0 0 0 0 0 0 0 0 0 0 0 33 0.002 
399 3 0.00313733 0.0781561 0.0193177 0 0 0 0.150609 0.0410041 0.534068 -0.000780905 -0.00238761 -0.00163008 0 0 2 0 0 0 0 0 0 0 0 0 0 0 0 0 39 0.002 
915 9 0.010918 0.0787106 0.0189905 0 0 0 0.315243 -1.15724 1.44539 0 -0.000164368 0 0 0 0 0 0 0 0 0 0 0 0 0 0 0 0 0 30 0.002 
769 5 0.0177174 0.0808394 0.0168641 0 0 0 0.0759552 -0.426936 -0.000685306 0 -0.000164368 0 0 0 0 0 0 0 0 0 0 0 0 0 0 0 0 0 28 0.002 
1204 4 0.00530861 0.0889879 0.0186606 0 0 0 0.412371 0.0633705 0.979726 0.0030978 -0.0159994 -0.00890199 0 0 0 1 0 0 0 0 0 0 0 0 0 0 0 0 2 0.002 
400 7 0.0096669 0.0947399 0.018963 0 0 0 0.409088 0.120813 0.0368508 0.0488354 0.0412882 -0.00240919 0 0 0 0 0 0 0 0 0 0 0 0 0 0 0 0 38 0.002 
1193 8 0.00567912 0.0966054 0.0177254 0 0 0 0.155072 -0.0605988 0.0409149 0 -0.000164368 0 0 0 0 0 0 0 0 0 0 0 0 0 0 0 0 0 5 0.002 
1116 4 0.00578536 0.10066 0.0174136 0 0 0 0.04096 -0.0312977 0.210661 0 -0.000164368 0 0 0 0 0 0 0 0 0 0 0 0 0 0 0 0 0 15 0.002 
193 8 0.0109118 0.0995682 0.0170141 0 0 0 -0.209689 1.02944 0.187048 -0.012898 -0.0459614 0.0460338 0 0 0 0 0 1 0 1 0 0 0 0 0 0 0 0 45 0.002 
1196 5 0.0155148 0.0991401 0.0181054 0 0 0 -0.0861634 -0.140022 0.315539 0 -0.000164368 0 0 0 0 0 0 0 0 0 0 0 0 0 0 0 0 0 1 0.002 
1199 14 0.0138909 0.104908 0.0173472 0 0 0 -0.112193 -0.0703654 0.0432375 0.00142524 0.000401176 -0.00320052 0 0 0 0 0 0 1 0 0 0 0 0 0 1 0 0 4 0.002 
732 4 0.0177914 0.103535 0.0180796 0 0 0 -0.15805 -0.0120957 0.059164 0 -0.000164368 0 0 0 0 0 0 0 0 0 0 0 0 0 0 0 0 0 27 0.002 
419 10 0.00312587 0.107738 0.0184043 0 0 0 0.0235632 -0.0861364 0.0419856 0 -0.000164368 0 0 0 0 0 0 0 0 0 0 0 0 0 0 0 0 0 47 0.002 
1103 1 0.0166383 0.107998 0.0171282 0 0 0 -0.193607 0.0160375 0.25783 0 -0.000164368 0 0 0 0 0 0 0 0 0 0 0 0 0 0 0 0 0 12 0.002 
261 1 0.00688176 0.0767955 0.0217759 0 0 0 0.793682 -0.768167 1.0794 0 -0.000164368 0 0 0 0 0 0 0 0 0 0 0 0 0 0 0 0 0 36 0.002 
881 1 0.0030712 0.101969 0.0329713 0 0 0 0.00383147 -0.0820784 -0.00631799 0 -0.000164368 0 0 0 0 0 0 0 0 0 0 0 0 0 0 0 0 0 25 0.002 
873 6 0.0144754 0.0793457 0.0207241 0 0 0 0.419352 0.0748921 1.3403 0 -0.000164368 0 0 0 0 0 0 0 0 0 0 0 0 0 0 0 0 0 14 0.002 