ITEM: TIMESTEP
9950000
ITEM: NUMBER OF ATOMS
17217
ITEM: BOX BOUNDS ff ff ff
-0.01 0.45
-0.15 0.15
-0.08 0.1
ITEM: ATOMS id type x y z ix iy iz vx vy vz fx fy fz c_cc_1 c_cc_2 c_cc_3 c_cc_4 c_cc_5 c_cc_6 c_cc_7 c_cc_8 c_cc_9 c_cc_10 c_cc_11 c_cc_12 c_cc_13 c_cc_14 c_cc_15 c_cc_16 f_fppacc radius c_cc_17 
15644 4 0.0407809 -0.00436342 -0.0587061 0 0 0 -1.53658 -2.94234 0.453238 0 -1.05196e-05 0 0 0 0 0 0 0 0 0 0 0 0 0 0 0 0 0 24 0.0008 0 
7319 8 0.00319257 -0.0113728 -0.0570188 0 0 0 -2.61525 -7.00129 1.49338 0 -1.05196e-05 0 0 0 0 0 0 0 0 0 0 0 0 0 0 0 0 0 85 0.0008 0 
1885 4 0.00595739 -0.0202011 -0.0555245 0 0 0 1.61024 -17.3778 7.27518 0 -1.05196e-05 0 0 0 0 0 0 0 0 0 0 0 0 0 0 0 0 0 82 0.0008 0 
6071 1 0.014299 -0.00450219 -0.0578454 0 0 0 0.770216 -4.30824 -5.54978 0 -1.05196e-05 0 0 0 0 0 0 0 0 0 0 0 0 0 0 0 0 0 63 0.0008 0 
8066 11 0.00399945 -0.0302919 -0.0505539 0 0 0 -2.40378 -15.2713 6.09574 0 -1.05196e-05 0 0 0 0 0 0 0 0 0 0 0 0 0 0 0 0 0 64 0.0008 0 
10550 5 0.0212696 -0.0248642 -0.052914 0 0 0 -0.204877 -3.96917 1.56015 0 -1.05196e-05 0 0 0 0 0 0 0 0 0 0 0 0 0 0 0 0 0 40 0.0008 0 
17104 2 0.014545 -0.032769 -0.0487637 0 0 0 3.35577 -8.70643 4.99337 0 -1.05196e-05 0 0 0 0 0 0 0 0 0 0 0 0 0 0 0 0 0 7 0.0008 0 
2159 6 0.0396584 -0.0358593 -0.0415456 0 0 0 34.0511 -89.4221 46.8021 0 -1.05196e-05 0 0 0 0 0 0 0 0 0 0 0 0 0 0 0 0 0 81 0.0008 0 
2832 9 0.0124275 -0.0200447 -0.0413182 0 0 0 0.554224 -0.442003 2.48914 0 -1.05196e-05 0 0 0 0 0 0 0 0 0 0 0 0 0 0 0 0 0 100 0.0008 0 
7993 9 0.020203 -0.0416883 -0.0409469 0 0 0 0.925505 -2.67928 0.170048 0 -1.05196e-05 0 0 0 0 0 0 0 0 0 0 0 0 0 0 0 0 0 67 0.0008 0 
5258 1 0.0163402 -0.0337123 -0.0413228 0 0 0 0.5546 -1.79628 1.05245 0 -1.05196e-05 0 0 0 0 0 0 0 0 0 0 0 0 0 0 0 0 0 78 0.0008 0 
4862 6 0.0021178 -0.0202865 -0.0388785 0 0 0 0.926114 -9.61044 1.90575 0 -1.05196e-05 0 0 0 0 0 0 0 0 0 0 0 0 0 0 0 0 0 60 0.0008 0 
1594 6 0.042152 -0.0495449 -0.031671 0 0 0 1.56559 -5.27877 9.78911 0 -1.05196e-05 0 0 0 0 0 0 0 0 0 0 0 0 0 0 0 0 0 81 0.0008 0 
8201 11 0.00702149 -0.0373174 -0.0356894 0 0 0 0.233035 -5.59672 1.12312 0 -1.05196e-05 0 0 0 0 0 0 0 0 0 0 0 0 0 0 0 0 0 66 0.0008 0 
1148 1 0.00339503 -0.0512182 -0.0288249 0 0 0 0.733266 -3.10286 4.11206 0 -1.05196e-05 0 0 0 0 0 0 0 0 0 0 0 0 0 0 0 0 0 58 0.0008 0 
10990 2 0.0156049 -0.0537828 -0.0242769 0 0 0 4.06128 -2.39327 7.38258 0 -1.05196e-05 0 0 0 0 0 0 0 0 0 0 0 0 0 0 0 0 0 23 0.0008 0 
12335 5 0.029185 -0.0549947 -0.0267261 0 0 0 -0.149903 0.00364207 -0.00940127 -2.45041e-18 -9.80505e-07 2.53098e-06 0 0 0 0 0 0 0 0 0 0 0 0 0 0 0 0 11 0.0008 0 
4685 6 0.0121329 -0.0572729 -0.0146149 0 0 0 1.66463 -2.21137 20.336 0.00312153 0.0299696 0.0131158 0 0 0 0 0 0 0 0 0 0 0 0 0 0 0 0 76 0.0008 0 
8449 5 0.024345 -0.0541938 -0.0215282 0 0 0 1.89126 -0.23532 3.36871 0 -1.05196e-05 0 0 0 0 0 0 0 0 0 0 0 0 0 0 0 0 0 62 0.0008 0 
17194 3 0.0300156 -0.058575 -0.00524774 0 0 0 16.3692 -11.656 33.7321 0 -1.05196e-05 0 0 0 0 0 0 0 0 0 0 0 0 0 0 0 0 0 13 0.0008 0 
7279 2 0.0304167 -0.0546011 -0.0169354 0 0 0 4.48508 -3.97654 10.5815 0 -1.05196e-05 0 0 0 0 0 0 0 0 0 0 0 0 0 0 0 0 0 74 0.0008 0 
8212 1 0.0434235 -0.0552106 -0.0182848 0 0 0 -2.03254 -1.62193 6.48828 0 -1.05196e-05 0 0 0 0 0 0 0 0 0 0 0 0 0 0 0 0 0 34 0.0008 0 
702 2 0.0351096 -0.0580655 -0.0187995 0 0 0 -0.0775241 -0.00899934 0.02323 2.05806e-17 -9.80505e-07 2.53098e-06 0 0 0 0 0 0 0 0 0 0 0 0 0 0 0 0 64 0.0008 0 
1421 6 0.0234279 -0.0570368 -0.0107658 0 0 0 0.87917 -5.91894 14.9176 0 -1.05196e-05 0 0 0 0 0 0 0 0 0 0 0 0 0 0 0 0 0 87 0.0008 0 
11726 4 0.043095 -0.0588434 -0.0167916 0 0 0 -0.0526139 -0.00664624 0.0171559 -3.32949e-19 -9.80505e-07 2.53098e-06 0 0 0 0 0 0 0 0 0 0 0 0 0 0 0 0 19 0.0008 0 
9644 2 0.0395614 -0.0587485 -0.0170365 0 0 0 -0.0248967 -0.0245807 0.0634501 -7.70846e-18 -9.80505e-07 2.53098e-06 0 0 0 0 0 0 0 0 0 0 0 0 0 0 0 0 14 0.0008 0 
17627 1 0.0467486 -0.0588083 -0.0168821 0 0 0 -0.0458519 -0.022463 0.0579836 -7.00366e-19 -9.80505e-07 2.53098e-06 0 0 0 0 0 0 0 0 0 0 0 0 0 0 0 0 0 0.0008 0 
18641 7 0.0426158 -0.0546272 -0.00906206 0 0 0 -3.0994 -2.83296 14.7237 0 -3.55035e-05 0 0 0 0 0 0 0 0 0 0 0 0 0 0 0 0 0 0 0.0012 0 
13872 3 0.0413859 -0.0589841 -0.0160863 0 0 0 -0.0579884 0.00131432 -0.00703098 -9.89006e-18 -2.53692e-07 1.35713e-06 0 0 0 0 0 0 0 0 0 0 0 0 0 0 0 0 20 0.0008 0 
15694 7 0.0448819 -0.0592207 -0.0148205 0 0 0 -0.125447 -0.0113549 0.0607434 6.25826e-18 -2.53692e-07 1.35713e-06 0 0 0 0 0 0 0 0 0 0 0 0 0 0 0 0 0 0.0008 0 
13923 7 0.000811755 -0.0594341 -0.0136791 0 0 0 0.000529148 -0.00935984 0.0500707 1.2601e-18 -2.53692e-07 1.35713e-06 0 0 0 0 0 0 0 0 0 0 0 0 0 0 0 0 19 0.0008 0 
17917 3 0.036047 -0.0594881 -0.01339 0 0 0 0.00451438 -0.0028575 0.0152863 -1.94805e-18 -2.53692e-07 1.35713e-06 0 0 0 0 0 0 0 0 0 0 0 0 0 0 0 0 0 0.0008 0 
15188 4 0.038766 -0.0594148 -0.0137822 0 0 0 0.00731401 -0.000853896 0.00456728 -2.50321e-13 -2.52171e-07 1.35742e-06 0 0 0 0 0 0 0 0 0 0 0 0 0 0 0 0 3 0.0008 0 
14527 2 0.00212275 -0.0596474 -0.0125377 0 0 0 0.0324543 -0.00661182 0.0353701 1.73837e-18 -2.53692e-07 1.35713e-06 0 0 0 0 0 0 0 0 0 0 0 0 0 0 0 0 15 0.0008 0 
11974 2 0.0288506 -0.0595502 -0.0130577 0 0 0 -0.0590644 0.000303301 -0.00162273 -1.36469e-06 -1.27124e-06 6.80222e-06 0 0 0 0 0 0 0 0 0 0 0 0 0 0 0 0 17 0.0008 0 
18396 4 0.0349187 -0.0596972 -0.0122714 0 0 0 0.0024425 -0.00258896 0.0138497 -9.58187e-19 -2.53692e-07 1.35713e-06 0 0 0 0 0 0 0 0 0 0 0 0 0 0 0 0 1 0.0008 0 
1313 4 0.037526 -0.0596017 -0.0127823 0 0 0 0.00703793 -0.00122969 0.00657922 3.52479e-13 -2.55135e-07 1.35686e-06 0 0 0 0 0 0 0 0 0 0 0 0 0 0 0 0 39 0.0008 0 
8832 3 0.0440833 -0.0597039 -0.0122359 0 0 0 -0.0226531 -0.00317088 0.0169627 -1.73408e-18 -2.53692e-07 1.35713e-06 0 0 0 0 0 0 0 0 0 0 0 0 0 0 0 0 60 0.0008 0 
13493 8 0.0461203 -0.0596627 -0.0124563 0 0 0 -0.0172992 -0.00370763 0.0198341 8.52924e-19 -2.53692e-07 1.35713e-06 0 0 0 0 0 0 0 0 0 0 0 0 0 0 0 0 61 0.0008 0 
16349 4 0.000800214 -0.0598285 -0.0115691 0 0 0 -0.000164109 -0.000946956 0.00506595 -9.70242e-07 -3.4832e-08 1.82738e-07 0 0 0 1 0 0 0 0 0 0 0 0 0 0 0 0 2 0.0008 0 
13193 11 0.0233725 -0.0600594 -0.010334 0 0 0 0.00193627 -0.000335179 0.00179305 -1.02291e-16 -2.53688e-07 1.35713e-06 0 0 0 0 0 0 0 0 0 0 0 0 0 0 0 0 27 0.0008 0 
17453 12 0.0270504 -0.0598309 -0.0115561 0 0 0 -0.0130942 0.00117585 -0.00629026 -5.77056e-19 -2.53692e-07 1.35713e-06 0 0 0 0 0 0 0 0 0 0 0 0 0 0 0 0 2 0.0008 0 
17465 4 0.0288684 -0.0598619 -0.0113904 0 0 0 -0.0616516 -0.00254979 0.0136405 1.17723e-06 5.69671e-07 -3.04858e-06 0 0 0 0 0 0 0 0 0 0 0 0 0 0 0 0 0 0.0008 0 
6537 6 0.0356395 -0.0600132 -0.010581 0 0 0 0.0052131 -0.0018445 0.00986719 -8.20944e-19 -2.53692e-07 1.35713e-06 0 0 0 0 0 0 0 0 0 0 0 0 0 0 0 0 30 0.0008 0 
5801 6 0.0372729 -0.0599026 -0.0111729 0 0 0 0.00890726 -0.000162372 0.000862744 -1.70019e-06 7.08475e-08 -1.06171e-06 0 0 0 0 0 1 0 0 0 0 0 0 0 0 0 0 38 0.0008 0 
15673 4 0.039716 -0.0598046 -0.0116969 0 0 0 0.0190575 -0.000719163 0.00443525 1.03424e-06 6.73337e-07 -3.0033e-07 0 0 0 1 0 0 0 0 0 0 0 0 0 0 0 0 26 0.0008 0 
12749 3 0.0242571 -0.0603049 -0.00902042 0 0 0 0.00359406 -0.000320781 0.00171603 -5.45759e-17 -2.53698e-07 1.35713e-06 0 0 0 0 0 0 0 0 0 0 0 0 0 0 0 0 12 0.0008 0 
14170 7 0.00115037 -0.0601154 -0.0100345 0 0 0 -0.00358472 -0.0010832 0.00579885 -3.91967e-07 -6.91222e-08 3.54334e-07 0 0 0 1 0 0 1 0 0 0 0 0 0 0 0 0 9 0.0008 0 
15555 3 0.00249823 -0.0602737 -0.00918723 0 0 0 0.000124219 1.83535e-05 4.83262e-05 1.24533e-07 -5.72721e-08 -2.01846e-07 0 0 1 0 0 0 1 0 0 0 0 0 0 0 0 0 8 0.0008 0 
5338 2 0.00529853 -0.060286 -0.00912188 0 0 0 0.00165638 -0.000559519 0.00289607 3.28627e-07 -1.26369e-07 9.92898e-07 0 1 0 0 0 0 0 0 0 0 0 0 0 0 0 0 60 0.0008 0 
15381 2 0.006843 -0.0602092 -0.00953244 0 0 0 0.0015633 -0.000445695 0.00241261 1.49478e-07 -2.31561e-07 1.03769e-06 0 1 0 0 0 0 0 0 0 0 0 0 0 0 0 0 8 0.0008 0 
14539 6 0.010488 -0.0601593 -0.00979974 0 0 0 0.0107178 0.000408902 -0.00218745 -9.80637e-15 -2.53705e-07 1.35713e-06 0 0 0 0 0 0 0 0 0 0 0 0 0 0 0 0 2 0.0008 0 
2010 2 0.0267065 -0.0602888 -0.00910692 0 0 0 -0.00691739 0.000378141 -0.00217209 -2.66927e-08 -1.207e-08 1.47642e-06 0 1 0 0 0 0 0 0 0 0 0 0 0 0 0 0 49 0.0008 0 
1903 4 0.0281895 -0.0601771 -0.0097043 0 0 0 -0.00716032 -2.34837e-05 0.000271999 2.28004e-09 2.55063e-06 -1.22884e-06 0 0 0 1 0 0 0 0 0 0 0 0 0 0 0 0 85 0.0008 0 
17490 7 0.0306164 -0.0602152 -0.00950052 0 0 0 -0.0448042 -0.00768163 0.0410931 9.02568e-18 -2.53692e-07 1.35713e-06 0 0 0 0 0 0 0 0 0 0 0 0 0 0 0 0 0 0.0008 0 
18020 5 0.032423 -0.0601064 -0.0100717 0 0 0 -0.0463492 0.000624399 -0.0115611 0 -1.05196e-05 0 0 0 0 0 0 0 0 0 0 0 0 0 0 0 0 0 1 0.0008 0 
11428 3 0.0343569 -0.0602166 -0.00949272 0 0 0 0.0132475 0.00266095 -0.0142348 -3.498e-16 -2.53683e-07 1.35713e-06 0 0 0 0 0 0 0 0 0 0 0 0 0 0 0 0 15 0.0008 0 
10209 5 0.0375472 -0.0601922 -0.00962355 0 0 0 0.00762676 -0.000261932 0.00125113 -2.97935e-06 9.33102e-07 5.94695e-07 0 0 0 0 2 1 0 0 0 0 0 0 0 0 0 0 34 0.0008 0 
14994 1 0.0389949 -0.0600668 -0.010293 0 0 0 0.00668656 -0.000871748 -0.00141859 -2.56632e-07 -5.42687e-06 1.69554e-06 1 0 0 1 1 0 0 0 0 0 0 0 0 0 0 0 15 0.0008 0 
12382 5 0.0410812 -0.0602338 -0.00940101 0 0 0 0.0233245 -0.00148034 0.00791911 5.39107e-18 -2.53692e-07 1.35713e-06 0 0 0 0 0 0 0 0 0 0 0 0 0 0 0 0 14 0.0008 0 
12757 3 0.000802325 -0.0604127 -0.00844416 0 0 0 0.00060745 -1.39133e-05 -2.45836e-05 -1.97293e-07 -2.85361e-08 -8.77982e-08 0 0 0 0 0 0 0 0 0 0 0 0 0 0 0 0 28 0.0008 0 
7654 8 0.0024901 -0.0605677 -0.00761461 0 0 0 0.000155442 5.41082e-06 3.90039e-05 -3.14626e-07 4.80212e-08 -3.77207e-07 0 0 1 0 0 0 0 2 0 0 0 0 0 0 0 0 88 0.0008 0 
17336 10 0.00389092 -0.0604257 -0.00837431 0 0 0 0.000281952 -8.11893e-05 0.000401398 2.80772e-07 1.71097e-07 1.15122e-07 0 1 0 0 0 0 0 1 0 1 0 0 0 0 0 0 25 0.0008 0 
15828 4 0.00543818 -0.0605944 -0.00747194 0 0 0 0.000576535 1.04861e-05 -0.000138954 -6.77647e-08 -1.49614e-07 1.11349e-06 0 0 0 0 0 0 0 0 0 0 0 0 0 0 0 0 13 0.0008 0 
8467 4 0.00818779 -0.0603685 -0.00868032 0 0 0 0.00223056 -0.000259171 0.00139251 7.88636e-08 -2.73006e-07 1.40456e-06 0 1 0 0 0 0 0 0 0 0 0 0 0 0 0 0 51 0.0008 0 
752 3 0.0102334 -0.0605662 -0.00762302 0 0 0 0.0056164 -0.000408139 0.00174643 1.91305e-07 2.28249e-07 -1.39004e-06 0 0 0 0 0 0 0 0 0 0 0 0 0 0 0 0 56 0.0008 0 
2108 4 0.0115081 -0.0603877 -0.0085751 0 0 0 0.00293758 -0.00505422 -0.00154945 0 -1.05196e-05 0 0 0 0 0 0 0 0 0 0 0 0 0 0 0 0 0 62 0.0008 0 
7967 9 0.0127807 -0.0605668 -0.00761944 0 0 0 3.29178e-05 0.000123759 -0.000653698 -6.88778e-07 6.38745e-08 4.45696e-07 0 0 0 0 0 0 0 0 1 0 0 0 0 0 0 0 74 0.0008 0 
13645 4 0.0150441 -0.0605959 -0.00746408 0 0 0 -0.000323023 -0.000139969 0.000703731 1.59897e-06 -3.19831e-07 1.54995e-08 0 0 0 2 0 0 0 0 0 0 0 0 0 0 0 0 47 0.0008 0 
18001 5 0.0164366 -0.0603713 -0.0086655 0 0 0 0.0142988 -5.11046e-05 0.000266515 -1.30706e-10 -2.62648e-07 1.35356e-06 0 0 0 0 0 0 0 0 0 0 0 0 0 0 0 0 0 0.0008 0 
17147 2 0.0181995 -0.0604951 -0.00800286 0 0 0 0.000980261 0.000183601 -0.000139592 -7.13895e-06 1.13865e-06 -3.1666e-06 0 2 0 0 0 0 0 0 0 0 0 0 0 0 0 0 6 0.0008 0 
15203 3 0.0200486 -0.0603508 -0.00877507 0 0 0 0.00763867 -0.00042229 0.00218109 9.16449e-08 -2.47346e-07 7.61361e-07 0 0 1 0 0 0 0 0 0 0 0 0 0 0 0 0 16 0.0008 0 
15517 2 0.0213078 -0.0605323 -0.00780436 0 0 0 0.00806332 -0.000334089 0.00177707 2.52371e-07 -1.49542e-08 1.71713e-07 0 1 0 0 0 0 0 0 0 0 0 0 0 0 0 0 8 0.0008 0 
10441 10 0.0228511 -0.0604475 -0.00825767 0 0 0 0.000126961 7.68519e-05 -0.000349501 -2.29511e-07 -1.42246e-07 8.85311e-07 0 0 0 0 0 0 0 0 0 1 0 0 0 0 0 0 44 0.0008 0 
17720 5 0.0260952 -0.0605605 -0.00765349 0 0 0 0.00482604 -0.000532224 0.00283478 6.85559e-08 -3.31291e-07 1.24952e-06 0 1 0 0 1 0 0 0 0 0 0 0 0 0 0 0 2 0.0008 0 
874 2 0.0278762 -0.0605767 -0.0075667 0 0 0 -0.00288399 0.000561999 -0.00256594 5.24815e-06 -1.49383e-06 -1.86224e-06 0 2 0 0 0 0 0 0 0 0 0 0 0 0 0 0 44 0.0008 0 
4132 2 0.0291847 -0.0604072 -0.00847309 0 0 0 -0.00248686 0.000520807 -0.00221064 -1.22878e-06 -3.0206e-06 1.21204e-06 0 1 0 1 0 0 0 0 0 0 0 0 0 0 0 0 68 0.0008 0 
9557 4 0.0306806 -0.0605408 -0.00775886 0 0 0 -0.000657755 -0.000248987 0.00132885 1.04427e-13 -2.54509e-07 1.35694e-06 0 0 0 0 0 0 0 0 0 0 0 0 0 0 0 0 50 0.0008 0 
15810 2 0.0321707 -0.0603994 -0.00851518 0 0 0 0.0290315 -0.000785832 0.00751689 -5.22873e-06 4.35248e-06 -2.86665e-06 0 1 0 0 0 0 0 0 0 0 0 0 0 0 0 0 5 0.0008 0 
8496 3 0.034506 -0.060537 -0.00777903 0 0 0 0.00240289 -0.000421739 0.0022276 -1.23059e-09 -2.63718e-07 1.35731e-06 0 0 0 0 0 0 0 0 0 0 0 0 0 0 0 0 50 0.0008 0 
8211 15 0.0357883 -0.0603488 -0.00878568 0 0 0 0.00403988 -0.000160358 0.00118684 -3.53681e-06 1.57968e-06 -5.57902e-06 0 0 0 0 0 0 0 0 0 0 0 0 0 0 1 0 59 0.0008 0 
4489 4 0.0373684 -0.0604843 -0.00806074 0 0 0 0.00144622 -4.04892e-05 0.00116669 -1.4843e-06 -1.9323e-06 1.54485e-06 0 0 0 1 1 0 0 0 0 0 0 0 0 0 0 0 55 0.0008 0 
9184 3 0.038862 -0.06036 -0.00872586 0 0 0 0.00746317 0.000319256 -0.000594507 -2.36211e-07 9.86933e-07 2.05605e-06 1 0 1 0 0 0 0 0 0 0 0 0 0 0 0 0 60 0.0008 0 
7257 5 0.0407008 -0.0605208 -0.00786542 0 0 0 0.0104425 -0.000495593 0.00267884 1.49117e-11 -2.90543e-07 1.35023e-06 0 0 0 0 0 0 0 0 0 0 0 0 0 0 0 0 25 0.0008 0 
924 3 0.0422966 -0.0604271 -0.00836662 0 0 0 0.0149177 -0.000676442 0.00361864 -2.11021e-18 -2.53692e-07 1.35713e-06 0 0 0 0 0 0 0 0 0 0 0 0 0 0 0 0 50 0.0008 0 
10116 2 0.046208 -0.0604669 -0.00815395 0 0 0 -0.0302315 -0.00963213 0.0515273 -9.92999e-19 -2.53692e-07 1.35713e-06 0 0 0 0 0 0 0 0 0 0 0 0 0 0 0 0 63 0.0008 0 
3129 3 0.000800239 -0.0607067 -0.00687148 0 0 0 -0.000168403 -1.75535e-05 -6.98684e-05 9.96885e-07 5.65385e-07 1.12525e-07 0 0 1 0 0 0 0 0 0 0 0 0 0 0 0 0 35 0.0008 0 
8040 3 0.00219378 -0.0608566 -0.00606926 0 0 0 -7.30188e-05 0.000113484 -4.95561e-05 2.29854e-06 -1.41458e-07 3.57255e-07 0 0 2 0 0 0 0 1 0 0 0 0 0 0 0 0 98 0.0008 0 
14580 12 0.00398447 -0.0607192 -0.00680426 0 0 0 0.000392577 -5.17023e-06 0.000161099 2.54996e-07 -5.95961e-07 -1.80564e-06 0 0 0 0 0 0 0 0 0 1 0 1 0 0 0 0 43 0.0008 0 
12332 2 0.00676419 -0.060764 -0.00656465 0 0 0 0.00162277 -0.000106547 9.15111e-05 -3.43625e-07 -4.98574e-07 6.1371e-07 0 1 0 0 0 0 0 0 0 0 0 0 0 0 0 0 46 0.0008 0 
17589 11 0.00826701 -0.0606622 -0.00710933 0 0 0 -0.00107144 -0.000327614 0.00174451 5.62593e-11 -2.3733e-07 1.3602e-06 0 0 0 0 0 0 0 0 0 0 0 0 0 0 0 0 20 0.0008 0 
16821 3 0.00956853 -0.0608335 -0.00619266 0 0 0 0.000493016 0.000284963 -0.000416327 6.30961e-07 -1.17977e-06 -1.11767e-06 0 0 2 0 0 0 0 0 0 0 0 0 0 0 0 0 20 0.0008 0 
15785 4 0.0115008 -0.0607524 -0.00662649 0 0 0 0.00488973 -0.000360079 0.00164168 -1.51268e-07 -1.22889e-06 1.24692e-06 0 0 0 1 0 0 0 0 0 0 0 0 0 0 0 0 5 0.0008 0 
16369 1 0.0138338 -0.0607881 -0.00643553 0 0 0 -0.00086971 -6.84817e-05 0.000131095 2.63319e-07 4.30879e-07 -1.31869e-08 1 0 0 1 0 0 0 0 1 0 0 0 0 0 0 0 10 0.0008 0 
13527 2 0.0166009 -0.0606637 -0.00710103 0 0 0 -0.000925792 -0.000360259 0.00191596 7.75209e-07 -1.12767e-07 1.38901e-06 0 0 0 1 0 0 0 0 0 0 0 0 0 0 0 0 11 0.0008 0 
13175 6 0.0180513 -0.0607879 -0.00643692 0 0 0 3.21541e-05 4.80274e-05 -2.69545e-05 3.20647e-07 7.92441e-08 -3.30911e-08 0 1 0 0 0 2 0 0 0 0 0 0 0 0 0 0 25 0.0008 0 
16168 4 0.0196109 -0.0606336 -0.00726238 0 0 0 -3.88862e-05 -0.000176974 0.000100868 6.36383e-07 -3.1885e-08 5.19378e-07 0 1 1 1 0 0 0 0 0 0 0 0 0 0 0 0 22 0.0008 0 
15806 3 0.0209565 -0.060819 -0.00627007 0 0 0 0.000464444 -6.57698e-06 9.2774e-05 2.53055e-08 -9.17681e-09 5.82221e-08 0 1 1 0 0 0 0 0 0 0 0 0 0 0 0 0 24 0.0008 0 
9574 2 0.0224898 -0.060735 -0.00671993 0 0 0 0.000524966 -1.1331e-05 8.12061e-05 1.3711e-07 -8.68977e-09 5.99224e-08 0 1 0 0 0 0 0 0 0 0 0 0 0 0 0 0 45 0.0008 0 
7627 1 0.0241525 -0.0606185 -0.0073428 0 0 0 3.00727e-05 -6.40461e-05 -2.17363e-05 5.66695e-08 4.35618e-07 4.82539e-07 1 0 0 0 0 0 0 0 0 1 0 0 0 0 0 0 34 0.0008 0 
15618 1 0.0253264 -0.0608183 -0.0062742 0 0 0 -0.00015671 -7.44245e-05 0.00025858 1.22692e-06 6.84487e-07 -2.34341e-07 3 0 0 0 1 0 0 0 0 0 0 0 0 0 0 0 14 0.0008 0 
658 6 0.026926 -0.0608131 -0.00630158 0 0 0 -0.000311295 0.000183594 -0.000307436 6.01555e-06 5.99232e-07 -1.33035e-06 1 1 0 0 0 1 0 0 0 0 0 0 0 0 0 0 58 0.0008 0 
16870 13 0.0293286 -0.0607 -0.00690699 0 0 0 -0.00295862 3.96254e-05 -0.00105527 2.04548e-07 -3.54203e-07 6.59133e-07 0 2 0 0 0 0 0 0 0 0 0 0 2 0 0 0 12 0.0008 0 
6450 6 0.0307488 -0.0608353 -0.00618346 0 0 0 -0.00408815 -0.000249496 0.00257115 1.21069e-06 6.00353e-06 -3.43975e-06 0 0 0 0 0 2 0 0 0 0 0 0 1 0 0 0 53 0.0008 0 
3551 3 0.0321499 -0.0606933 -0.00694256 0 0 0 -0.00237131 -0.00103806 0.00624019 6.63389e-06 -8.08267e-07 -4.1371e-06 0 1 1 0 0 1 0 0 0 0 0 0 0 0 0 0 39 0.0008 0 
10802 6 0.0336661 -0.0607873 -0.00644031 0 0 0 -0.000330914 -2.11099e-05 -0.000462045 -1.8147e-07 3.30416e-06 3.89565e-06 0 0 1 0 0 2 0 0 0 0 0 0 0 0 0 0 16 0.0008 0 
5232 3 0.0360109 -0.0606399 -0.00722834 0 0 0 -0.000172493 -0.000737391 0.000358009 2.41053e-06 8.55387e-07 2.60649e-06 0 0 2 1 0 0 0 0 0 0 0 0 0 0 1 0 51 0.0008 0 
7503 4 0.0374228 -0.0607781 -0.00648884 0 0 0 -2.11975e-05 -9.25248e-05 0.00102299 -4.24405e-06 -2.63992e-06 -4.33638e-06 0 0 1 2 0 0 0 0 0 0 0 0 0 0 0 0 55 0.0008 0 
10781 5 0.0390371 -0.0606522 -0.00716262 0 0 0 -0.00143366 -0.00035252 0.000235987 7.95752e-07 -3.53221e-08 -9.34586e-07 0 0 1 0 1 0 0 0 0 0 0 0 0 0 0 0 53 0.0008 0 
4160 5 0.040391 -0.0608094 -0.00632182 0 0 0 -0.000460051 -1.89879e-06 0.000154401 -1.32744e-07 2.70615e-07 -5.08353e-06 0 0 0 0 0 0 0 0 0 0 0 0 0 0 0 0 56 0.0008 0 
11962 4 0.0421236 -0.0607219 -0.00679005 0 0 0 0.00852959 -0.000531064 0.0027804 1.85924e-07 3.75827e-07 7.7686e-07 0 0 0 0 0 0 0 0 0 0 0 0 0 0 0 0 42 0.0008 0 
7649 2 0.000799896 -0.0609356 -0.00528813 0 0 0 -8.71919e-05 4.96914e-05 -0.00013384 7.71665e-07 9.85032e-08 2.44752e-06 0 0 2 0 0 0 0 0 0 0 0 0 0 0 0 0 54 0.0008 0 
4413 6 0.00378493 -0.0609356 -0.00523168 0 0 0 -0.00043184 -0.00019186 -0.000150124 7.48983e-07 1.27538e-06 -1.31156e-07 0 0 0 0 0 0 0 0 0 0 0 1 0 0 0 0 70 0.0008 0 
14360 4 0.00530679 -0.0608874 -0.00590454 0 0 0 -0.000542034 -0.000174022 0.000158373 1.20765e-06 4.26695e-07 -8.48073e-07 0 0 0 2 0 0 0 0 0 0 0 0 0 0 0 0 35 0.0008 0 
3837 1 0.00661249 -0.0609356 -0.00498117 0 0 0 -0.000268752 -8.44387e-05 -7.60349e-05 4.03428e-07 1.07172e-06 -1.21555e-06 3 1 0 1 0 0 0 0 0 0 0 0 0 0 0 0 97 0.0008 0 
4306 9 0.00811173 -0.0609356 -0.00553949 0 0 0 3.72344e-05 0.000244329 -8.58054e-05 9.58138e-07 4.09647e-08 -1.40655e-06 1 0 1 0 0 0 0 0 1 0 0 0 0 0 0 0 57 0.0008 0 
255 2 0.0108136 -0.0609356 -0.00519324 0 0 0 0.000188119 1.14142e-05 -0.000293648 1.06511e-06 -4.28768e-07 2.99149e-07 0 0 1 1 0 0 0 0 0 0 0 0 0 0 0 0 51 0.0008 0 
4848 7 0.0125849 -0.0609356 -0.00544601 0 0 0 -0.000695331 0.000184104 -0.000882188 -1.3724e-08 -1.78922e-06 -2.77252e-08 0 0 0 0 0 0 0 0 0 0 0 0 0 0 0 0 60 0.0008 0 
15272 2 0.0141318 -0.0609357 -0.00487061 0 0 0 2.24026e-05 -2.02361e-05 -5.70101e-05 1.90648e-07 5.92368e-07 4.32259e-07 1 1 0 0 0 0 0 0 0 0 0 0 0 0 0 0 11 0.0008 0 
1637 5 0.0154102 -0.0608821 -0.00593276 0 0 0 0.0042349 0.000118551 -0.000606567 -3.45675e-07 4.35848e-08 4.34522e-07 0 0 0 0 1 0 0 0 0 0 0 0 0 0 0 0 74 0.0008 0 
5892 2 0.0169262 -0.0609356 -0.00530911 0 0 0 -2.03974e-05 8.60055e-06 -3.06903e-05 1.72233e-08 7.56474e-09 2.95416e-07 0 2 0 0 0 1 0 0 0 0 0 0 0 0 0 0 48 0.0008 0 
5399 2 0.0194628 -0.0609263 -0.0056965 0 0 0 4.61117e-05 -2.06405e-05 4.00457e-05 6.22026e-07 -4.19185e-07 1.10412e-07 0 2 0 1 0 1 0 0 0 0 0 0 0 0 0 0 78 0.0008 0 
11880 4 0.0207093 -0.0609356 -0.00469367 0 0 0 3.05958e-05 -7.07041e-06 3.29457e-05 -5.33064e-08 -7.55534e-08 2.16358e-07 0 1 1 2 0 0 0 0 0 0 0 0 0 0 0 0 46 0.0008 0 
16506 3 0.0222422 -0.0609356 -0.00515207 0 0 0 -8.48329e-06 7.08348e-06 1.38961e-05 -2.2755e-07 -1.65567e-07 -4.43717e-08 0 1 0 1 0 0 0 0 0 0 0 0 0 0 0 0 8 0.0008 0 
13149 4 0.0237981 -0.0609052 -0.00580917 0 0 0 -0.000124559 -1.0928e-05 4.65445e-05 -2.52594e-06 -6.13512e-07 -5.95235e-07 2 0 0 1 0 0 0 0 0 0 0 0 0 0 0 0 59 0.0008 0 
14683 7 0.0250787 -0.0609356 -0.00469798 0 0 0 -0.000131255 -3.73953e-05 6.20018e-05 -5.795e-07 -1.13577e-07 1.53018e-07 1 0 0 0 0 0 2 0 0 0 0 0 0 0 0 0 21 0.0008 0 
12617 7 0.0266785 -0.0609356 -0.00472568 0 0 0 0.000158823 4.9785e-05 -2.52834e-06 5.37169e-07 6.28648e-07 -7.43207e-07 0 0 0 0 0 1 0 0 0 0 0 0 0 0 0 0 34 0.0008 0 
14576 3 0.0283785 -0.0609356 -0.0056414 0 0 0 -0.000463857 -7.33341e-05 3.63384e-05 -3.43115e-07 -1.16214e-06 4.44367e-07 0 0 1 0 0 0 0 0 0 0 0 0 1 0 0 0 17 0.0008 0 
808 1 0.0297172 -0.0609356 -0.00476397 0 0 0 3.87755e-05 -3.61471e-09 -5.04186e-05 -3.8718e-17 -7.96592e-11 5.05586e-17 0 0 0 0 0 0 0 0 0 0 0 0 0 0 0 0 61 0.0008 0 
9751 4 0.0313259 -0.0609356 -0.00469488 0 0 0 -0.000271636 -0.000224688 0.00182207 1.10546e-07 -1.14137e-06 -8.21854e-06 0 0 0 0 0 1 0 0 0 0 0 0 0 0 0 0 32 0.0008 0 
10544 4 0.0328879 -0.0609356 -0.00505023 0 0 0 -0.00170912 -0.000102241 -0.000429239 -4.97517e-07 1.80855e-07 6.57684e-07 0 0 0 1 0 1 0 0 0 0 0 0 0 0 0 0 30 0.0008 0 
2102 5 0.0351659 -0.0608895 -0.00589297 0 0 0 -0.000710216 -0.000366567 0.000970999 2.09672e-06 -1.17402e-06 1.90678e-06 0 0 1 0 2 1 0 0 0 0 0 0 0 0 0 0 98 0.0008 0 
338 3 0.0365768 -0.0609356 -0.00514006 0 0 0 -5.26226e-05 0.000503948 0.00102411 -3.97471e-06 9.42953e-07 -3.91702e-06 0 0 0 1 1 0 0 0 0 0 0 0 0 0 0 0 39 0.0008 0 
4777 3 0.0387528 -0.0609357 -0.00561392 0 0 0 0.000332858 0.000404375 0.00104232 9.27814e-07 2.80207e-06 -1.35371e-06 0 0 1 1 1 0 0 0 0 0 0 0 0 0 0 0 75 0.0008 0 
818 5 0.0401015 -0.0609357 -0.00475346 0 0 0 0.000126186 -0.000255023 4.55038e-05 -1.03957e-06 8.636e-07 -7.59604e-07 0 0 1 0 2 0 0 0 0 0 0 0 0 0 0 0 86 0.0008 0 
4952 4 0.0416085 -0.0609357 -0.00529049 0 0 0 9.04013e-05 -1.07057e-05 9.28316e-05 -1.08816e-06 1.48245e-06 7.21044e-07 0 0 0 1 1 0 0 0 0 0 0 0 0 0 0 0 67 0.0008 0 
9087 1 0.0431898 -0.0609357 -0.00559763 0 0 0 0.002706 -0.00128636 0.000920452 -2.23097e-07 2.04857e-05 3.19721e-07 0 0 0 0 0 0 0 0 0 0 0 0 0 0 0 0 48 0.0008 0 
9387 3 0.0447965 -0.0609356 -0.00554801 0 0 0 -0.000392863 7.65659e-10 0.0065042 -8.31996e-17 1.05301e-11 1.37746e-15 0 0 0 0 0 0 0 0 0 0 0 0 0 0 0 0 34 0.0008 0 
4709 6 0.0463827 -0.0609356 -0.00533239 0 0 0 3.98852e-06 1.01129e-07 0.00419044 -1.23789e-07 -2.49421e-11 2.26406e-07 0 0 0 0 0 1 0 0 0 0 0 0 0 0 0 0 63 0.0008 0 
18654 7 0.0435774 -0.0367382 -0.045558 0 0 0 -19.8817 -36.0104 30.3097 0 -3.55035e-05 0 0 0 0 0 0 0 0 0 0 0 0 0 0 0 0 0 0 0.0012 0 
7937 2 0.00080004 -0.0609356 -0.00368825 0 0 0 0.000152305 4.2415e-05 -7.02017e-05 -2.07686e-07 -2.60865e-07 6.24707e-07 0 1 0 0 0 0 0 0 0 0 0 0 0 0 0 0 62 0.0008 0 
10595 5 0.00235229 -0.0609356 -0.00447929 0 0 0 -0.00117259 -9.99477e-06 0.000344624 4.33202e-06 -1.70504e-06 4.86988e-08 0 0 1 0 2 0 0 0 0 0 0 0 0 0 0 0 93 0.0008 0 
9977 6 0.00371032 -0.0609356 -0.00363354 0 0 0 -0.000235707 -0.000175615 -0.000366913 1.85184e-06 4.77194e-06 8.10409e-07 0 0 0 0 1 2 0 0 0 0 0 0 0 0 0 0 55 0.0008 0 
5611 3 0.00515921 -0.0609357 -0.00431215 0 0 0 -0.0006298 -6.47909e-05 -0.000453409 3.38456e-07 -1.07388e-06 3.29338e-07 1 0 1 1 0 1 0 0 0 0 0 0 0 0 0 0 86 0.0008 0 
8455 4 0.00656288 -0.0609356 -0.00338201 0 0 0 -7.32906e-05 -2.28284e-05 7.00752e-05 1.0713e-06 7.15873e-08 1.26749e-07 1 0 0 1 0 0 0 0 0 0 0 0 0 0 0 0 85 0.0008 0 
2611 5 0.00929665 -0.0609356 -0.00446449 0 0 0 0.000581602 -5.78301e-05 -3.97448e-05 -8.60962e-07 1.96737e-06 8.21235e-07 0 0 0 0 1 0 0 0 1 0 0 0 0 0 0 0 64 0.0008 0 
12917 2 0.0112613 -0.0609356 -0.0036573 0 0 0 -0.00026376 1.72365e-05 -2.04079e-05 6.68521e-07 -4.96513e-08 8.03651e-07 0 2 0 0 0 0 0 0 0 0 0 0 0 0 0 0 38 0.0008 0 
2015 2 0.0128808 -0.0609356 -0.00387329 0 0 0 0.000167607 -2.37139e-05 8.36987e-05 -6.08366e-07 1.32233e-06 1.16855e-06 0 1 0 0 0 0 0 0 0 0 0 0 0 0 0 0 45 0.0008 0 
14749 4 0.0156449 -0.0609356 -0.00435102 0 0 0 4.07129e-05 -7.43691e-06 -5.4648e-06 -2.27901e-07 -1.29716e-07 3.0825e-07 0 2 0 1 1 0 0 0 0 0 0 0 0 0 0 0 25 0.0008 0 
16330 3 0.0174948 -0.0609356 -0.00381362 0 0 0 -2.86707e-05 -7.09738e-07 -9.29761e-05 -6.86872e-08 2.0699e-08 2.24799e-07 0 1 2 0 0 0 0 0 0 0 0 0 0 0 0 0 23 0.0008 0 
14256 8 0.0190593 -0.0609356 -0.00414835 0 0 0 1.72912e-05 6.76831e-07 4.75594e-05 -8.72436e-08 5.44999e-08 -7.57487e-09 0 1 1 0 0 0 0 0 0 0 0 0 0 0 0 0 27 0.0008 0 
700 8 0.0203058 -0.0609356 -0.0031455 0 0 0 2.57398e-05 -7.3468e-07 1.22673e-05 -7.3331e-08 -2.13489e-08 4.00743e-08 0 0 0 1 0 0 0 1 0 0 0 0 0 0 0 0 29 0.0008 0 
11529 2 0.0218814 -0.0609356 -0.00358686 0 0 0 -1.36041e-05 6.55781e-12 -0.000341083 -2.35005e-21 -1.44294e-16 -3.74397e-20 0 0 0 0 0 0 0 0 0 0 0 0 0 0 0 0 22 0.0008 0 
13211 3 0.023549 -0.0609356 -0.00422906 0 0 0 -2.67017e-05 -3.08357e-06 0.000114736 -2.61807e-07 6.94343e-08 -9.11489e-10 0 0 1 1 0 0 1 0 0 0 0 0 0 0 0 0 37 0.0008 0 
2137 3 0.0247229 -0.0609356 -0.00313808 0 0 0 -0.000144943 -3.04754e-05 -7.75739e-05 -2.8605e-07 -1.57326e-08 2.05729e-07 0 0 1 0 0 0 1 0 0 0 0 0 0 0 0 0 43 0.0008 0 
11224 7 0.0269534 -0.0609356 -0.00314955 0 0 0 -0.000210956 -4.46497e-05 9.43616e-05 -3.56222e-07 3.98228e-08 -9.71493e-08 0 0 0 0 0 0 1 0 0 0 0 0 0 0 0 0 22 0.0008 0 
9227 6 0.0282801 -0.0609356 -0.00404443 0 0 0 -0.000202052 4.98416e-06 0.000152036 1.50502e-08 -1.83331e-07 -6.56792e-08 0 0 1 0 0 0 0 0 0 0 0 0 0 0 0 0 48 0.0008 0 
7804 2 0.0301538 -0.0609356 -0.00322445 0 0 0 0.000147018 3.65403e-09 2.84741e-05 1.4779e-16 8.0548e-11 2.83156e-17 0 0 0 0 0 0 0 0 0 0 0 0 0 0 0 0 29 0.0008 0 
9956 4 0.0317556 -0.0609356 -0.0031541 0 0 0 0.00418671 2.16836e-05 0.00132799 -6.28347e-07 1.1903e-07 -1.03617e-05 0 0 0 1 0 0 0 0 0 0 0 0 0 0 0 0 27 0.0008 0 
4603 1 0.0333309 -0.0609356 -0.00351281 0 0 0 -0.000891739 8.65812e-05 2.62222e-05 -1.46172e-07 -2.97633e-06 -1.3286e-06 1 0 0 1 0 0 0 0 0 0 0 0 0 0 0 0 39 0.0008 0 
4071 8 0.034683 -0.0609356 -0.00436831 0 0 0 -0.000504432 1.067e-05 0.0012028 -5.62744e-07 -3.66273e-07 -6.1479e-07 0 0 0 0 1 0 0 1 0 0 0 0 0 0 0 0 57 0.0008 0 
9740 2 0.0363952 -0.0609356 -0.00354522 0 0 0 -0.00117004 2.48267e-05 0.00032815 -1.33177e-11 -2.88394e-07 1.40944e-10 0 0 0 0 0 0 0 0 0 0 0 0 0 0 0 0 49 0.0008 0 
6612 3 0.0379092 -0.0609357 -0.0042545 0 0 0 0.000654228 -0.000314735 0.000982537 -4.054e-06 2.08029e-06 -2.61233e-06 0 0 1 0 0 0 0 0 0 0 0 0 0 0 0 0 47 0.0008 0 
12082 1 0.0394155 -0.0609356 -0.00330822 0 0 0 0.000496945 -7.71973e-05 0.000290142 -5.55147e-07 -2.59811e-07 6.56004e-07 1 0 0 0 1 0 0 0 0 0 0 0 0 0 0 0 69 0.0008 0 
4793 1 0.0426623 -0.0609356 -0.00408676 0 0 0 -0.000387394 -0.000281564 0.000285525 6.19899e-06 4.52187e-06 -2.21648e-06 0 0 0 1 0 0 0 0 0 0 0 0 0 0 0 0 37 0.0008 0 
298 1 0.0442492 -0.0609356 -0.00387402 0 0 0 0.000625151 4.88552e-07 -0.00055904 -1.86183e-10 1.8147e-08 3.20438e-11 0 0 0 0 0 0 0 0 0 0 0 0 0 0 0 0 38 0.0008 0 
8538 8 0.0458485 -0.0609356 -0.00382407 0 0 0 0.000741198 4.18874e-08 -0.00137931 -8.89598e-15 -3.11546e-11 -1.63888e-14 0 0 0 0 0 0 0 0 0 0 0 0 0 0 0 0 51 0.0008 0 
1802 7 0.0474443 -0.0609356 -0.00364587 0 0 0 0.00232721 -4.42151e-12 -0.00600141 2.99518e-19 0 -5.9897e-19 0 0 0 0 0 0 0 0 0 0 0 0 0 0 0 0 93 0.0008 0 
5540 9 0.000814555 -0.0609356 -0.00208844 0 0 0 -0.000228834 1.81381e-05 -8.68547e-06 -4.08671e-07 -2.53354e-07 4.10515e-07 0 1 0 0 0 0 0 0 2 0 0 0 0 0 0 0 99 0.0008 0 
894 6 0.0022012 -0.0609356 -0.00288657 0 0 0 -0.000303238 -4.4937e-05 0.000134078 -1.33521e-06 -3.99786e-07 1.04809e-06 0 0 0 0 1 1 0 0 1 0 0 0 0 0 0 0 75 0.0008 0 
1225 1 0.00362201 -0.0609356 -0.0020362 0 0 0 0.000138729 -5.62532e-05 -0.000106815 1.04106e-06 1.41403e-06 -6.42655e-07 2 0 0 0 0 1 0 0 0 0 0 0 0 0 0 0 184 0.0008 0 
9269 5 0.00507078 -0.0609356 -0.00271475 0 0 0 -0.000350695 0.000191216 -0.000391678 5.94275e-06 -1.25635e-06 -5.97484e-07 1 0 1 0 1 0 0 0 0 0 0 0 0 0 0 0 77 0.0008 0 
11208 2 0.00650176 -0.0609356 -0.00178323 0 0 0 1.91264e-05 2.06561e-05 -5.86356e-05 -2.98679e-07 7.72916e-08 8.26944e-07 0 0 0 1 0 0 0 0 0 0 0 0 0 0 0 0 43 0.0008 0 
10613 5 0.00799826 -0.0609356 -0.00265032 0 0 0 -0.000947177 -4.09924e-12 0.00280664 6.683e-20 0 3.02153e-19 0 0 0 0 0 0 0 0 0 0 0 0 0 0 0 0 38 0.0008 0 
12304 8 0.00982426 -0.0609356 -0.00295399 0 0 0 -0.000189403 1.63511e-05 0.00086083 -3.49587e-07 -2.25184e-06 -8.48198e-07 0 1 0 0 1 0 0 0 0 0 0 0 0 0 0 0 52 0.0008 0 
10360 1 0.0122528 -0.0609356 -0.00240179 0 0 0 -4.98623e-05 -2.00883e-05 -0.00016607 -6.96993e-07 5.55236e-08 1.35769e-06 2 2 0 0 0 0 0 0 0 0 0 0 0 0 0 0 63 0.0008 0 
12116 6 0.0141868 -0.0609356 -0.00294818 0 0 0 0.000228454 -6.06624e-09 -0.000142399 -3.35174e-16 6.71872e-11 2.74431e-16 0 0 0 0 0 0 0 0 0 0 0 0 0 0 0 0 17 0.0008 0 
10496 1 0.0162134 -0.0609356 -0.00285566 0 0 0 -2.2695e-05 -2.34281e-06 2.93957e-07 1.11345e-07 -1.48785e-07 1.04281e-07 2 0 1 1 0 0 0 0 0 0 0 0 0 0 0 0 48 0.0008 0 
14724 5 0.0151446 -0.0609356 -0.00166516 0 0 0 1.11182e-05 1.93363e-06 -1.14283e-05 -7.4581e-08 -3.38741e-08 -2.80602e-07 1 0 0 0 2 0 0 0 0 0 0 0 0 0 0 0 18 0.0008 0 
7764 4 0.0184608 -0.0609356 -0.00252591 0 0 0 -0.000109671 4.11857e-12 -0.000332163 1.88004e-20 4.43845e-19 2.72791e-20 0 0 0 0 0 0 0 0 0 0 0 0 0 0 0 0 60 0.0008 0 
5953 8 0.0197895 -0.0609356 -0.00163117 0 0 0 0.000237824 1.13079e-05 0.00010384 1.29242e-07 -4.86443e-09 7.09483e-08 0 0 0 0 0 0 0 1 0 0 0 0 0 0 0 0 61 0.0008 0 
14434 6 0.0214195 -0.0609356 -0.00199685 0 0 0 5.95993e-05 -1.28203e-05 5.84021e-06 -2.47469e-07 3.93423e-08 1.00872e-07 0 0 0 0 0 2 0 1 0 0 0 0 0 0 0 0 25 0.0008 0 
6272 1 0.0231929 -0.0609356 -0.00266926 0 0 0 -0.00019961 6.89965e-06 7.70396e-05 1.00689e-07 -4.82506e-08 -1.81837e-08 1 0 1 0 0 0 0 0 0 0 0 0 0 0 0 0 56 0.0008 0 
9615 4 0.0258421 -0.0609356 -0.00199473 0 0 0 -0.000107928 5.56976e-05 -0.000322105 3.86018e-08 1.2304e-07 -9.52318e-08 0 0 1 1 0 0 0 0 0 0 0 0 0 0 0 0 45 0.0008 0 
4183 3 0.028723 -0.0609356 -0.00250694 0 0 0 1.64145e-05 -3.23444e-10 1.06235e-05 -1.39491e-18 -1.29294e-12 -1.00404e-18 0 0 0 0 0 0 0 0 0 0 0 0 0 0 0 0 51 0.0008 0 