ITEM: TIMESTEP
9400000
ITEM: NUMBER OF ATOMS
1152
ITEM: BOX BOUNDS ff ff ff
-0.01 0.45
-0.15 0.15
-0.08 0.1
ITEM: ATOMS id type x y z ix iy iz vx vy vz fx fy fz c_cc_1 c_cc_2 c_cc_3 c_cc_4 c_cc_5 c_cc_6 c_cc_7 c_cc_8 c_cc_9 c_cc_10 c_cc_11 c_cc_12 c_cc_13 c_cc_14 c_cc_15 c_cc_16 f_fppacc radius 
151 8 0.00544422 0.0236579 -0.0499943 0 0 0 -0.513116 -4.3894 -25.2805 0 -0.000164368 0 0 0 0 0 0 0 0 0 0 0 0 0 0 0 0 0 14 0.002 
741 5 0.0140717 0.0255 -0.0489317 0 0 0 0.189568 -10.6304 -3.71369 0 -0.000164368 0 0 0 0 0 0 0 0 0 0 0 0 0 0 0 0 0 18 0.002 
690 2 0.0176841 0.0261473 -0.0260205 0 0 0 2.49871 -8.81125 -1.81929 0 -0.000164368 0 0 0 0 0 0 0 0 0 0 0 0 0 0 0 0 0 15 0.002 
41 1 0.0151244 0.0528567 -0.0355 0 0 0 -9.36536e-221 -2.03637e-20 1.11885e-12 -8.26283e-222 1.35525e-20 0 0 0 0 0 0 0 0 0 0 0 0 0 0 0 0 0 2 0.002 
896 1 0.0118314 0.0712869 -0.0321007 0 0 0 -0.358568 -0.105556 -1.83831 0 -0.000164368 0 0 0 0 0 0 0 0 0 0 0 0 0 0 0 0 0 27 0.002 
144 9 0.00388783 0.0508522 -0.0202944 0 0 0 0.661688 0.455713 -2.67922 0 -0.000164368 0 0 0 0 0 0 0 0 0 0 0 0 0 0 0 0 0 44 0.002 
938 2 0.0103772 0.0645321 -0.0172634 0 0 0 -1.09711 0.639423 -3.67802 0 -0.000164368 0 0 0 0 0 0 0 0 0 0 0 0 0 0 0 0 0 8 0.002 
156 4 0.00535673 0.0438649 -0.014802 0 0 0 -0.573982 -2.28306 -2.18627 0 -0.000164368 0 0 0 0 0 0 0 0 0 0 0 0 0 0 0 0 0 31 0.002 
665 2 0.0180357 0.0613452 -0.0138736 0 0 0 2.45934 -5.85657 2.29798 0 -0.000164368 0 0 0 0 0 0 0 0 0 0 0 0 0 0 0 0 0 17 0.002 
1035 4 0.00846293 0.0706824 -0.0139674 0 0 0 -0.965861 1.64939 -3.76208 0 -0.000164368 0 0 0 0 0 0 0 0 0 0 0 0 0 0 0 0 0 4 0.002 
1044 10 0.0150355 0.0731795 0.00081532 0 0 0 0.0695245 0.157608 -0.934603 0 -0.000164368 0 0 0 0 0 0 0 0 0 0 0 0 0 0 0 0 0 10 0.002 
860 11 0.00972739 0.0696441 0.00473318 0 0 0 -1.36595 0.419948 -1.58518 0 -0.000164368 0 0 0 0 0 0 0 0 0 0 0 0 0 0 0 0 0 22 0.002 
406 5 0.0054927 0.0735844 0.00455203 0 0 0 0.70314 -0.675595 -0.923002 0 -0.000164368 0 0 0 0 0 0 0 0 0 0 0 0 0 0 0 0 0 39 0.002 
427 6 0.00393364 0.0685663 0.00978325 0 0 0 0.105287 -0.0567238 -1.28086 0 -0.000164368 0 0 0 0 0 0 0 0 0 0 0 0 0 0 0 0 0 30 0.002 
1073 6 0.00727342 0.0505114 0.0129718 0 0 0 0.523358 -1.14436 -0.490304 0 -0.000164368 0 0 0 0 0 0 0 0 0 0 0 0 0 0 0 0 0 10 0.002 
591 9 0.0142536 0.0513911 0.0127493 0 0 0 0.656048 4.38099 -1.96161 0 -0.000164368 0 0 0 0 0 0 0 0 0 0 0 0 0 0 0 0 0 15 0.002 
724 1 0.0178197 0.0678044 0.013326 0 0 0 -1.27107 -0.691549 0.0630926 0 -0.000164368 0 0 0 0 0 0 0 0 0 0 0 0 0 0 0 0 0 24 0.002 
740 1 0.0165185 0.0715713 0.0156895 0 0 0 -0.356293 0.163349 -0.660005 0 -0.000164368 0 0 0 0 0 0 0 0 0 0 0 0 0 0 0 0 0 23 0.002 
828 2 0.0064763 0.0673143 0.0182027 0 0 0 -0.289796 -0.266849 -0.523283 0 -0.000164368 0 0 0 0 0 0 0 0 0 0 0 0 0 0 0 0 0 18 0.002 
574 5 0.0041762 0.0604548 0.0201766 0 0 0 0.580017 1.26574 -1.79313 0 -0.000164368 0 0 0 0 0 0 0 0 0 0 0 0 0 0 0 0 0 17 0.002 
709 1 0.00950526 0.0588129 0.0212172 0 0 0 -0.137163 -0.483103 -0.514392 0 -0.000164368 0 0 0 0 0 0 0 0 0 0 0 0 0 0 0 0 0 26 0.002 
673 1 0.0166441 0.0671665 0.021117 0 0 0 -0.37923 -0.341351 -0.667125 0 -0.000164368 0 0 0 0 0 0 0 0 0 0 0 0 0 0 0 0 0 20 0.002 
679 5 0.0110272 0.0707358 0.0205337 0 0 0 0.0333197 -0.238137 -0.141786 0 -0.000164368 0 0 0 0 0 0 0 0 0 0 0 0 0 0 0 0 0 36 0.002 
173 3 0.0183999 0.0736422 0.0200531 0 0 0 -0.321598 -0.598062 0.0261595 -0.00133148 0.0150024 -0.0118598 0 0 0 0 0 0 0 0 0 0 0 0 0 0 0 0 17 0.002 
397 3 0.0169892 0.0711498 0.0228112 0 0 0 -0.237095 -0.549209 0.204802 0.00150824 -0.0154287 0.0103341 0 0 0 0 0 0 0 0 0 0 0 0 0 0 0 0 41 0.002 
1004 3 0.00477591 0.0628219 0.0236885 0 0 0 -0.141119 0.361174 -0.0556453 0 -0.000164368 0 0 0 0 0 0 0 0 0 0 0 0 0 0 0 0 0 17 0.002 
584 8 0.00989713 0.0706195 0.0256633 0 0 0 -0.260936 -0.262332 0.0697247 0.00368171 0.00158821 -0.0013591 0 0 0 0 0 0 0 1 0 0 0 0 0 0 0 0 40 0.002 
419 10 0.0132706 0.0723371 0.0243791 0 0 0 -0.0577205 -0.170883 0.211823 -0.00368171 -0.00191695 0.0013591 0 0 0 0 0 0 0 1 0 0 0 0 0 0 0 0 42 0.002 
522 2 0.00309201 0.0731242 0.0235349 0 0 0 0.0380173 -0.0417534 -0.216272 0 -0.000164368 0 0 0 0 0 0 0 0 0 0 0 0 0 0 0 0 0 43 0.002 
881 1 0.00678654 0.0732663 0.0251754 0 0 0 0.00640854 -0.100003 -0.0730891 0 -0.000164368 0 0 0 0 0 0 0 0 0 0 0 0 0 0 0 0 0 24 0.002 
378 2 0.00839687 0.0666989 0.0257667 0 0 0 -0.0539324 -0.360658 -0.243225 0 -0.000164368 0 0 0 0 0 0 0 0 0 0 0 0 0 0 0 0 0 33 0.002 
221 16 0.00321322 0.0695362 0.0269995 0 0 0 -0.0442321 -0.089586 -0.23887 0 -0.000164368 0 0 0 0 0 0 0 0 0 0 0 0 0 0 0 0 0 43 0.002 
932 2 0.0129577 0.0681831 0.0267713 0 0 0 -0.440352 -0.284307 0.274643 0 -0.000164368 0 0 0 0 0 0 0 0 0 0 0 0 0 0 0 0 0 15 0.002 
364 3 0.0168751 0.0731372 0.0262764 0 0 0 -0.0147777 -0.205362 0.0113813 -0.000268977 0.000782381 0.00220742 0 0 1 0 0 0 0 0 0 0 0 0 0 0 0 0 28 0.002 
360 2 0.00486028 0.0538186 0.0292091 0 0 0 0.246955 -0.364245 -0.282825 0 -0.000164368 0 0 0 0 0 0 0 0 0 0 0 0 0 0 0 0 0 17 0.002 
735 8 0.0155065 0.0615688 0.0293398 0 0 0 -0.220526 -0.268355 -0.0995543 0 -0.000164368 0 0 0 0 0 0 0 0 0 0 0 0 0 0 0 0 0 16 0.002 
902 3 0.0117675 0.0645612 0.0285483 0 0 0 -0.262577 -0.46538 0.217204 0 -0.000164368 0 0 0 0 0 0 0 0 0 0 0 0 0 0 0 0 0 12 0.002 
131 7 0.00574387 0.0670647 0.029257 0 0 0 0.139685 -0.203854 -0.247929 0 -0.000164368 0 0 0 0 0 0 0 0 0 0 0 0 0 0 0 0 0 42 0.002 
590 2 0.0149891 0.0667282 0.0300152 0 0 0 -0.223441 -0.374169 0.144187 0 -0.000164368 0 0 0 0 0 0 0 0 0 0 0 0 0 0 0 0 0 35 0.002 
519 1 0.00994373 0.0688881 0.0300128 0 0 0 -0.130849 -0.0251594 0.00255998 0.00505836 -0.00607383 0.00618352 1 0 0 0 0 0 0 0 0 0 0 0 0 0 0 0 30 0.002 
592 7 0.00672207 0.0709453 0.0288864 0 0 0 -0.138824 -0.0266871 -0.0822327 -0.00505836 0.00574509 -0.00618352 1 0 0 0 0 0 0 0 0 0 0 0 0 0 0 0 37 0.002 
465 4 0.0141159 0.0722707 0.0290571 0 0 0 -0.0625235 -0.212038 0.0215429 0 -0.000164368 0 0 0 0 0 0 0 0 0 0 0 0 0 0 0 0 0 35 0.002 
784 7 0.017953 0.0710112 0.0297359 0 0 0 -0.0128158 -0.203862 -0.0392614 0 -0.000164368 0 0 0 0 0 0 0 0 0 0 0 0 0 0 0 0 0 21 0.002 
510 9 0.00365433 0.0735265 0.0287457 0 0 0 -0.105609 -0.0538109 -0.0731548 0 -0.000164368 0 0 0 0 0 0 0 0 0 0 0 0 0 0 0 0 0 59 0.002 
122 5 0.0100582 0.073143 0.0291374 0 0 0 -0.0447239 -0.0988546 -0.061911 0 -0.000164368 0 0 0 0 0 0 0 0 0 0 0 0 0 0 0 0 0 49 0.002 
538 1 0.0154267 0.0508122 0.0320139 0 0 0 -0.613372 -0.684578 0.219431 0 -0.000164368 0 0 0 0 0 0 0 0 0 0 0 0 0 0 0 0 0 27 0.002 
928 2 0.00686523 0.0558781 0.0321608 0 0 0 -0.377082 -0.187405 0.802903 0 -0.000164368 0 0 0 0 0 0 0 0 0 0 0 0 0 0 0 0 0 19 0.002 
809 1 0.00609749 0.0615155 0.0311045 0 0 0 0.134184 -0.668639 -0.997856 0 -0.000164368 0 0 0 0 0 0 0 0 0 0 0 0 0 0 0 0 0 19 0.002 
540 4 0.00307606 0.071103 0.031925 0 0 0 0.0609747 -0.125866 -0.0213184 0 -0.000164368 0 0 0 0 0 0 0 0 0 0 0 0 0 0 0 0 0 31 0.002 
638 6 0.00361736 0.0486766 0.0325724 0 0 0 -0.402162 -0.992513 -0.0531373 0 -0.000164368 0 0 0 0 0 0 0 0 0 0 0 0 0 0 0 0 0 23 0.002 
207 2 0.0154182 0.0588425 0.0329829 0 0 0 -0.305683 0.0298023 -0.0236341 -0.001285 0.000223785 0.0013394 0 1 0 0 0 0 0 0 0 0 0 0 0 0 0 0 33 0.002 
1000 4 0.0103371 0.0622167 0.0329847 0 0 0 0.449994 -0.241538 0.207406 0 -0.000164368 0 0 0 0 0 0 0 0 0 0 0 0 0 0 0 0 0 8 0.002 
128 4 0.0182921 0.0616205 0.0328297 0 0 0 -0.210148 -0.170966 -0.0243148 0.001285 -0.000552521 -0.0013394 0 1 0 0 0 0 0 0 0 0 0 0 0 0 0 0 31 0.002 
257 6 0.00764628 0.0658518 0.0327571 0 0 0 -0.159545 -0.159225 -0.0312232 0 -0.000164368 0 0 0 0 0 0 0 0 0 0 0 0 0 0 0 0 0 27 0.002 
92 2 0.0067443 0.0697459 0.0329613 0 0 0 -0.100866 -0.138393 -0.0262228 0 -0.000164368 0 0 0 0 0 0 0 0 0 0 0 0 0 0 0 0 0 37 0.002 
552 8 0.0132113 0.0691035 0.0328065 0 0 0 -0.156693 -0.0586109 0.0469677 -0.000503797 0.000148093 0.000119079 0 0 0 0 0 0 0 1 0 0 0 0 0 0 0 0 29 0.002 
814 13 0.0171627 0.0685081 0.0329288 0 0 0 -0.159692 -0.099909 -0.0588298 0.000503797 -0.00047683 -0.000119079 0 0 0 0 0 0 0 1 0 0 0 0 0 0 0 0 35 0.002 
1065 3 0.0102013 0.0717905 0.033001 0 0 0 -0.145214 -0.025394 0.000827147 8.77085e-05 2.06774e-05 -0.000598585 0 0 1 0 0 0 0 0 0 0 0 0 0 0 0 0 9 0.002 
1066 1 0.00647481 0.0738846 0.0329476 0 0 0 0.0299613 -0.0508326 -0.0344668 0 -0.000164368 0 0 0 0 0 0 0 0 0 0 0 0 0 0 0 0 0 20 0.002 
126 2 0.0141546 0.0730713 0.0330023 0 0 0 -0.0758743 -0.052227 0.00435848 0.000452509 0.00072079 -0.00198823 0 0 0 0 0 0 0 0 0 0 0 0 0 0 0 0 22 0.002 
102 1 0.0180953 0.073793 0.0329922 0 0 0 -0.0442264 -0.15536 0.0637682 0.000208745 -0.00015416 0.00132651 0 0 0 0 0 0 0 0 0 0 0 0 0 0 0 0 33 0.002 
310 2 0.0177651 0.0832544 -0.032166 0 0 0 5.79721 15.361 -27.1355 0 -0.000164368 0 0 0 0 0 0 0 0 0 0 0 0 0 0 0 0 0 31 0.002 
974 2 0.00733125 0.0976482 -0.0322198 0 0 0 -3.20708 -0.416023 0.0642731 0 -0.000164368 0 0 0 0 0 0 0 0 0 0 0 0 0 0 0 0 0 16 0.002 
1119 4 0.00833755 0.105977 -0.0325117 0 0 0 0.0553292 -0.0506437 0.0487546 0 -0.000164368 0 0 0 0 0 0 0 0 0 0 0 0 0 0 0 0 0 1 0.002 
167 2 0.00414433 0.107934 -0.0328827 0 0 0 0.0879553 0.0223341 -0.00526806 0 -0.000164368 0 0 0 0 0 0 0 0 0 0 0 0 0 0 0 0 0 26 0.002 
536 2 0.00472313 0.094911 -0.0307728 0 0 0 -3.89755 -2.21969 0.17545 0 -0.000164368 0 0 0 0 0 0 0 0 0 0 0 0 0 0 0 0 0 28 0.002 
898 1 0.0032387 0.10081 -0.0298011 0 0 0 0.139485 0.078152 0.182816 0 -0.000164368 0 0 0 0 0 0 0 0 0 0 0 0 0 0 0 0 0 16 0.002 
430 4 0.00316331 0.104828 -0.0305322 0 0 0 -0.114196 0.0770704 0.0739089 0 -0.000164368 0 0 0 0 0 0 0 0 0 0 0 0 0 0 0 0 0 37 0.002 
598 1 0.00630092 0.104951 -0.0264422 0 0 0 -5.25335 -2.91652 -0.793175 0.060516 -0.165252 0.0672104 1 0 0 0 0 0 0 0 0 0 0 0 0 0 0 0 30 0.002 
704 9 0.00365209 0.107832 -0.0268328 0 0 0 -0.37349 0.229434 -0.0146599 -0.0598138 0.163066 -0.0623709 1 0 0 0 0 0 0 0 1 0 0 0 0 0 0 0 23 0.002 
1117 1 0.0172532 0.0846634 -0.0228423 0 0 0 -0.684464 -1.31488 0.280382 0 -0.000164368 0 0 0 0 0 0 0 0 0 0 0 0 0 0 0 0 0 0 0.002 
926 2 0.0179341 0.0906819 -0.023435 0 0 0 -0.460941 -0.924894 3.95625 0 -0.000164368 0 0 0 0 0 0 0 0 0 0 0 0 0 0 0 0 0 14 0.002 
321 7 0.00513795 0.107982 -0.0231377 0 0 0 -1.61671 -0.712514 0.856438 -0.000702175 0.00169356 -0.00483951 0 0 0 0 0 0 0 0 1 0 0 0 0 0 0 0 20 0.002 
562 3 0.0143886 0.0879929 -0.0217218 0 0 0 -1.49046 -1.30888 1.11021 0 -0.000164368 0 0 0 0 0 0 0 0 0 0 0 0 0 0 0 0 0 23 0.002 
627 2 0.0138609 0.0943983 -0.0209649 0 0 0 -4.35004 3.19642 -2.78457 0 -0.000164368 0 0 0 0 0 0 0 0 0 0 0 0 0 0 0 0 0 36 0.002 
133 1 0.00609556 0.0963734 -0.0214808 0 0 0 -3.47294 0.484175 -1.45164 0 -0.000164368 0 0 0 0 0 0 0 0 0 0 0 0 0 0 0 0 0 35 0.002 
1108 3 0.00759346 0.103696 -0.0212765 0 0 0 0.371564 0.803101 -0.625269 0 -0.000164368 0 0 0 0 0 0 0 0 0 0 0 0 0 0 0 0 0 1 0.002 
140 4 0.0115352 0.105104 -0.0207911 0 0 0 0.10651 -0.55175 0.333707 0 -0.000164368 0 0 0 0 0 0 0 0 0 0 0 0 0 0 0 0 0 30 0.002 
303 3 0.00904123 0.0870609 -0.0196335 0 0 0 -4.10219 2.8703 -4.75862 0.105084 -0.0142495 0.0667999 0 0 1 0 0 0 0 0 0 0 0 0 0 0 0 0 29 0.002 
1043 8 0.0112829 0.0902369 -0.0187076 0 0 0 0.273333 0.819323 -0.0363162 -0.105084 0.0139208 -0.0667999 0 0 1 0 0 0 0 0 0 0 0 0 0 0 0 0 10 0.002 
803 4 0.00308156 0.10753 -0.0190018 0 0 0 0.114487 -0.0843449 0.30659 0 -0.000164368 0 0 0 0 0 0 0 0 0 0 0 0 0 0 0 0 0 18 0.002 
503 7 0.00717915 0.10738 -0.0182054 0 0 0 0.310497 -0.478088 0.606791 0 -0.000164368 0 0 0 0 0 0 0 0 0 0 0 0 0 0 0 0 0 24 0.002 
473 3 0.00499874 0.0801174 -0.0168424 0 0 0 0.377327 -2.0449 0.939975 0 -0.000164368 0 0 0 0 0 0 0 0 0 0 0 0 0 0 0 0 0 22 0.002 
254 10 0.0112932 0.0969228 -0.0172091 0 0 0 -5.4893 3.60308 2.00688 0 -0.000164368 0 0 0 0 0 0 0 0 0 0 0 0 0 0 0 0 0 38 0.002 
176 2 0.00362196 0.103554 -0.0170608 0 0 0 0.476687 0.680579 -0.292024 0 -0.000164368 0 0 0 0 0 0 0 0 0 0 0 0 0 0 0 0 0 23 0.002 
1134 2 0.0134171 0.104628 -0.0158726 0 0 0 1.38351 -2.17529 0.522306 0 -0.000164368 0 0 0 0 0 0 0 0 0 0 0 0 0 0 0 0 0 0 0.002 
878 12 0.00470338 0.0858063 -0.0148972 0 0 0 0.20869 -1.7693 1.32723 0 -0.000164368 0 0 0 0 0 0 0 0 0 0 0 0 0 0 0 0 0 10 0.002 
311 2 0.0067252 0.105345 -0.0131824 0 0 0 0.343513 -0.330781 0.6411 0.00761458 -0.0427364 -0.0144998 0 1 0 0 0 0 0 0 0 0 0 0 0 0 0 0 36 0.002 
807 5 0.00756589 0.0862894 -0.0109417 0 0 0 0.174335 -1.28512 1.34514 0 -0.000164368 0 0 0 0 0 0 0 0 0 0 0 0 0 0 0 0 0 24 0.002 
899 3 0.00320193 0.0957001 -0.0126812 0 0 0 0.0526502 -0.296963 1.08851 0 -0.000164368 0 0 0 0 0 0 0 0 0 0 0 0 0 0 0 0 0 10 0.002 
392 1 0.00813662 0.101843 -0.00941815 0 0 0 -0.387671 -0.197712 0.256991 0 -0.000164368 0 0 0 0 0 0 0 0 0 0 0 0 0 0 0 0 0 35 0.002 
553 7 0.00561774 0.108012 -0.0104949 0 0 0 -1.13649 -0.0393394 0.438876 -0.00482995 0.0258459 0.00670114 0 1 0 0 0 0 0 0 0 0 0 0 0 0 0 0 21 0.002 
762 6 0.00347596 0.102735 -0.00824386 0 0 0 0.11333 -0.175904 0.729403 0 -0.000164368 0 0 0 0 0 0 0 0 0 0 0 0 0 0 0 0 0 30 0.002 
214 8 0.00536792 0.0809962 -0.00510763 0 0 0 -1.63723 0.341048 -1.32379 0 -0.000164368 0 0 0 0 0 0 0 0 0 0 0 0 0 0 0 0 0 6 0.002 
287 6 0.00301585 0.0962569 -0.00566631 0 0 0 0.0431055 -0.0426848 0.72365 0 -0.000164368 0 0 0 0 0 0 0 0 0 0 0 0 0 0 0 0 0 22 0.002 
112 6 0.00343148 0.10036 -0.00476493 0 0 0 -0.352732 -0.286385 0.947981 0 -0.000164368 0 0 0 0 0 0 0 0 0 0 0 0 0 0 0 0 0 37 0.002 
1002 1 0.00749325 0.0984987 -0.00491693 0 0 0 0.549603 1.44751 0.0869428 0 -0.000164368 0 0 0 0 0 0 0 0 0 0 0 0 0 0 0 0 0 7 0.002 
1034 7 0.0139906 0.104814 -0.00556939 0 0 0 0.124977 -0.287831 -0.133466 0 -0.000164368 0 0 0 0 0 0 0 0 0 0 0 0 0 0 0 0 0 0 0.002 
1158 12 0.00317556 0.0883683 -0.00234168 0 0 0 0.298813 -1.40614 1.72076 0 -0.000164368 0 0 0 0 0 0 0 0 0 0 0 0 0 0 0 0 0 1 0.002 
272 2 0.0167665 0.0900298 -0.00206353 0 0 0 0.0787703 2.29032 -1.27803 0 -0.000164368 0 0 0 0 0 0 0 0 0 0 0 0 0 0 0 0 0 41 0.002 
1121 3 0.00745056 0.103372 -0.00203585 0 0 0 0.348869 -0.379935 0.670005 0 -0.000164368 0 0 0 0 0 0 0 0 0 0 0 0 0 0 0 0 0 0 0.002 
229 6 0.00969572 0.0967357 -0.00108701 0 0 0 2.28943 1.62561 0.380442 0 -0.000164368 0 0 0 0 0 0 0 0 0 0 0 0 0 0 0 0 0 39 0.002 
786 1 0.00452602 0.100906 -0.000569687 0 0 0 0.0209271 0.146774 0.794064 0 -0.000164368 0 0 0 0 0 0 0 0 0 0 0 0 0 0 0 0 0 28 0.002 
541 6 0.0113352 0.10386 -0.000342747 0 0 0 0.480431 -0.290948 0.679593 0 -0.000164368 0 0 0 0 0 0 0 0 0 0 0 0 0 0 0 0 0 34 0.002 
845 3 0.0146506 0.108038 -0.00106609 0 0 0 0.472094 -0.0159098 0.270772 0.0571096 -0.115839 0.00914537 0 0 0 0 0 0 0 0 0 0 0 0 0 0 0 0 18 0.002 
719 3 0.00850757 0.0780257 0.00173868 0 0 0 0.997037 0.164421 -0.645078 0 -0.000164368 0 0 0 0 0 0 0 0 0 0 0 0 0 0 0 0 0 16 0.002 
579 8 0.00323071 0.0907178 0.00257966 0 0 0 0.107849 0.766259 0.244434 0 -0.000164368 0 0 0 0 0 0 0 0 0 0 0 0 0 0 0 0 0 36 0.002 
1105 7 0.00739546 0.0931966 0.00202484 0 0 0 1.017 0.254233 0.0242763 0 -0.000164368 0 0 0 0 0 0 0 0 0 0 0 0 0 0 0 0 0 2 0.002 
1153 8 0.0052658 0.0979295 0.00205121 0 0 0 -0.00533268 0.242735 0.886082 0.000116251 0.000117214 -0.000583204 0 0 0 0 0 0 0 1 0 0 0 0 0 0 0 0 2 0.002 
1027 1 0.0125149 0.100473 0.0023767 0 0 0 0.0955746 -0.0819905 0.283328 0 -0.000164368 0 0 0 0 0 0 0 0 0 0 0 0 0 0 0 0 0 3 0.002 
369 6 0.00360369 0.107627 0.00236216 0 0 0 -0.852046 0.45091 0.0836524 0 -0.000164368 0 0 0 0 0 0 0 0 0 0 0 0 0 0 0 0 0 27 0.002 
1136 1 0.00770437 0.107251 0.00301701 0 0 0 -0.512001 -0.3586 0.746331 0 -0.000164368 0 0 0 0 0 0 0 0 0 0 0 0 0 0 0 0 0 2 0.002 
1074 10 0.0152111 0.106338 0.00321804 0 0 0 -1.1197 3.7296 0.771863 0 -0.000164368 0 0 0 0 0 0 0 0 0 0 0 0 0 0 0 0 0 4 0.002 
760 3 0.00540414 0.0791309 0.0075029 0 0 0 0.249408 -1.922 1.12807 0 -0.000164368 0 0 0 0 0 0 0 0 0 0 0 0 0 0 0 0 0 20 0.002 
685 7 0.00886435 0.086442 0.00675461 0 0 0 -0.434366 -0.0374867 -0.175185 0 -0.000164368 0 0 0 0 0 0 0 0 0 0 0 0 0 0 0 0 0 23 0.002 
368 5 0.00665081 0.0921082 0.00646856 0 0 0 -0.386416 0.116563 -0.234865 0 -0.000164368 0 0 0 0 0 0 0 0 0 0 0 0 0 0 0 0 0 31 0.002 
274 4 0.00543867 0.0977685 0.00603404 0 0 0 0.371267 0.235956 0.988777 -0.000116251 -0.00044595 0.000583204 0 0 0 0 0 0 0 1 0 0 0 0 0 0 0 0 31 0.002 
211 2 0.00909462 0.100659 0.00754767 0 0 0 -0.285271 0.549007 -0.260729 0.0313327 -0.00249109 0.00732418 0 1 0 0 0 0 0 0 0 0 0 0 0 0 0 0 19 0.002 
534 13 0.00330925 0.104084 0.00675176 0 0 0 -0.205031 0.113117 0.0590115 -0.00854956 0.0097413 -1.65364e-05 0 0 0 0 0 0 0 0 0 0 0 0 1 0 0 0 27 0.002 
252 6 0.00957773 0.104388 0.00579341 0 0 0 -0.641843 0.747008 -0.26959 0 -0.000164368 0 0 0 0 0 0 0 0 0 0 0 0 0 0 0 0 0 18 0.002 
179 1 0.0162989 0.0854713 0.00930599 0 0 0 -0.230964 1.31266 -1.13743 0 -0.000164368 0 0 0 0 0 0 0 0 0 0 0 0 0 0 0 0 0 35 0.002 
55 4 0.00323732 0.0874106 0.00848895 0 0 0 0.162713 -0.320129 0.651549 0.000658997 0.000317583 0.000879092 0 0 0 1 0 0 0 0 0 0 0 0 0 0 0 0 22 0.002 
1155 5 0.00433862 0.0913485 0.00974535 0 0 0 -0.00258044 0.00346818 0.12042 -8.72309e-05 5.46735e-05 0.000157679 0 0 0 0 1 0 0 0 0 0 0 0 0 0 0 0 1 0.002 
631 1 0.00304868 0.0958533 0.00867527 0 0 0 0.0453089 0.197238 0.546099 0.00201619 -0.000438625 -0.000194996 1 0 0 0 0 0 0 0 0 0 0 0 0 0 0 0 34 0.002 
425 1 0.00525593 0.101056 0.00846649 0 0 0 -0.195679 0.465017 0.482447 -0.0227831 -0.00774332 -0.00730765 0 1 0 0 0 0 0 0 0 0 0 0 1 0 0 0 35 0.002 
855 7 0.016776 0.101239 0.00969241 0 0 0 1.19308 1.20796 1.89937 0 -0.000164368 0 0 0 0 0 0 0 0 0 0 0 0 0 0 0 0 0 34 0.002 
923 10 0.00299635 0.107763 0.00829682 0 0 0 0.000975847 0.198227 0.179301 0.00336666 -0.00182075 -0.000299988 0 0 0 0 0 0 0 0 0 0 0 0 0 0 0 0 12 0.002 
922 5 0.00313073 0.0753863 0.0120001 0 0 0 -0.0618248 -0.0105553 -0.530584 0 -0.000164368 0 0 0 0 0 0 0 0 0 0 0 0 0 0 0 0 0 5 0.002 
1051 10 0.00846566 0.0779206 0.0100204 0 0 0 0.40585 -0.110282 -0.619586 0 -0.000164368 0 0 0 0 0 0 0 0 0 0 0 0 0 0 0 0 0 7 0.002 
789 5 0.00438565 0.0838816 0.0105068 0 0 0 -0.309923 0.108705 0.759202 0 -0.000164368 0 0 0 0 0 0 0 0 0 0 0 0 0 0 0 0 0 25 0.002 
1063 3 0.00668012 0.088155 0.0103801 0 0 0 0.209214 0.120676 0.510244 -0.000658997 -0.000646319 -0.000879092 0 0 1 0 0 0 0 0 0 0 0 0 0 0 0 0 10 0.002 
543 1 0.010141 0.0919865 0.0113641 0 0 0 0.0454959 0.609669 -0.398058 0 -0.000164368 0 0 0 0 0 0 0 0 0 0 0 0 0 0 0 0 0 29 0.002 
954 5 0.00669263 0.0949969 0.0100778 0 0 0 0.319048 0.162621 0.0539462 -0.00201619 0.000109889 0.000194996 0 0 0 0 1 0 0 0 0 0 0 0 0 0 0 0 15 0.002 
381 2 0.0184105 0.0972181 0.0120972 0 0 0 0.361124 0.3583 0.441355 0.018225 0.0494955 -0.0323525 0 1 0 0 0 0 0 0 0 0 0 0 0 0 0 0 32 0.002 
301 5 0.00584501 0.0990432 0.0118813 0 0 0 0.022657 0.0612062 0.311987 -0.010465 -0.027027 -0.0111265 0 0 0 0 1 0 0 0 0 0 0 0 0 0 0 0 39 0.002 
309 1 0.0106231 0.100376 0.0116225 0 0 0 -0.486694 0.0934566 -0.0895554 0 -0.000164368 0 0 0 0 0 0 0 0 0 0 0 0 0 0 0 0 0 44 0.002 
361 3 0.00985915 0.104301 0.0118346 0 0 0 -0.493842 0.038239 0.51203 0.0176042 -0.0175715 -0.00400362 0 0 2 0 0 0 0 0 0 0 0 0 0 0 0 0 27 0.002 
1001 4 0.0133577 0.103245 0.0103113 0 0 0 -0.458561 -0.439728 0.475759 0.0293241 -0.0122757 -0.0153559 0 0 1 0 0 0 0 0 0 0 0 0 0 0 0 0 14 0.002 
192 7 0.00576056 0.105555 0.0109527 0 0 0 -0.169638 -0.387994 0.40116 0 -0.000164368 0 0 0 0 0 0 0 0 0 0 0 0 0 0 0 0 0 35 0.002 
1146 2 0.0109936 0.108024 0.0111073 0 0 0 -0.326904 -0.0656752 0.296482 -0.0119503 0.00121513 0.00507258 0 0 1 0 0 0 0 0 0 0 0 0 0 0 0 0 1 0.002 
718 11 0.00298933 0.0803605 0.0123142 0 0 0 0.0698107 -0.22375 -0.0902555 0.0100271 0.00324885 -0.00367231 0 0 0 0 0 0 0 0 0 0 0 0 0 0 0 0 25 0.002 
933 1 0.0130569 0.0850145 0.0143455 0 0 0 0.200761 0.642375 -0.326492 0 -0.000164368 0 0 0 0 0 0 0 0 0 0 0 0 0 0 0 0 0 16 0.002 
792 2 0.00308193 0.0887456 0.0131382 0 0 0 0.0566313 0.0497458 0.0088666 0 -0.000164368 0 0 0 0 0 0 0 0 0 0 0 0 0 0 0 0 0 15 0.002 
230 6 0.00725344 0.0869727 0.0144677 0 0 0 0.0871769 0.118628 -0.19934 0 -0.000164368 0 0 0 0 0 0 0 0 0 0 0 0 0 0 0 0 0 41 0.002 
400 7 0.00659759 0.0923017 0.0132511 0 0 0 0.0641997 0.155895 -0.13277 0 -0.000164368 0 0 0 0 0 0 0 0 0 0 0 0 0 0 0 0 0 34 0.002 
984 3 0.00301231 0.0941366 0.0122884 0 0 0 -0.0089272 0.20674 -0.0603235 8.72309e-05 -0.00038341 -0.000157679 0 0 1 0 0 0 0 0 0 0 0 0 0 0 0 0 16 0.002 
73 3 0.0156881 0.0947925 0.0136032 0 0 0 -0.0433462 0.387751 0.411198 0.00308059 -0.0367214 -0.00402583 0 1 1 0 0 0 0 0 0 0 0 0 0 0 0 0 37 0.002 
888 1 0.00860301 0.0965749 0.0135258 0 0 0 0.172743 0.268319 0.065309 -0.0269255 0.00144223 -0.0306172 1 0 0 0 0 0 0 0 0 0 0 0 0 0 0 0 19 0.002 
554 3 0.00308394 0.101579 0.0133094 0 0 0 -0.0695881 0.247337 0.183745 -0.022972 -0.0175393 0.000791345 0 0 0 0 0 0 0 0 0 0 0 0 0 0 0 0 8 0.002 
572 3 0.00695952 0.102374 0.0137222 0 0 0 -0.225062 0.0877987 0.607142 0.0027025 -0.000456256 -0.000616314 0 0 1 0 1 0 0 0 0 0 0 0 0 0 0 0 22 0.002 
856 11 0.016783 0.103534 0.0140877 0 0 0 -0.444876 0.164554 0.863412 0 -0.000164368 0 0 0 0 0 0 0 0 0 0 0 0 0 0 0 0 0 20 0.002 
983 5 0.00367134 0.10797 0.0143431 0 0 0 -0.368719 0.0543387 0.203592 0 -0.000164368 0 0 0 0 0 0 0 0 0 0 0 0 0 0 0 0 0 10 0.002 
394 6 0.00395182 0.0753293 0.01612 0 0 0 -0.160017 0.0631079 -0.378346 0 -0.000164368 0 0 0 0 0 0 0 0 0 0 0 0 0 0 0 0 0 41 0.002 
963 3 0.0103738 0.0809744 0.0163008 0 0 0 -0.0996831 0.162839 -0.21306 1.0256e-05 -0.000191351 5.29496e-06 0 0 1 0 0 0 0 0 0 0 0 0 0 0 0 0 18 0.002 
941 3 0.0139765 0.0805215 0.0146175 0 0 0 -0.526697 -0.195994 -0.206332 0 -0.000164368 0 0 0 0 0 0 0 0 0 0 0 0 0 0 0 0 0 19 0.002 
1098 3 0.00433689 0.0849322 0.0166156 0 0 0 0.0721163 -0.00597904 -0.109914 0 -0.000164368 0 0 0 0 0 0 0 0 0 0 0 0 0 0 0 0 0 9 0.002 
841 3 0.0109636 0.0879415 0.0161086 0 0 0 0.0982392 0.563873 -0.219554 0 -0.000164368 0 0 0 0 0 0 0 0 0 0 0 0 0 0 0 0 0 19 0.002 
910 15 0.0138484 0.0907068 0.0151532 0 0 0 -0.0212289 0.566721 -0.228417 0 -0.000164368 0 0 0 0 0 0 0 0 0 0 0 0 0 0 0 0 0 15 0.002 
904 3 0.00313423 0.0930455 0.0161866 0 0 0 -0.0502587 0.101365 -0.0382249 0 -0.000164368 0 0 0 0 0 0 0 0 0 0 0 0 0 0 0 0 0 9 0.002 
742 3 0.0116032 0.0955964 0.0159399 0 0 0 -0.10816 0.493709 0.0589601 0.0269255 -0.00177097 0.0306172 1 0 0 0 0 0 0 0 0 0 0 0 0 0 0 0 20 0.002 
1077 1 0.0032296 0.0974817 0.0145244 0 0 0 -0.193894 0.0476891 0.251898 0 -0.000164368 0 0 0 0 0 0 0 0 0 0 0 0 0 0 0 0 0 4 0.002 
968 2 0.0104735 0.0994171 0.0165391 0 0 0 0.0558024 0.579277 0.0929908 0 -0.000164368 0 0 0 0 0 0 0 0 0 0 0 0 0 0 0 0 0 4 0.002 
417 1 0.00492685 0.104513 0.0163733 0 0 0 -0.187666 0.0888732 0.380421 -0.00889952 0.0225372 0.0153514 2 0 1 0 0 0 0 0 0 0 0 0 0 0 0 0 48 0.002 
917 8 0.0097165 0.104651 0.0160897 0 0 0 -0.0977993 -0.0422596 0.342185 0 -0.000164368 0 0 0 0 0 0 0 0 0 0 0 0 0 0 0 0 0 15 0.002 
240 1 0.00767813 0.107807 0.0146008 0 0 0 -0.298237 -0.057149 0.276601 0 -0.000164368 0 0 0 0 0 0 0 0 0 0 0 0 0 0 0 0 0 32 0.002 
343 2 0.0117646 0.10793 0.0150222 0 0 0 -0.188023 0.083682 0.311229 -0.000290346 -0.00146554 0.00311937 0 0 0 0 0 0 0 0 0 0 0 0 0 0 0 0 33 0.002 
306 3 0.00298947 0.0788499 0.0182096 0 0 0 -0.415208 -0.0802985 -0.164097 0.0437522 0.0249967 -0.0105675 0 0 1 0 0 0 0 0 0 0 0 0 0 0 0 0 39 0.002 
527 8 0.00668302 0.0803047 0.0181995 0 0 0 -0.260742 0.213341 0.274069 0.0157232 0.00128273 0.00581461 0 0 1 0 0 0 0 0 0 0 0 0 0 0 0 0 28 0.002 
781 2 0.00827997 0.0842305 0.017222 0 0 0 -0.127188 0.451208 0.101494 -1.0256e-05 -0.000137385 -5.29496e-06 0 0 1 0 0 0 0 0 0 0 0 0 0 0 0 0 32 0.002 
118 2 0.0147662 0.084266 0.0183386 0 0 0 -0.400452 0.258034 -0.430239 0 -0.000164368 0 0 0 0 0 0 0 0 0 0 0 0 0 0 0 0 0 29 0.002 
1031 3 0.00661405 0.0875168 0.0189098 0 0 0 -0.0114371 0.0839519 -0.154883 -0.00360248 -0.00383934 -0.0027565 0 0 1 0 0 0 0 0 0 0 0 0 0 0 0 0 9 0.002 
979 4 0.00334 0.0891932 0.0172908 0 0 0 -0.0729981 0.0765208 -0.0758091 0 -0.000164368 0 0 0 0 0 0 0 0 0 0 0 0 0 0 0 0 0 15 0.002 
1147 9 0.00865199 0.0911018 0.0170773 0 0 0 -0.316173 0.149583 -0.0498075 0.00750773 -0.0327941 0.00097876 0 0 0 0 0 0 0 0 1 0 0 0 0 0 0 0 2 0.002 
65 2 0.002998 0.0960499 0.0189732 0 0 0 -0.028186 0.102619 0.00602769 0.0033024 -0.00155111 -0.000896334 0 0 0 0 0 0 0 0 0 0 0 0 0 0 0 0 19 0.002 
730 3 0.00766819 0.0949423 0.0170687 0 0 0 -0.12072 0.264081 0.0605048 -0.00593685 0.0315473 -0.00669029 0 0 1 0 0 0 0 0 1 0 0 0 0 0 0 0 16 0.002 
1026 6 0.015126 0.0938884 0.0174292 0 0 0 -0.130226 0.438405 0.14855 -0.0218642 -0.0128564 0.0307195 0 0 1 0 0 1 0 0 0 0 0 0 0 0 0 0 17 0.002 
505 2 0.0030184 0.0998992 0.0177202 0 0 0 0.0158423 0.13462 0.254806 0 -0.000164368 0 0 0 0 0 0 0 0 0 0 0 0 0 0 0 0 0 32 0.002 
972 3 0.00688757 0.101055 0.0175059 0 0 0 0.0588318 0.291846 0.54045 0 -0.000164368 0 0 0 0 0 0 0 0 0 0 0 0 0 0 0 0 0 10 0.002 
712 2 0.013123 0.102687 0.0175453 0 0 0 0.243745 0.478156 0.133631 0 -0.000164368 0 0 0 0 0 0 0 0 0 0 0 0 0 0 0 0 0 20 0.002 
788 5 0.0174136 0.106901 0.0176573 0 0 0 0.179163 0.407042 0.177642 0 -0.000164368 0 0 0 0 0 0 0 0 0 0 0 0 0 0 0 0 0 20 0.002 
314 6 0.0056067 0.108003 0.0181826 0 0 0 0.075226 0.0195739 0.149428 -0.00412633 0.00662234 0.00226764 1 0 0 0 0 0 0 0 0 0 0 0 0 0 0 0 19 0.002 
636 8 0.0134115 0.107964 0.0186948 0 0 0 -0.0441642 -0.0544128 0.2136 0 -0.000164368 0 0 0 0 0 0 0 0 0 0 0 0 0 0 0 0 0 10 0.002 
460 2 0.0150619 0.0765244 0.0209097 0 0 0 -0.383199 0.0636338 -0.10805 0 -0.000164368 0 0 0 0 0 0 0 0 0 0 0 0 0 0 0 0 0 36 0.002 
1082 1 0.00304382 0.0822029 0.0208571 0 0 0 -0.0101902 -0.0185639 -0.0585732 -0.0135927 -0.00643959 -0.000965011 0 0 0 0 0 0 0 0 0 0 0 0 0 0 0 0 12 0.002 
726 1 0.00665346 0.0838581 0.0211517 0 0 0 -0.0924304 0.095311 -0.094117 0.0135927 0.00611086 0.000965011 0 0 0 0 0 0 0 0 0 0 0 0 0 0 0 0 22 0.002 
77 12 0.0107248 0.0839688 0.0204029 0 0 0 -0.0579462 0.0279925 0.077306 0 -0.000164368 0 0 0 0 0 0 0 0 0 0 0 0 0 0 0 0 0 36 0.002 
639 9 0.00309928 0.0862506 0.0204379 0 0 0 0.0430002 0.064022 -0.0616396 0 -0.000164368 0 0 0 0 0 0 0 0 0 0 0 0 0 0 0 0 0 36 0.002 
1129 5 0.0137716 0.091174 0.0206974 0 0 0 -0.0622097 0.0302932 -0.0200719 0.000150689 -0.000117791 1.75416e-05 0 0 0 0 1 0 0 0 0 0 0 0 0 0 0 0 4 0.002 
183 9 0.00300707 0.0921198 0.0201062 0 0 0 0.0361958 0.0232555 -0.0188942 -0.000126964 4.99656e-05 -0.000157254 0 0 0 0 0 0 0 0 1 0 0 0 0 0 0 0 26 0.002 
299 1 0.00695531 0.0937523 0.0208065 0 0 0 -0.0420605 0.0179952 0.0672343 0.00106629 -0.00212879 0.00232645 1 0 1 0 0 0 0 0 0 0 0 0 0 0 0 0 28 0.002 
475 2 0.012785 0.095911 0.0206601 0 0 0 -0.0963571 -0.00343879 0.0377328 -0.000904948 -0.00977784 -0.00759072 0 3 0 0 0 0 0 0 0 0 0 0 0 0 0 0 30 0.002 
862 3 0.0166351 0.0939298 0.0211266 0 0 0 -0.0446999 0.0470383 0.0408312 -0.000156842 -0.00119667 0.00477891 0 0 1 0 1 1 0 0 0 0 0 0 0 0 0 0 18 0.002 
16 3 0.00860544 0.0984388 0.0201209 0 0 0 0.173254 0.128932 0.1927 0 -0.000164368 0 0 0 0 0 0 0 0 0 0 0 0 0 0 0 0 0 39 0.002 
1064 5 0.0148043 0.0989895 0.0191391 0 0 0 -0.117509 0.0170641 -0.13773 0.00604126 0.00370886 -0.00589518 0 1 0 0 0 0 0 0 0 0 0 0 0 0 0 0 8 0.002 
380 3 0.00989263 0.102846 0.0200675 0 0 0 0.340323 0.0135117 0.387786 0 -0.000164368 0 0 0 0 0 0 0 0 0 0 0 0 0 0 0 0 0 18 0.002 
493 5 0.00318306 0.103984 0.0199245 0 0 0 0.0341506 0.106372 0.241735 -0.00228283 -0.0102035 0.00791847 1 0 0 0 1 0 0 0 0 0 0 0 0 0 0 0 32 0.002 
1159 4 0.014568 0.105015 0.0211504 0 0 0 0.145903 0.0943062 0.307762 0.000139608 0.00101487 -0.00151813 0 0 0 1 0 0 0 0 0 0 0 0 0 0 0 0 2 0.002 
53 3 0.0184276 0.104164 0.020414 0 0 0 0.198155 0.34783 0.151293 0 -0.000164368 0 0 0 0 0 0 0 0 0 0 0 0 0 0 0 0 0 34 0.002 
883 2 0.00946887 0.107388 0.0190875 0 0 0 0.114422 0.0998302 0.249364 0 -0.000164368 0 0 0 0 0 0 0 0 0 0 0 0 0 0 0 0 0 15 0.002 
531 1 0.00583507 0.0754693 0.0214889 0 0 0 -0.332016 -0.13468 -0.0770176 0 -0.000164368 0 0 0 0 0 0 0 0 0 0 0 0 0 0 0 0 0 47 0.002 
674 10 0.00301316 0.078834 0.0233353 0 0 0 0.0131689 6.97107e-05 -0.118345 0 -0.000164368 0 0 0 0 0 0 0 0 0 0 0 0 0 0 0 0 0 25 0.002 
1003 7 0.00967233 0.0778519 0.0220954 0 0 0 -0.14504 0.00255984 -0.159468 0 -0.000164368 0 0 0 0 0 0 0 0 0 0 0 0 0 0 0 0 0 14 0.002 
1086 9 0.0130234 0.0808358 0.0216093 0 0 0 -0.221922 -0.126017 -0.138071 0 -0.000164368 0 0 0 0 0 0 0 0 0 0 0 0 0 0 0 0 0 7 0.002 
1124 4 0.0161519 0.0866854 0.0220852 0 0 0 0.138156 -0.0118966 -0.0527956 0 -0.000164368 0 0 0 0 0 0 0 0 0 0 0 0 0 0 0 0 0 3 0.002 
56 7 0.0064303 0.087224 0.0233318 0 0 0 -0.0203811 0.0180819 0.00649837 0 -0.000164368 0 0 0 0 0 0 0 0 0 0 0 0 0 0 0 0 0 35 0.002 
699 9 0.011717 0.0877513 0.0212565 0 0 0 0.05658 0.0532299 -0.0454421 0 -0.000164368 0 0 0 0 0 0 0 0 0 0 0 0 0 0 0 0 0 16 0.002 
1111 4 0.00305609 0.0893447 0.0229861 0 0 0 -0.0126876 0.0463236 -0.0118284 0.000126964 -0.000378702 0.000157254 0 0 0 0 0 0 0 0 1 0 0 0 0 0 0 0 5 0.002 
9 6 0.00844936 0.090066 0.0213674 0 0 0 -0.0568744 -0.0427985 0.0568301 0.00467312 0.00311377 0.000320811 0 0 1 0 0 2 0 0 0 0 0 0 0 0 0 0 42 0.002 
653 9 0.0181247 0.0909614 0.0234273 0 0 0 -0.106762 -0.0242672 -0.0541712 -6.0077e-06 -0.000167745 -5.04631e-06 0 0 0 0 0 0 0 0 1 0 0 0 0 0 0 0 18 0.002 
657 3 0.0106496 0.0931555 0.022614 0 0 0 -0.0506228 0.00992933 0.102472 0.000854338 -0.000797925 0.000344667 0 1 0 0 0 1 0 0 0 0 0 0 0 0 0 0 21 0.002 
206 6 0.00528991 0.0971561 0.0220641 0 0 0 0.046153 0.0424286 0.0255356 -0.00213041 0.0017838 0.00207045 1 0 0 0 0 1 0 0 0 0 0 0 0 0 0 0 38 0.002 
906 5 0.01831 0.0968065 0.023334 0 0 0 -0.212533 0.154081 0.0943742 -0.000168606 -0.000330476 -0.000411479 0 0 1 0 1 0 0 0 0 0 0 0 0 0 0 0 21 0.002 
669 1 0.003002 0.100421 0.021738 0 0 0 0.0168014 0.0292046 0.104408 -3.37171e-06 -0.000149801 -5.57344e-06 0 0 0 0 0 1 0 0 0 0 0 0 0 0 0 0 41 0.002 
1033 2 0.017238 0.100504 0.0221088 0 0 0 -0.0754666 0.154783 -0.100212 0 -0.000164368 0 0 0 0 0 0 0 0 0 0 0 0 0 0 0 0 0 12 0.002 
355 5 0.00698939 0.101472 0.0224545 0 0 0 -0.0465457 0.0953679 0.0168243 -0.00020241 -0.000383776 0.000308899 0 0 0 0 1 0 0 0 0 0 0 0 0 0 0 0 27 0.002 
603 7 0.00656616 0.106066 0.0217162 0 0 0 -0.0375187 -0.0248666 0.168537 0 -0.000164368 0 0 0 0 0 0 0 0 0 0 0 0 0 0 0 0 0 19 0.002 
1071 3 0.00301442 0.107923 0.0214017 0 0 0 0.00779785 0.0901354 0.152447 0 -0.000164368 0 0 0 0 0 0 0 0 0 0 0 0 0 0 0 0 0 1 0.002 