ITEM: TIMESTEP
9600000
ITEM: NUMBER OF ATOMS
17096
ITEM: BOX BOUNDS ff ff ff
-0.01 0.45
-0.15 0.15
-0.08 0.1
ITEM: ATOMS id type x y z ix iy iz vx vy vz fx fy fz c_cc_1 c_cc_2 c_cc_3 c_cc_4 c_cc_5 c_cc_6 c_cc_7 c_cc_8 c_cc_9 c_cc_10 c_cc_11 c_cc_12 c_cc_13 c_cc_14 c_cc_15 c_cc_16 f_fppacc radius c_cc_17 
17917 3 0.0282557 -0.00258457 -0.060911 0 0 0 0.293282 -0.389428 0.0640789 0 -1.05196e-05 0 0 0 0 0 0 0 0 0 0 0 0 0 0 0 0 0 0 0.0008 0 
18313 2 0.0424608 -0.00877426 -0.0582929 0 0 0 11.9037 -58.2844 8.31758 0 -1.05196e-05 0 0 0 0 0 0 0 0 0 0 0 0 0 0 0 0 0 0 0.0008 0 
962 3 0.0262224 -0.00730636 -0.0583409 0 0 0 -3.74902 -11.9543 1.74682 0 -1.05196e-05 0 0 0 0 0 0 0 0 0 0 0 0 0 0 0 0 0 60 0.0008 0 
18449 6 0.0184602 -0.0029217 -0.0582868 0 0 0 0.408044 -8.82568 2.44456 0 -3.55035e-05 0 0 0 0 0 0 0 0 0 0 0 0 0 0 0 0 0 0 0.0012 0 
702 2 0.0125872 -0.0209058 -0.0574059 0 0 0 0.000818397 -0.354291 0.100804 4.7891e-11 -8.34726e-06 2.37502e-06 0 0 0 0 0 0 0 0 0 0 0 0 0 0 0 0 64 0.0008 0 
18481 3 0.0193743 -0.0105525 -0.0570615 0 0 0 1.79463 -9.64615 -1.84043 0.0163833 0.0906774 0.0520803 0 0 0 0 0 0 0 0 0 0 0 0 0 0 0 0 0 0.0012 0 
7961 1 0.0043042 -0.00415059 -0.0577757 0 0 0 0.135536 -1.47304 0.918065 0 -1.05196e-05 0 0 0 0 0 0 0 0 0 0 0 0 0 0 0 0 0 58 0.0008 0 
2108 4 0.010805 -0.0236569 -0.0561972 0 0 0 0.00966908 -0.31607 0.163283 0 -1.05196e-05 0 0 0 0 0 0 0 0 0 0 0 0 0 0 0 0 0 62 0.0008 0 
18001 5 0.016299 -0.0230333 -0.0564822 0 0 0 -0.00667745 -0.398523 0.247381 0 -1.05196e-05 0 0 0 0 0 0 0 0 0 0 0 0 0 0 0 0 0 0 0.0008 0 
12990 3 0.0198968 -0.00885065 -0.0561819 0 0 0 7.54013 -5.57404 7.43197 -0.0163833 -0.0907234 -0.0520803 0 0 0 0 0 0 0 0 0 0 0 0 0 0 0 0 36 0.0008 0 
17720 5 0.0159881 -0.0253433 -0.0552616 0 0 0 0.0630026 -0.442133 0.225161 0 -1.05196e-05 0 0 0 0 0 0 0 0 0 0 0 0 0 0 0 0 0 0 0.0008 0 
3205 3 0.0405308 -0.0201448 -0.0542066 0 0 0 1.18403 -1.60628 0.449212 0 -1.05196e-05 0 0 0 0 0 0 0 0 0 0 0 0 0 0 0 0 0 71 0.0008 0 
3735 14 0.0201638 -0.0246353 -0.052636 0 0 0 2.88457 -10.8991 3.34175 0 -1.05196e-05 0 0 0 0 0 0 0 0 0 0 0 0 0 0 0 0 0 96 0.0008 0 
15571 7 0.016198 -0.026999 -0.0521977 0 0 0 -0.3958 -10.5543 6.04611 0 -1.05196e-05 0 0 0 0 0 0 0 0 0 0 0 0 0 0 0 0 0 20 0.0008 0 
18433 1 0.0395508 -0.0296922 -0.0508848 0 0 0 -8.24788 -21.3317 11.9817 0 -1.05196e-05 0 0 0 0 0 0 0 0 0 0 0 0 0 0 0 0 0 0 0.0008 0 
18389 3 0.0447421 -0.0372811 -0.0456366 0 0 0 -14.2884 -27.7291 22.9484 0 -1.05196e-05 0 0 0 0 0 0 0 0 0 0 0 0 0 0 0 0 0 0 0.0008 0 
2947 5 0.0021348 -0.0379439 -0.0449627 0 0 0 -0.0419085 -3.54572 2.96899 0 -1.05196e-05 0 0 0 0 0 0 0 0 0 0 0 0 0 0 0 0 0 83 0.0008 0 
18455 3 0.010509 -0.0373531 -0.0450439 0 0 0 0.930499 -5.95115 3.63145 0 -3.55035e-05 0 0 0 0 0 0 0 0 0 0 0 0 0 0 0 0 0 0 0.0012 0 
11792 5 0.0311043 -0.0410497 -0.042117 0 0 0 0.597393 -4.34115 3.6579 0 -1.05196e-05 0 0 0 0 0 0 0 0 0 0 0 0 0 0 0 0 0 43 0.0008 0 
17256 7 0.0082572 -0.00262815 -0.0419801 0 0 0 -1.28017 -4.03654 2.54267 0 -1.05196e-05 0 0 0 0 0 0 0 0 0 0 0 0 0 0 0 0 0 14 0.0008 0 
18469 4 0.0074941 -0.0431977 -0.0388641 0 0 0 0.919088 -5.7909 5.96715 0 -3.55035e-05 0 0 0 0 0 0 0 0 0 0 0 0 0 0 0 0 0 0 0.0012 0 
14016 6 0.00415032 -0.0119215 -0.0386359 0 0 0 0.232961 -2.9579 -0.550804 0 -1.05196e-05 0 0 0 0 0 0 0 0 0 0 0 0 0 0 0 0 0 23 0.0008 0 
18493 7 0.0452127 -0.0466603 -0.0351565 0 0 0 18.1449 -15.9512 19.654 0 -3.55035e-05 0 0 0 0 0 0 0 0 0 0 0 0 0 0 0 0 0 0 0.0012 0 
15817 4 0.0305877 -0.0409111 -0.0332089 0 0 0 -0.0150131 -66.3875 81.8678 2.39141e-08 0.175677 0.142314 0 0 0 0 0 0 0 0 0 0 0 0 0 0 0 0 14 0.0008 0 
9675 5 0.0293709 -0.039992 -0.0306377 0 0 0 0.00848258 -61.2684 80.0127 0.00563809 0.148929 0.134807 0 0 0 0 1 0 0 0 0 0 0 0 0 0 0 0 73 0.0008 0 
14906 2 0.0297381 -0.0386524 -0.0300447 0 0 0 0.289512 -60.3273 77.6948 0.816179 -0.346854 0.752318 0 1 0 0 1 0 0 0 0 0 0 0 0 0 0 0 37 0.0008 0 
8968 1 0.0301341 -0.0373288 -0.029409 0 0 0 -1.63155 -57.7832 73.354 0.0462303 0.146576 0.196989 0 1 0 0 0 0 0 0 0 0 0 0 0 0 0 0 48 0.0008 0 
17453 12 0.0435361 -0.0538117 -0.0288432 0 0 0 -0.203224 0.00195363 -0.00315522 -3.02054e-17 -2.08228e-06 3.363e-06 0 0 0 0 0 0 0 0 0 0 0 0 0 0 0 0 2 0.0008 0 
4086 2 0.0282743 -0.0391345 -0.0286468 0 0 0 -0.0125762 -57.2647 78.3102 2.13404e-08 0.168037 0.122751 0 0 0 0 0 0 0 0 0 0 0 0 0 0 0 0 51 0.0008 0 
5427 6 0.0318088 -0.0318193 -0.0279433 0 0 0 -0.0102819 -55.8257 63.6116 1.81344e-05 0.136368 0.119608 0 0 0 0 0 3 0 0 0 0 0 0 0 0 0 0 105 0.0008 0 
14143 1 0.0312593 -0.0305669 -0.0279815 0 0 0 -0.0176286 -55.9095 61.162 2.28803e-05 0.131233 0.119792 2 0 0 0 0 1 0 0 0 0 0 0 0 0 0 0 131 0.0008 0 
16766 3 0.0342743 -0.0301575 -0.0288634 0 0 0 0.0141422 -57.7206 60.3042 -3.5515e-06 0.12931 0.123786 0 0 1 0 0 0 0 0 0 0 0 0 0 0 0 0 4 0.0008 0 
17490 7 0.0229975 -0.0549376 -0.0267976 0 0 0 0.271876 -0.255174 0.956544 0 -1.05196e-05 0 0 0 0 0 0 0 0 0 0 0 0 0 0 0 0 0 0 0.0008 0 
11603 8 0.0252993 -0.0410295 -0.026408 0 0 0 0.257466 -52.7425 82.1696 -0.0334468 0.12152 0.133834 0 0 0 0 0 0 0 3 0 0 0 0 0 0 0 0 40 0.0008 0 
2167 5 0.0309674 -0.0326354 -0.0266842 0 0 0 0.0140991 -53.3756 65.2407 -9.17475e-06 0.139821 0.114484 0 0 0 0 4 0 0 0 0 0 0 0 0 0 0 0 583 0.0008 0 
5110 13 0.0324587 -0.0325984 -0.0263137 0 0 0 -0.00947734 -52.6357 65.1481 -6.5697e-06 0.139632 0.112925 0 0 0 0 1 0 0 0 0 0 0 0 5 0 0 0 660 0.0008 0 
3304 6 0.0302795 -0.0313082 -0.0270084 0 0 0 -0.00937376 -53.9957 62.6429 -4.04146e-05 0.134358 0.115719 1 0 0 0 1 3 0 0 0 0 0 0 0 0 0 0 700 0.0008 0 
739 7 0.0316756 -0.0314834 -0.0266935 0 0 0 -0.0136892 -53.3956 62.9563 -8.94104e-05 0.135009 0.114561 0 0 0 0 1 2 3 0 0 0 0 0 1 0 0 0 588 0.0008 0 
760 7 0.03313 -0.0317326 -0.0274049 0 0 0 -0.00984904 -54.8143 63.4497 2.62799e-05 0.136067 0.117587 0 0 0 0 0 1 2 0 0 0 0 0 1 0 0 0 546 0.0008 0 
11146 1 0.0305989 -0.0300222 -0.0268962 0 0 0 -0.0127688 -53.7734 60.0726 7.20216e-06 0.128888 0.115254 2 0 0 0 0 1 0 0 0 0 0 0 0 0 0 0 238 0.0008 0 
13798 2 0.0324741 -0.0305072 -0.0267874 0 0 0 -0.00806518 -53.6242 60.98 -6.93651e-05 0.130743 0.115227 0 3 0 0 0 0 2 0 0 0 0 0 0 0 0 0 191 0.0008 0 
3329 4 0.031762 -0.0294196 -0.0273506 0 0 0 0.000676623 -54.6492 58.9002 -6.98388e-06 0.126525 0.117176 2 1 0 1 0 0 0 0 0 0 0 0 0 0 0 0 622 0.0008 0 
6688 7 0.0332395 -0.0303067 -0.0276941 0 0 0 -0.00460985 -55.3745 60.6054 2.39493e-05 0.130031 0.118823 0 1 1 0 0 0 0 0 0 0 0 0 0 0 0 0 423 0.0008 0 
16763 1 0.0326444 -0.0288141 -0.0265657 0 0 0 0.0566821 -53.1272 57.6452 1.54216e-05 0.12386 0.114074 3 0 0 1 0 0 0 0 0 0 0 0 0 0 0 0 55 0.0008 0 
17424 1 0.0311256 -0.0553833 -0.0254517 0 0 0 0.526041 -0.208646 0.593872 0 -1.05196e-05 0 0 0 0 0 0 0 0 0 0 0 0 0 0 0 0 0 0 0.0008 0 
15619 1 0.0206124 -0.0473803 -0.0254806 0 0 0 -0.753702 -50.6103 94.0624 -1.6727 1.3802 -1.17461 1 0 0 0 0 0 0 0 0 0 0 0 0 0 0 0 47 0.0008 0 
1300 2 0.0209901 -0.0458894 -0.0248751 0 0 0 0.0193222 -49.9429 91.8646 0.00551652 0.185879 0.11848 0 5 0 0 0 0 0 0 0 0 0 0 0 0 0 0 260 0.0008 0 
7206 6 0.0216044 -0.0452828 -0.0252958 0 0 0 -0.0401625 -50.5441 90.5759 -0.00273006 0.192928 0.107805 0 1 0 0 0 1 0 0 0 0 0 0 0 0 0 0 387 0.0008 0 
2095 7 0.0221615 -0.0441528 -0.0252272 0 0 0 -0.231004 -50.2819 88.4352 -0.000884713 0.188735 0.10962 0 0 0 0 0 1 5 0 0 0 0 0 0 0 0 0 547 0.0008 0 
1252 1 0.0227044 -0.0440358 -0.0250258 0 0 0 -0.0742309 -50.0607 87.733 0.000453012 0.188501 0.101785 4 0 0 0 0 0 1 0 0 0 0 0 0 0 0 0 584 0.0008 0 
83 6 0.0226603 -0.0428999 -0.0249801 0 0 0 -0.608546 -49.6435 85.6464 0.0555245 0.158769 0.135664 1 0 0 0 0 4 1 0 0 0 0 0 0 0 0 0 609 0.0008 0 
617 3 0.023662 -0.0429307 -0.0259154 0 0 0 -0.905168 -50.8707 85.5704 0.421756 -0.095901 0.407882 0 0 3 0 0 1 0 0 0 0 0 0 0 0 0 0 414 0.0008 0 
5630 1 0.0238755 -0.0421332 -0.0251354 0 0 0 -0.130924 -50.2998 84.007 0.122155 0.078526 0.256135 3 0 1 0 0 1 0 0 0 0 0 0 0 0 0 0 526 0.0008 0 
675 3 0.0234992 -0.0414413 -0.0249331 0 0 0 -0.0900985 -49.5991 82.8792 0.12483 0.100743 0.168277 1 0 6 0 0 0 0 0 0 0 0 0 0 0 0 0 495 0.0008 0 
8427 2 0.0244897 -0.0418194 -0.0259869 0 0 0 4.31221 -54.732 87.1862 0.167142 0.0644162 0.221273 1 1 2 0 0 0 0 1 0 0 0 0 0 0 0 0 113 0.0008 0 
16015 1 0.0246851 -0.0406506 -0.0252538 0 0 0 0.188169 -50.4258 81.5227 0.0697703 0.144673 0.164222 3 1 1 0 0 0 0 1 0 0 0 0 0 0 0 0 73 0.0008 0 
16691 6 0.0259904 -0.0398211 -0.0261228 0 0 0 -4.33079 -49.6866 76.044 -1.29108 1.09083 -0.783802 0 0 0 0 0 2 0 1 0 0 0 0 0 0 0 0 39 0.0008 0 
4454 12 0.0253229 -0.0395063 -0.025066 0 0 0 0.284139 -50.3047 79.1553 -0.151735 0.280447 -0.00735793 1 0 0 0 0 1 0 0 0 0 0 2 0 0 0 0 495 0.0008 0 
16848 5 0.0268313 -0.0386693 -0.0262064 0 0 0 1.37865 -53.5582 77.9297 -0.510085 0.455314 -0.214545 0 0 0 0 1 1 0 0 0 0 0 0 0 0 0 0 11 0.0008 0 
34 8 0.0262647 -0.038064 -0.0251005 0 0 0 0.314022 -50.4932 76.4128 -0.047665 0.18008 0.0601272 0 0 0 0 1 0 0 2 0 0 0 0 0 0 0 0 553 0.0008 0 
847 1 0.0305326 -0.031221 -0.0257627 0 0 0 0.0174238 -51.5168 62.4729 -7.88071e-06 0.133969 0.11027 4 0 0 0 0 1 1 0 0 0 0 0 0 0 0 0 375 0.0008 0 
16871 1 0.0324654 -0.0317215 -0.025107 0 0 0 -0.00233504 -50.2463 63.4322 -0.000111065 0.136055 0.107844 4 0 0 0 0 0 0 0 0 0 0 0 1 0 0 0 41 0.0008 0 
134 7 0.0312927 -0.0322473 -0.0254701 0 0 0 0.00874597 -50.9679 64.4718 -0.000104174 0.138129 0.109289 2 0 0 0 1 0 1 0 0 0 0 0 1 0 0 0 555 0.0008 0 
564 10 0.0333833 -0.0315013 -0.0260528 0 0 0 -0.00937838 -52.15 62.9906 -1.87141e-05 0.13514 0.111972 1 1 0 0 0 0 1 0 0 1 0 0 1 0 0 0 708 0.0008 0 
100 2 0.0303847 -0.0300846 -0.0249165 0 0 0 0.000439465 -49.835 60.2341 0.000157851 0.129399 0.106847 1 4 0 0 0 0 0 0 0 0 0 0 0 0 0 0 690 0.0008 0 
7604 2 0.031835 -0.0304973 -0.0256605 0 0 0 0.029019 -51.3117 60.9723 -5.20454e-05 0.130848 0.110129 2 2 0 0 0 0 1 0 0 0 0 0 0 0 0 0 296 0.0008 0 
12101 1 0.0333204 -0.03059 -0.0249879 0 0 0 -0.0168032 -50.0178 61.1536 -3.71944e-05 0.131164 0.107475 2 0 0 0 0 0 0 0 0 1 0 0 0 0 0 0 238 0.0008 0 
6951 2 0.0335063 -0.0298385 -0.0260767 0 0 0 0.002499 -52.2068 59.6635 -2.1236e-05 0.127984 0.112167 2 1 0 0 0 0 0 0 0 0 0 0 0 0 0 0 368 0.0008 0 
13155 7 0.0304856 -0.0291303 -0.0258821 0 0 0 -0.00308114 -51.7586 58.3021 2.97726e-05 0.125139 0.11099 1 1 0 0 0 0 2 0 0 0 0 0 0 0 0 0 175 0.0008 0 
47 1 0.0315549 -0.0293961 -0.024852 0 0 0 0.0183609 -49.7126 58.7804 0.000165212 0.126125 0.106652 4 2 0 0 0 0 1 0 0 0 0 0 0 0 0 0 621 0.0008 0 
9772 4 0.0328417 -0.0290585 -0.0251802 0 0 0 0.0159659 -50.3953 58.1213 -2.74593e-06 0.124704 0.108229 2 1 0 3 0 0 0 0 0 0 0 0 0 0 0 0 414 0.0008 0 
5616 7 0.030997 -0.0278668 -0.0255226 0 0 0 -0.000583121 -51.0217 55.7485 6.26888e-05 0.119631 0.109356 0 0 0 0 0 0 4 0 0 0 0 0 0 0 0 0 448 0.0008 0 
16148 6 0.0323552 -0.0276824 -0.0256864 0 0 0 0.00126132 -51.4123 55.3564 4.14019e-05 0.118911 0.110528 1 0 0 1 0 3 1 0 0 0 0 0 0 0 0 0 99 0.0008 0 
10035 10 0.0167119 -0.0522894 -0.0247399 0 0 0 0.18464 -5.15673 7.67232 0 -1.05196e-05 0 0 0 0 0 0 0 0 0 0 0 0 0 0 0 0 0 46 0.0008 0 
3831 9 0.0201836 -0.0465444 -0.0244802 0 0 0 0.42666 -49.2991 93.113 -0.0345242 0.221472 0.0188369 1 1 0 0 0 0 0 0 0 0 0 0 0 0 0 0 486 0.0008 0 
5227 9 0.0204889 -0.0455607 -0.0240787 0 0 0 -0.0391753 -48.116 91.2247 -0.00980547 0.194202 0.100112 0 1 0 0 0 0 0 0 3 0 0 0 0 0 0 0 464 0.0008 0 
123 1 0.0200405 -0.0451996 -0.0234134 0 0 0 -0.0319456 -46.8002 90.4178 -0.000125928 0.194287 0.100414 3 0 0 0 0 0 0 0 1 0 0 0 0 0 0 0 630 0.0008 0 
9966 6 0.0216628 -0.0450187 -0.0246001 0 0 0 0.0449205 -49.2129 89.9093 0.000481161 0.191775 0.10445 1 1 0 0 0 1 1 0 1 0 0 0 0 0 0 0 365 0.0008 0 
7671 3 0.0210588 -0.0448773 -0.0236526 0 0 0 0.0315037 -47.4017 89.6231 -0.000255114 0.191675 0.101717 1 1 3 0 0 1 0 0 1 0 0 0 0 0 0 0 360 0.0008 0 
2399 5 0.0209823 -0.0439203 -0.0235838 0 0 0 -0.0482853 -47.01 88.0369 0.00115382 0.188348 0.100284 1 0 1 0 5 0 0 0 0 0 0 0 0 0 0 0 558 0.0008 0 
8818 6 0.0217406 -0.0436026 -0.0242932 0 0 0 -0.0909129 -48.5622 87.4692 -0.00245909 0.186792 0.0966497 1 0 1 0 1 3 1 0 0 0 0 0 0 0 0 0 319 0.0008 0 
1830 1 0.0221009 -0.0435815 -0.0237963 0 0 0 0.0996646 -47.777 86.9972 0.00173623 0.188596 0.0959754 4 0 0 0 1 2 1 0 0 0 0 0 0 0 0 0 479 0.0008 0 
10725 10 0.0216105 -0.0426683 -0.0233919 0 0 0 0.0505162 -46.5969 85.4758 0.000153551 0.183862 0.099478 1 0 0 0 1 1 0 0 0 5 0 0 0 0 0 0 381 0.0008 0 
7079 5 0.0229726 -0.0428921 -0.0244864 0 0 0 -0.0389353 -48.9753 85.3393 -0.00358143 0.183503 0.100516 3 0 1 0 3 2 0 0 0 0 0 0 0 0 0 0 170 0.0008 0 
4918 9 0.0225451 -0.0416923 -0.0237932 0 0 0 0.00434315 -47.4666 83.5087 0.00249963 0.179431 0.0998161 0 0 1 0 1 0 0 0 5 1 0 0 0 0 0 0 543 0.0008 0 
258 1 0.0235055 -0.0417775 -0.0241562 0 0 0 0.0389286 -48.4754 83.2262 0.00753238 0.176325 0.104517 3 0 1 0 1 0 0 0 1 0 0 0 0 0 0 0 539 0.0008 0 
4033 5 0.0242577 -0.0406094 -0.0241128 0 0 0 -0.108062 -48.4161 81.1249 0.00787866 0.168688 0.10949 2 0 1 0 2 0 0 0 0 0 0 0 0 0 0 0 447 0.0008 0 
15410 5 0.0239408 -0.0401075 -0.0242566 0 0 0 0.00683318 -48.2801 80.4091 -0.00604536 0.172044 0.101492 1 0 1 0 3 0 0 0 0 0 0 0 0 0 0 0 120 0.0008 0 
16590 4 0.0246871 -0.0391959 -0.0239786 0 0 0 0.0281748 -48.0227 78.3712 0.00535654 0.166129 0.107514 0 0 0 0 2 0 0 0 0 0 0 1 0 0 0 0 62 0.0008 0 
12243 4 0.0254518 -0.0382589 -0.024325 0 0 0 -0.0800636 -48.6329 76.5898 -0.00114202 0.164309 0.103079 0 0 0 1 0 0 0 1 0 0 0 1 0 0 0 0 139 0.0008 0 
9359 3 0.0255277 -0.0375108 -0.0236036 0 0 0 0.104323 -47.1812 74.9844 -0.000565304 0.160336 0.100816 0 0 3 1 0 0 0 0 0 0 0 0 0 0 0 0 134 0.0008 0 
5029 5 0.0264549 -0.0368439 -0.0242986 0 0 0 0.0162453 -48.586 73.6821 -0.00133296 0.15786 0.103397 0 0 1 0 0 0 0 1 0 0 0 0 0 0 0 0 118 0.0008 0 
11780 5 0.0313869 -0.0310411 -0.0244957 0 0 0 0.0117356 -49.0098 62.0599 -0.000100821 0.133069 0.105152 2 2 0 0 1 0 1 0 0 0 0 0 0 0 0 0 219 0.0008 0 
11851 5 0.0311631 -0.0297847 -0.0235287 0 0 0 0.0333746 -47.1606 59.5291 2.96107e-05 0.127494 0.101317 1 0 0 0 1 0 0 0 0 0 0 0 0 0 0 0 225 0.0008 0 
5066 2 0.0324976 -0.0301866 -0.0239765 0 0 0 0.0345431 -47.998 60.4179 -5.51405e-05 0.1295 0.103284 2 1 0 0 2 0 0 0 0 0 0 0 0 0 0 0 302 0.0008 0 
6581 1 0.0303168 -0.0287458 -0.0244128 0 0 0 0.0110852 -48.8018 57.5214 3.90835e-05 0.123359 0.104739 1 1 0 0 0 0 2 0 0 0 0 0 0 0 0 0 410 0.0008 0 
7478 3 0.0319897 -0.0281554 -0.0242309 0 0 0 -0.0136069 -48.4555 56.2841 0.000178696 0.120419 0.10428 1 0 1 1 0 1 0 0 0 0 0 0 0 0 0 0 501 0.0008 0 
2556 1 0.0334571 -0.028785 -0.0238773 0 0 0 -0.0186428 -47.8293 57.5844 -8.77606e-05 0.123425 0.102852 2 0 0 1 0 0 0 0 0 0 0 0 0 0 0 0 778 0.0008 0 
3796 15 0.0304917 -0.0273032 -0.0241416 0 0 0 0.00766153 -48.2627 54.6052 -0.000162243 0.117192 0.103205 1 0 0 0 0 0 1 0 0 0 0 0 0 0 1 0 253 0.0008 0 
2782 8 0.0317078 -0.0266721 -0.0248178 0 0 0 0.0317844 -49.6351 53.3313 -6.26667e-05 0.114399 0.106581 0 0 0 0 0 1 1 0 0 0 0 0 0 0 1 0 716 0.0008 0 
759 5 0.0333109 -0.0275864 -0.0246916 0 0 0 0.0121383 -49.3995 55.1862 4.09243e-05 0.118481 0.106169 1 0 1 0 0 1 0 0 0 0 0 0 0 0 0 0 721 0.0008 0 
3488 2 0.0204464 -0.0442235 -0.0226741 0 0 0 0.0433163 -45.369 88.442 -0.000485056 0.189303 0.0973926 1 1 1 0 1 0 0 0 0 0 0 0 0 0 0 0 322 0.0008 0 
4700 3 0.0214609 -0.0431948 -0.0227168 0 0 0 -0.00925209 -45.574 86.2853 -0.00060457 0.186167 0.0979293 1 1 4 0 1 0 0 0 0 1 0 0 0 0 0 0 496 0.0008 0 
2661 1 0.0208553 -0.0426419 -0.0221488 0 0 0 -0.0476221 -44.2412 85.3599 -0.000142126 0.183326 0.0951532 4 0 1 0 0 0 0 0 0 1 0 0 0 0 0 0 403 0.0008 0 
6430 3 0.0219792 -0.0415066 -0.0224668 0 0 0 0.0926705 -44.9709 83.0207 0.000174162 0.17775 0.0964995 0 0 5 0 0 0 0 0 1 1 0 0 0 0 0 0 484 0.0008 0 
11253 8 0.0224801 -0.0423075 -0.0232207 0 0 0 0.0569842 -46.6142 84.4044 0.000575513 0.181991 0.0974256 2 0 2 0 1 0 0 1 1 1 0 0 0 0 0 0 295 0.0008 0 
2710 6 0.0232733 -0.0409425 -0.0231625 0 0 0 -0.136425 -46.5905 81.7896 -0.00413396 0.170474 0.0958893 1 0 1 0 2 1 0 1 1 0 0 0 0 0 0 0 547 0.0008 0 
282 4 0.0228152 -0.0403958 -0.0229229 0 0 0 0.135407 -45.6239 80.9177 0.00379054 0.176569 0.0972477 0 0 1 2 0 1 0 0 1 0 0 0 0 0 0 0 581 0.0008 0 
12004 1 0.0234027 -0.0392702 -0.022568 0 0 0 0.000993172 -44.914 78.6799 0.000930935 0.169486 0.095497 5 0 0 1 0 0 0 0 0 0 0 0 0 0 0 0 134 0.0008 0 
579 4 0.0240652 -0.0392242 -0.0230068 0 0 0 -0.0473348 -46.2337 78.3879 0.000897306 0.167797 0.100483 1 0 0 0 1 0 0 0 0 0 0 0 0 0 0 0 231 0.0008 0 
3382 4 0.0248108 -0.0383644 -0.0231757 0 0 0 -0.076543 -46.3793 76.6535 -0.000107357 0.164124 0.0996514 0 0 1 0 0 0 0 0 0 0 0 0 0 0 0 0 600 0.0008 0 
10493 4 0.0247159 -0.0373094 -0.0224883 0 0 0 0.0777346 -44.9578 74.6255 -5.67533e-05 0.160057 0.0965462 0 0 1 3 0 0 0 0 0 0 0 0 0 0 0 0 218 0.0008 0 
9524 3 0.0257772 -0.0361661 -0.0228236 0 0 0 -0.0072943 -45.6202 72.3652 -7.51994e-05 0.155225 0.0978051 0 0 0 1 0 0 0 0 0 0 0 0 0 0 0 0 113 0.0008 0 
76 8 0.0269229 -0.0336368 -0.0221704 0 0 0 -0.00940655 -44.316 67.307 1.70392e-08 0.144423 0.0949899 0 0 0 0 0 0 0 0 0 0 0 0 0 0 0 0 514 0.0008 0 
9091 5 0.03238 -0.0291491 -0.0229432 0 0 0 -0.110249 -45.8249 58.3068 -0.000330744 0.125344 0.0982336 1 1 0 0 0 0 0 0 0 0 0 0 0 0 0 0 347 0.0008 0 
3437 2 0.0202403 -0.0432778 -0.0218116 0 0 0 -0.00516596 -43.646 86.5365 -0.000199431 0.185465 0.0937017 1 1 1 0 0 0 0 0 0 0 0 0 0 0 0 0 545 0.0008 0 
7147 3 0.020269 -0.0423164 -0.0208008 0 0 0 -0.00549023 -41.6603 84.5497 3.48653e-05 0.181091 0.0892899 1 1 4 0 0 0 0 0 0 0 0 0 0 0 0 0 463 0.0008 0 
44 2 0.0213083 -0.0421902 -0.021672 0 0 0 0.012649 -43.4859 84.1795 0.000204824 0.180241 0.093722 1 2 3 0 0 0 0 0 0 0 0 0 0 0 0 0 549 0.0008 0 
3400 4 0.0213479 -0.0413613 -0.020925 0 0 0 0.100388 -42.0021 82.4809 4.09457e-05 0.176812 0.0905985 0 1 1 4 0 0 0 0 0 0 0 0 0 0 0 0 586 0.0008 0 
4081 6 0.0211171 -0.0413073 -0.0216507 0 0 0 -0.00203556 -43.2234 82.682 6.81948e-06 0.177967 0.0926965 1 1 2 1 0 2 0 0 0 0 0 0 0 0 0 0 551 0.0008 0 
9513 9 0.0204409 -0.0411086 -0.0205203 0 0 0 0.00790403 -40.8905 82.3463 0.000197343 0.176933 0.0875269 0 0 1 1 0 1 0 0 3 0 0 0 0 0 0 0 264 0.0008 0 
1299 8 0.0217121 -0.0401514 -0.0210388 0 0 0 -0.0503816 -41.9993 80.4877 0.000784715 0.173418 0.0900127 0 0 0 1 0 1 0 4 0 0 0 0 0 0 0 0 664 0.0008 0 
5218 9 0.022264 -0.0398626 -0.0218263 0 0 0 -0.149265 -43.5051 79.9366 0.000372387 0.171966 0.0924796 1 0 0 1 0 0 0 1 2 0 0 0 0 0 0 0 369 0.0008 0 
8933 4 0.0227702 -0.0398898 -0.0215088 0 0 0 0.0629673 -43.2534 79.4759 0.000338056 0.169969 0.0919127 1 0 0 1 0 0 0 1 1 0 0 0 0 0 0 0 351 0.0008 0 
2302 4 0.0230917 -0.0387098 -0.0215016 0 0 0 0.0256928 -42.9201 77.5278 0.000450414 0.166016 0.0910588 1 0 0 2 0 0 0 0 1 0 0 0 0 0 0 0 598 0.0008 0 
10324 7 0.023484 -0.0372576 -0.0206015 0 0 0 0.0215936 -41.1619 74.5094 2.63111e-06 0.159836 0.0881841 0 0 0 0 0 0 2 0 0 0 0 0 0 0 0 0 282 0.0008 0 
6228 2 0.0239345 -0.0380833 -0.0218612 0 0 0 -0.0369965 -43.7472 76.1514 9.99003e-05 0.163324 0.0938312 1 1 0 2 0 0 1 0 0 0 0 0 0 0 0 0 299 0.0008 0 
3056 7 0.0239276 -0.0369969 -0.0213508 0 0 0 0.0826124 -42.5934 74.0287 0.000111515 0.159013 0.0911315 0 1 0 1 0 0 1 0 0 0 0 0 0 0 0 0 530 0.0008 0 
11658 5 0.0247675 -0.036098 -0.0213812 0 0 0 0.0418961 -42.7718 72.1546 1.22357e-05 0.154735 0.0916864 0 0 0 0 0 0 1 0 0 0 0 0 0 0 0 0 209 0.0008 0 
2800 3 0.0256349 -0.0340509 -0.0209169 0 0 0 -0.0803356 -41.8815 68.1627 0.000175521 0.146221 0.0899771 0 0 1 0 0 0 0 0 0 0 0 0 0 0 0 0 445 0.0008 0 
14539 6 0.00080191 -0.0575562 -0.0201142 0 0 0 0.000544638 -0.00214609 0.00554086 1.56586e-08 -9.83627e-07 2.56552e-06 0 0 0 0 0 0 0 0 0 0 0 0 0 0 0 0 2 0.0008 0 
18494 9 0.0300233 -0.0484249 -0.0194945 0 0 0 -1.03367 -6.30463 21.0533 0 -3.55035e-05 0 0 0 0 0 0 0 0 0 0 0 0 0 0 0 0 0 0 0.0012 0 
370 1 0.0202432 -0.0410701 -0.01978 0 0 0 0.0403866 -39.5924 82.1503 -2.74279e-06 0.176275 0.084884 3 0 0 0 0 0 0 0 1 0 0 0 0 0 0 0 455 0.0008 0 
53 4 0.0209156 -0.0399351 -0.0201574 0 0 0 -0.0606779 -40.1201 80.0132 0.000432399 0.171894 0.0869867 1 0 0 5 0 0 0 1 1 0 0 0 0 0 0 0 626 0.0008 0 
2549 2 0.0212491 -0.0404891 -0.019915 0 0 0 0.0217957 -40.0362 80.8463 -0.000195956 0.1733 0.0863997 1 3 0 2 0 0 0 1 1 0 0 0 0 0 0 0 532 0.0008 0 
2651 9 0.0208881 -0.038863 -0.0192427 0 0 0 0.0129468 -38.3327 77.8342 -0.00033531 0.167229 0.0823163 0 0 0 1 0 0 0 0 7 0 0 0 0 0 0 0 577 0.0008 0 
9248 8 0.0219139 -0.0391364 -0.0203956 0 0 0 -0.0354803 -40.7364 78.3165 -0.000350614 0.168525 0.0872659 0 1 0 2 0 0 0 3 1 0 0 0 0 0 0 0 215 0.0008 0 
7521 7 0.0212756 -0.039515 -0.0191629 0 0 0 0.00335044 -38.522 78.8776 -0.00068235 0.168673 0.0834307 0 1 0 1 0 0 3 1 1 0 0 0 0 0 0 0 415 0.0008 0 
10637 1 0.0221439 -0.0385195 -0.0196568 0 0 0 -0.0251581 -39.3535 76.9708 -0.000371171 0.16478 0.0846206 2 0 0 0 0 0 1 1 1 0 0 0 0 0 0 0 181 0.0008 0 
7049 2 0.0216047 -0.0377758 -0.0190859 0 0 0 0.00050982 -38.0458 75.6796 -3.56145e-05 0.163162 0.0820012 1 4 0 0 0 0 0 0 1 0 0 0 0 0 0 0 531 0.0008 0 
500 6 0.0226065 -0.0380286 -0.0202895 0 0 0 0.0315098 -40.5885 76.0389 -0.000143583 0.162937 0.0870973 1 1 0 1 0 0 1 1 0 0 0 0 0 0 0 0 576 0.0008 0 
97 5 0.0227358 -0.0364689 -0.0192658 0 0 0 -0.103629 -38.5158 73.0433 -2.25418e-05 0.156838 0.0825208 0 0 0 0 3 0 0 0 0 0 0 0 0 0 0 0 624 0.0008 0 
6942 12 0.0238694 -0.035133 -0.0194374 0 0 0 -0.0828298 -38.943 70.3376 0.000138699 0.150972 0.0835983 0 0 0 0 0 0 0 0 0 0 0 2 0 0 0 0 242 0.0008 0 
5538 5 0.0247171 -0.0346107 -0.0201441 0 0 0 -0.0867931 -40.3434 69.2998 -1.98268e-05 0.148659 0.0868304 0 0 1 0 0 0 0 0 0 0 0 1 0 0 0 0 387 0.0008 0 
13923 7 0.000843815 -0.0581462 -0.0185912 0 0 0 -0.0112106 -0.00140135 0.0036173 -1.40247e-15 -9.80528e-07 2.53097e-06 0 0 0 0 0 0 0 0 0 0 0 0 0 0 0 0 18 0.0008 0 
5801 6 0.0261503 -0.058137 -0.018615 0 0 0 0.124575 -0.00688813 0.0177803 -1.04701e-17 -9.80505e-07 2.53098e-06 0 0 0 0 0 0 0 0 0 0 0 0 0 0 0 0 37 0.0008 0 
10239 8 0.0201926 -0.0400521 -0.0189876 0 0 0 0.0151206 -37.9671 80.1061 -0.000188297 0.171672 0.0817452 1 1 0 1 0 0 1 1 1 0 0 0 0 0 0 0 224 0.0008 0 
12424 6 0.0201942 -0.038843 -0.0180138 0 0 0 -2.57962e-05 -36.04 77.6717 5.65741e-05 0.166562 0.0773568 0 0 0 0 0 3 0 1 1 0 0 0 0 0 0 0 207 0.0008 0 
5276 5 0.0212342 -0.0384557 -0.0183219 0 0 0 0.0586905 -36.8122 76.7488 -6.62182e-06 0.16388 0.0788143 0 1 0 0 2 1 1 0 1 0 0 0 0 0 0 0 336 0.0008 0 
5050 3 0.0208433 -0.0374406 -0.0178548 0 0 0 -0.0188661 -35.69 74.9807 -0.000125806 0.160987 0.0766451 0 1 3 0 1 1 0 0 0 0 0 0 0 0 0 0 531 0.0008 0 
3794 3 0.0220138 -0.0371172 -0.0185567 0 0 0 0.0470519 -37.1945 74.2239 -5.99337e-05 0.159276 0.0799947 0 1 2 0 2 0 0 0 0 0 0 0 0 0 0 0 447 0.0008 0 
9969 12 0.0223284 -0.036081 -0.0181255 0 0 0 -0.0903313 -36.2955 72.2478 1.63245e-05 0.155126 0.0778918 0 0 1 0 1 0 0 0 0 0 0 2 0 0 0 0 238 0.0008 0 
14579 9 0.0231509 -0.0355952 -0.0187865 0 0 0 -0.0749832 -37.6211 71.2495 1.74459e-06 0.152924 0.0807566 0 0 0 0 1 0 0 0 0 0 0 2 0 0 0 0 78 0.0008 0 
14527 2 0.000804941 -0.0588854 -0.0165868 0 0 0 0.0135548 0.0388338 -0.164882 0 -1.05196e-05 0 0 0 0 0 0 0 0 0 0 0 0 0 0 0 0 0 13 0.0008 0 
7967 9 0.00578936 -0.0588915 -0.0165823 0 0 0 0.11481 -0.00835805 0.0269989 -3.22955e-05 5.28388e-05 1.26977e-05 0 0 0 0 0 0 0 0 0 0 0 0 0 0 0 0 72 0.0008 0 
7518 5 0.0202304 -0.037908 -0.017081 0 0 0 0.000553966 -34.259 75.7695 -4.50109e-05 0.162465 0.0737755 0 0 1 0 1 1 0 0 0 0 0 0 0 0 0 0 388 0.0008 0 
717 6 0.0208043 -0.0372636 -0.0169434 0 0 0 -0.0742946 -33.9693 74.5648 -1.44055e-05 0.160077 0.0730769 0 0 1 0 1 1 0 0 0 0 0 0 0 0 0 0 593 0.0008 0 
12650 2 0.0214563 -0.0366218 -0.0174549 0 0 0 -0.0656158 -34.9565 73.3021 3.33697e-05 0.157331 0.0750647 0 0 2 0 0 1 0 0 0 0 0 1 0 0 0 0 151 0.0008 0 
18020 5 0.0280855 -0.0592423 -0.0147051 0 0 0 0.105367 -0.00426327 0.0228065 1.52637e-17 -2.53692e-07 1.35713e-06 0 0 0 0 0 0 0 0 0 0 0 0 0 0 0 0 0 0.0008 0 
17627 1 0.0391652 -0.0591566 -0.0151636 0 0 0 0.104574 0.0126594 -0.067722 4.01851e-18 -2.53692e-07 1.35713e-06 0 0 0 0 0 0 0 0 0 0 0 0 0 0 0 0 0 0.0008 0 
7586 9 0.0171169 -0.053917 -0.014735 0 0 0 0.246871 -0.749151 1.50869 0 -1.05196e-05 0 0 0 0 0 0 0 0 0 0 0 0 0 0 0 0 0 51 0.0008 0 
16349 4 0.00261203 -0.0592844 -0.0141423 0 0 0 0.0592016 0.010209 -0.0777796 0 -1.05196e-05 0 0 0 0 0 0 0 0 0 0 0 0 0 0 0 0 0 0 0.0008 0 
13193 11 0.0171606 -0.0593592 -0.0140794 0 0 0 0.0787814 -0.0100538 0.0537833 -4.81422e-18 -2.53692e-07 1.35713e-06 0 0 0 0 0 0 0 0 0 0 0 0 0 0 0 0 27 0.0008 0 
15810 2 0.0378817 -0.0595819 -0.0128882 0 0 0 -0.0938824 0.0013074 -0.006994 7.90556e-14 -2.529e-07 1.35729e-06 0 0 0 0 0 0 0 0 0 0 0 0 0 0 0 0 2 0.0008 0 
18396 4 0.0418257 -0.0595488 -0.0130652 0 0 0 -0.0226433 0.0114757 -0.0613897 -3.53829e-18 -2.53692e-07 1.35713e-06 0 0 0 0 0 0 0 0 0 0 0 0 0 0 0 0 1 0.0008 0 
15381 2 0.0051516 -0.0600129 -0.0105824 0 0 0 0.0324082 -0.000231786 0.00123995 2.36361e-19 -2.53692e-07 1.35713e-06 0 0 0 0 0 0 0 0 0 0 0 0 0 0 0 0 4 0.0008 0 
13645 4 0.013201 -0.0600511 -0.0103782 0 0 0 0.0423757 -0.00641699 0.0343278 -4.85986e-19 -2.53692e-07 1.35713e-06 0 0 0 0 0 0 0 0 0 0 0 0 0 0 0 0 41 0.0008 0 
1903 4 0.0310848 -0.0598463 -0.0114738 0 0 0 -0.0562997 0.0294085 -0.157321 -5.87737e-19 -2.53692e-07 1.35713e-06 0 0 0 0 0 0 0 0 0 0 0 0 0 0 0 0 84 0.0008 0 
17465 4 0.0344481 -0.0598208 -0.0116105 0 0 0 -0.160863 -0.00680159 0.0363852 -3.28669e-17 -2.53704e-07 1.35719e-06 0 0 0 0 0 0 0 0 0 0 0 0 0 0 0 0 0 0.0008 0 
10209 5 0.0381216 -0.0598935 -0.0112216 0 0 0 -0.039068 -0.00114875 0.00614649 -2.69979e-12 -2.71447e-07 1.35368e-06 0 0 0 0 0 0 0 0 0 0 0 0 0 0 0 0 30 0.0008 0 
11974 2 0.0403351 -0.0598247 -0.0115895 0 0 0 -0.0407902 0.00830415 -0.0444232 -2.55809e-18 -2.53692e-07 1.35713e-06 0 0 0 0 0 0 0 0 0 0 0 0 0 0 0 0 17 0.0008 0 
7257 5 0.0421732 -0.0599566 -0.0108839 0 0 0 -0.0130739 0.0100861 -0.0539558 2.32179e-19 -2.53692e-07 1.35713e-06 0 0 0 0 0 0 0 0 0 0 0 0 0 0 0 0 25 0.0008 0 
14994 1 0.0439552 -0.0598337 -0.0115413 0 0 0 0.0109076 0.0090266 -0.048288 3.10641e-19 -2.53692e-07 1.35713e-06 0 0 0 0 0 0 0 0 0 0 0 0 0 0 0 0 12 0.0008 0 
12335 5 0.046356 -0.0599015 -0.0111785 0 0 0 -0.000179649 0.00153202 -0.00819556 3.96391e-19 -2.53692e-07 1.35713e-06 0 0 0 0 0 0 0 0 0 0 0 0 0 0 0 0 11 0.0008 0 
5338 2 0.00521123 -0.0603163 -0.00895959 0 0 0 0.00021055 -3.17811e-05 0.000207858 5.26654e-07 -5.54302e-07 9.60175e-07 0 2 0 0 0 0 0 0 0 0 0 0 0 0 0 0 49 0.0008 0 
10441 10 0.0224251 -0.0603053 -0.00901865 0 0 0 0.0150054 -0.00046164 0.00250101 4.65752e-07 -1.42766e-07 8.01931e-07 0 0 0 0 0 0 0 0 0 1 0 0 0 0 0 0 39 0.0008 0 
12749 3 0.0240392 -0.060295 -0.00907372 0 0 0 0.0204711 -0.00111937 0.00598793 -1.58988e-13 -2.5373e-07 1.35712e-06 0 0 0 0 0 0 0 0 0 0 0 0 0 0 0 0 10 0.0008 0 
14170 7 0.000806519 -0.0601185 -0.0100179 0 0 0 0.00119735 -5.31549e-05 0.000282451 2.33423e-06 5.09646e-07 -3.36787e-06 0 0 0 0 0 0 1 0 0 0 0 0 0 0 0 0 2 0.0008 0 
15555 3 0.0021902 -0.0602666 -0.00922569 0 0 0 -0.00097546 -0.000659954 0.00353044 6.34522e-18 -2.53692e-07 1.35713e-06 0 0 0 0 0 0 0 0 0 0 0 0 0 0 0 0 1 0.0008 0 
8467 4 0.00718555 -0.0601907 -0.00963119 0 0 0 0.0125845 -0.000378702 0.0022983 -9.16832e-08 -6.59005e-07 -4.44702e-06 0 0 0 1 0 0 0 0 0 0 0 0 0 0 0 0 44 0.0008 0 
752 3 0.00892606 -0.0601197 -0.0100111 0 0 0 0.0272854 -0.00287211 0.0153646 2.57905e-13 -2.53207e-07 1.35723e-06 0 0 0 0 0 0 0 0 0 0 0 0 0 0 0 0 55 0.0008 0 
15203 3 0.0214002 -0.0600782 -0.0102285 0 0 0 0.0303282 0.00621038 -0.00703708 0 -1.05196e-05 0 0 0 0 0 0 0 0 0 0 0 0 0 0 0 0 0 14 0.0008 0 
4132 2 0.0263322 -0.0597772 -0.0100565 0 0 0 1.27228 -0.132359 1.39059 0.00717415 0.018506 -0.0254822 0 0 0 0 0 0 0 0 0 0 0 0 0 0 0 0 65 0.0008 0 
9557 4 0.0297301 -0.0601523 -0.00983698 0 0 0 -0.0253105 0.00177702 -0.00950654 9.83843e-07 -7.59347e-07 4.14234e-06 0 0 0 1 0 0 0 0 0 0 0 0 0 0 0 0 46 0.0008 0 
6537 6 0.0347839 -0.060132 -0.00994539 0 0 0 0.00209501 0.00165604 -0.00885397 -2.18097e-07 -2.754e-07 1.54141e-06 0 0 0 0 0 0 0 0 0 0 0 0 0 0 0 0 29 0.0008 0 
8211 15 0.0365994 -0.0601218 -0.00999988 0 0 0 -0.00970632 0.000500672 -0.00267835 1.12202e-18 -2.53692e-07 1.35713e-06 0 0 0 0 0 0 0 0 0 0 0 0 0 0 0 0 54 0.0008 0 
4489 4 0.0387377 -0.0601716 -0.00973372 0 0 0 0.0235017 0.00380422 -0.0203508 -5.87446e-19 -2.53692e-07 1.35713e-06 0 0 0 0 0 0 0 0 0 0 0 0 0 0 0 0 53 0.0008 0 
9184 3 0.040541 -0.060119 -0.0100152 0 0 0 0.036069 0.0120607 -0.064519 -3.65043e-20 -2.53692e-07 1.35713e-06 0 0 0 0 0 0 0 0 0 0 0 0 0 0 0 0 58 0.0008 0 
1313 4 0.043267 -0.0602657 -0.0092304 0 0 0 0.0536748 0.0124368 -0.0665307 -2.76236e-18 -2.53692e-07 1.35713e-06 0 0 0 0 0 0 0 0 0 0 0 0 0 0 0 0 39 0.0008 0 
15188 4 0.0465923 -0.0601968 -0.00959863 0 0 0 0.0275884 0.00132726 -0.00710023 8.14186e-18 -2.53692e-07 1.35713e-06 0 0 0 0 0 0 0 0 0 0 0 0 0 0 0 0 3 0.0008 0 
15967 2 0.0262858 -0.0580608 -0.00952694 0 0 0 -7.42215 -3.35358 25.2631 0 -1.05196e-05 0 0 0 0 0 0 0 0 0 0 0 0 0 0 0 0 0 21 0.0008 0 
18426 1 0.0373649 -0.0577637 -0.00896165 0 0 0 0.821427 -0.641062 6.92271 0 -1.05196e-05 0 0 0 0 0 0 0 0 0 0 0 0 0 0 0 0 0 0 0.0008 0 
12757 3 0.000800852 -0.0604124 -0.00844533 0 0 0 -0.000361595 3.62169e-05 0.000369551 -3.3004e-06 6.00808e-07 -1.44605e-06 0 0 0 0 0 0 1 0 0 0 0 0 0 0 0 0 23 0.0008 0 
7654 8 0.00230405 -0.0605602 -0.00765495 0 0 0 8.0573e-05 -1.16748e-05 0.000109564 -2.08988e-07 5.63962e-08 -5.70966e-07 0 0 0 0 0 0 0 2 0 0 0 0 0 0 0 0 68 0.0008 0 
17336 10 0.00372412 -0.0604248 -0.0083794 0 0 0 0.000370441 -0.000122738 0.000640369 1.00398e-07 -1.69524e-08 9.07607e-08 0 1 0 0 0 0 0 1 0 0 0 0 0 0 0 0 7 0.0008 0 
15828 4 0.00570204 -0.0605961 -0.00746269 0 0 0 -0.000292572 -0.000108607 0.000419316 8.84712e-08 5.59498e-08 1.69889e-06 0 1 0 1 0 0 0 0 0 0 0 0 0 0 0 0 4 0.0008 0 
17589 11 0.00732481 -0.0604836 -0.00806454 0 0 0 0.0087802 -0.000503249 0.00275291 -2.2471e-08 1.8958e-06 -4.02543e-07 0 0 0 1 0 0 0 0 0 0 1 0 0 0 0 0 9 0.0008 0 
15785 4 0.00932387 -0.0604126 -0.00844427 0 0 0 0.0354786 -0.00243638 0.0130735 7.55467e-11 -4.9107e-07 1.31127e-06 0 0 0 0 0 0 0 0 0 0 0 0 0 0 0 0 0 0.0008 0 
13527 2 0.016359 -0.0605753 -0.00757398 0 0 0 0.0375193 -0.00161285 0.00862798 -3.44671e-18 -2.53692e-07 1.35713e-06 0 0 0 0 0 0 0 0 0 0 0 0 0 0 0 0 7 0.0008 0 