ITEM: TIMESTEP
9200000
ITEM: NUMBER OF ATOMS
1130
ITEM: BOX BOUNDS ff ff ff
-0.01 0.45
-0.15 0.15
-0.08 0.1
ITEM: ATOMS id type x y z ix iy iz vx vy vz fx fy fz c_cc_1 c_cc_2 c_cc_3 c_cc_4 c_cc_5 c_cc_6 c_cc_7 c_cc_8 c_cc_9 c_cc_10 c_cc_11 c_cc_12 c_cc_13 c_cc_14 c_cc_15 c_cc_16 f_fppacc radius 
1138 3 0.0181285 -0.0577094 -0.00193895 0 0 0 0.681249 1.94051 18.1588 0 -0.000164368 0 0 0 0 0 0 0 0 0 0 0 0 0 0 0 0 0 0 0.002 
862 3 0.00754522 -0.00359755 -0.0554983 0 0 0 1.07674 -22.0626 -1.83634 0 -0.000164368 0 0 0 0 0 0 0 0 0 0 0 0 0 0 0 0 0 15 0.002 
574 5 0.0179256 0.0346271 -0.0271132 0 0 0 1.08341 -6.17806 0.458873 0 -0.000164368 0 0 0 0 0 0 0 0 0 0 0 0 0 0 0 0 0 17 0.002 
741 5 0.016684 0.0359947 -0.00693164 0 0 0 0.221998 -2.26906 -0.665108 0 -0.000164368 0 0 0 0 0 0 0 0 0 0 0 0 0 0 0 0 0 17 0.002 
640 1 0.0037603 0.0360239 0.00289304 0 0 0 0.965401 8.11163 -11.853 0 -0.000164368 0 0 0 0 0 0 0 0 0 0 0 0 0 0 0 0 0 16 0.002 
1100 2 0.00976489 0.0312174 0.0487133 0 0 0 -20.3941 36.4969 -20.7387 0 -0.000164368 0 0 0 0 0 0 0 0 0 0 0 0 0 0 0 0 0 0 0.002 
41 1 0.0151247 0.0528571 -0.0355 0 0 0 -3.19969e-205 -2.02677e-20 -3.9378e-12 5.34504e-205 1.35525e-20 0 0 0 0 0 0 0 0 0 0 0 0 0 0 0 0 0 1 0.002 
803 4 0.00422347 0.0645685 -0.0328038 0 0 0 1.40132 -0.789184 1.4854 0 -0.000164368 0 0 0 0 0 0 0 0 0 0 0 0 0 0 0 0 0 18 0.002 
535 3 0.00902961 0.0683237 -0.0324284 0 0 0 2.39948 -0.531257 -0.805313 0 -0.000164368 0 0 0 0 0 0 0 0 0 0 0 0 0 0 0 0 0 26 0.002 
686 5 0.00378588 0.0566839 -0.0307758 0 0 0 0.77722 -1.56024 2.65922 0 -0.000164368 0 0 0 0 0 0 0 0 0 0 0 0 0 0 0 0 0 26 0.002 
923 10 0.00376591 0.0594472 -0.0222709 0 0 0 0.190267 -0.209271 -3.47085 0 -0.000164368 0 0 0 0 0 0 0 0 0 0 0 0 0 0 0 0 0 12 0.002 
753 6 0.00350993 0.0592197 -0.0146015 0 0 0 -0.729868 -2.33925 -3.84011 0 -0.000164368 0 0 0 0 0 0 0 0 0 0 0 0 0 0 0 0 0 37 0.002 
731 2 0.00347533 0.0709632 -0.0146711 0 0 0 -0.455132 0.0678872 1.12677 0 -0.000164368 0 0 0 0 0 0 0 0 0 0 0 0 0 0 0 0 0 16 0.002 
878 12 0.0120119 0.0693231 -0.0127879 0 0 0 3.24388 1.11183 -4.16467 0 -0.000164368 0 0 0 0 0 0 0 0 0 0 0 0 0 0 0 0 0 10 0.002 
690 2 0.0132163 0.0623735 -0.00805516 0 0 0 8.30621 5.1038 -19.0038 0 -0.000164368 0 0 0 0 0 0 0 0 0 0 0 0 0 0 0 0 0 15 0.002 
1149 4 0.00538073 0.05056 -0.00100754 0 0 0 0.854434 -1.55337 -2.32764 0 -0.000164368 0 0 0 0 0 0 0 0 0 0 0 0 0 0 0 0 0 0 0.002 
647 3 0.00553412 0.0626267 0.000178576 0 0 0 3.6037 4.54092 -6.92047 0 -0.000164368 0 0 0 0 0 0 0 0 0 0 0 0 0 0 0 0 0 24 0.002 
321 7 0.0132087 0.0690659 0.000286265 0 0 0 0.468011 8.2291 -13.45 0 -0.000164368 0 0 0 0 0 0 0 0 0 0 0 0 0 0 0 0 0 19 0.002 
948 3 0.0177387 0.0732527 0.00460584 0 0 0 -0.933906 -0.616771 0.3397 0 -0.000164368 0 0 0 0 0 0 0 0 0 0 0 0 0 0 0 0 0 11 0.002 
417 1 0.00881017 0.0687938 0.00539571 0 0 0 0.84919 0.547603 -1.13803 0 -0.000164368 0 0 0 0 0 0 0 0 0 0 0 0 0 0 0 0 0 44 0.002 
457 6 0.00643884 0.0620775 0.00830257 0 0 0 -0.472635 -0.671393 -0.944839 0 -0.000164368 0 0 0 0 0 0 0 0 0 0 0 0 0 0 0 0 0 25 0.002 
521 6 0.00507057 0.0654269 0.0111927 0 0 0 -0.166298 -0.161372 -0.914141 0 -0.000164368 0 0 0 0 0 0 0 0 0 0 0 0 0 0 0 0 0 16 0.002 
859 6 0.00450285 0.072724 0.0111187 0 0 0 -0.290252 -0.107444 -0.755914 0 -0.000164368 0 0 0 0 0 0 0 0 0 0 0 0 0 0 0 0 0 21 0.002 
738 5 0.0129154 0.0403703 0.012312 0 0 0 0.137307 -1.76951 -0.707074 0 -0.000164368 0 0 0 0 0 0 0 0 0 0 0 0 0 0 0 0 0 8 0.002 
242 6 0.0118119 0.0710735 0.0137796 0 0 0 -2.25056 -2.63506 -0.694405 0 -0.000164368 0 0 0 0 0 0 0 0 0 0 0 0 0 0 0 0 0 32 0.002 
1027 1 0.00360984 0.0623792 0.0161218 0 0 0 0.0881039 0.464082 -1.58145 0 -0.000164368 0 0 0 0 0 0 0 0 0 0 0 0 0 0 0 0 0 3 0.002 
762 6 0.00330277 0.0693421 0.0150674 0 0 0 0.13014 -0.0675215 -0.456784 0 -0.000164368 0 0 0 0 0 0 0 0 0 0 0 0 0 0 0 0 0 30 0.002 
597 6 0.0108214 0.0482232 0.0173292 0 0 0 0.436258 -0.292744 0.0904416 0 -0.000164368 0 0 0 0 0 0 0 0 0 0 0 0 0 0 0 0 0 37 0.002 
557 5 0.00983783 0.0706475 0.0173072 0 0 0 -0.832832 -1.94241 0.86574 0.0139619 0.00736296 0.00941457 0 0 0 0 1 0 0 0 0 0 0 0 0 0 0 0 28 0.002 
831 4 0.00663996 0.0652187 0.0201214 0 0 0 0.35932 0.831163 -0.799724 -0.000411119 0.000489398 -4.63123e-05 0 0 0 1 0 0 0 0 0 0 0 0 0 0 0 0 8 0.002 
1039 3 0.00327351 0.0673497 0.020405 0 0 0 0.130511 0.571815 -0.399123 0.000411119 -0.000818135 4.63123e-05 0 0 0 1 0 0 0 0 0 0 0 0 0 0 0 0 5 0.002 
632 6 0.0119936 0.068773 0.0210832 0 0 0 0.0926973 -0.199975 -0.163866 0 -0.000164368 0 0 0 0 0 0 0 0 0 0 0 0 0 0 0 0 0 30 0.002 
916 8 0.00926888 0.0721445 0.0209721 0 0 0 0.609415 -0.0085192 0.827662 0.0680657 -0.0476107 -0.0293177 0 0 0 0 1 0 0 1 0 0 0 0 0 0 0 0 19 0.002 
922 5 0.00308545 0.0728674 0.0196778 0 0 0 0.121049 0.038182 -0.16171 0 -0.000164368 0 0 0 0 0 0 0 0 0 0 0 0 0 0 0 0 0 4 0.002 
337 8 0.00660291 0.0747619 0.0194133 0 0 0 -0.0919967 -0.233599 -0.217192 0 -0.000164368 0 0 0 0 0 0 0 0 0 0 0 0 0 0 0 0 0 35 0.002 
68 9 0.0165152 0.0734032 0.0193914 0 0 0 -0.46616 0.0180729 -0.315957 0 -0.000164368 0 0 0 0 0 0 0 0 0 0 0 0 0 0 0 0 0 48 0.002 
1092 4 0.00799311 0.0683954 0.0222239 0 0 0 0.0820138 0.607187 -0.0910854 0 -0.000164368 0 0 0 0 0 0 0 0 0 0 0 0 0 0 0 0 0 2 0.002 
809 1 0.00582253 0.072543 0.0227902 0 0 0 -0.0446524 0.453549 0.905238 0.0792688 -0.0432679 -0.0333827 1 0 0 0 0 0 0 1 0 0 0 0 0 0 0 0 14 0.002 
748 7 0.00335974 0.0592262 0.0237695 0 0 0 0.11735 -0.382057 -0.0544149 0 -0.000164368 0 0 0 0 0 0 0 0 0 0 0 0 0 0 0 0 0 23 0.002 
529 14 0.0139158 0.0610929 0.0241064 0 0 0 0.157089 0.145075 0.0212394 0 -0.000164368 0 0 0 0 0 0 0 0 0 0 0 0 0 0 0 0 0 43 0.002 
473 3 0.00668391 0.063791 0.0246238 0 0 0 0.082528 0.392286 -0.597273 0 -0.000164368 0 0 0 0 0 0 0 0 0 0 0 0 0 0 0 0 0 22 0.002 
807 5 0.0109119 0.064048 0.0243936 0 0 0 0.208429 0.603082 -0.340636 0 -0.000164368 0 0 0 0 0 0 0 0 0 0 0 0 0 0 0 0 0 23 0.002 
631 1 0.00299484 0.0693208 0.0239307 0 0 0 0.0363709 0.485788 -0.59044 0.00266156 -0.00120759 0.000826236 0 0 0 0 0 0 0 0 0 0 0 0 0 0 0 0 31 0.002 
546 1 0.0103427 0.0687542 0.0255104 0 0 0 0.169462 -0.189742 0.0812042 -0.00310057 -0.0113464 0.000125029 2 0 0 0 0 0 0 0 0 0 0 0 0 0 0 0 29 0.002 
917 8 0.0182568 0.0686601 0.0235375 0 0 0 0.00575775 0.00102846 -0.361883 0 -0.000164368 0 0 0 0 0 0 0 0 0 0 0 0 0 0 0 0 0 15 0.002 
305 5 0.0119917 0.0723596 0.0251699 0 0 0 0.0546544 -0.158874 0.0648529 0.0074369 0.0102104 -0.00141237 1 0 0 0 1 0 0 0 0 0 0 0 0 0 0 0 35 0.002 
896 1 0.0172618 0.0742311 0.0247389 0 0 0 0.0183334 -0.146506 0.0103799 0.000210618 0.0013657 -0.000384447 1 0 0 0 0 0 0 0 0 0 0 0 0 0 0 0 24 0.002 
929 3 0.00995681 0.0578215 0.0273805 0 0 0 -0.177788 -0.0710043 -0.092459 0 -0.000164368 0 0 0 0 0 0 0 0 0 0 0 0 0 0 0 0 0 23 0.002 
469 3 0.0141919 0.0592784 0.0278783 0 0 0 -0.0900462 -0.269544 0.0648949 0 -0.000164368 0 0 0 0 0 0 0 0 0 0 0 0 0 0 0 0 0 26 0.002 
2 6 0.0136787 0.063787 0.0276005 0 0 0 0.216576 -0.188617 -0.0622075 0 -0.000164368 0 0 0 0 0 0 0 0 0 0 0 0 0 0 0 0 0 28 0.002 
681 6 0.003107 0.065695 0.0265736 0 0 0 0.121837 -0.261847 0.177922 0.00759333 -0.00849948 -0.00369557 0 0 0 0 0 2 0 0 0 0 0 0 0 0 0 0 35 0.002 
1063 3 0.00655397 0.0676565 0.0260903 0 0 0 0.0412861 0.0899594 0.00217479 -0.00751269 -0.00658891 0.000908663 1 0 0 0 0 1 0 0 0 0 0 0 0 0 0 0 7 0.002 
967 2 0.0143206 0.0689077 0.0259651 0 0 0 0.315043 -0.233039 0.0216444 0.00101295 0.00101664 0.000392483 0 1 0 0 0 0 0 0 0 0 0 0 0 0 0 0 10 0.002 
1051 10 0.00378335 0.0724941 0.0262565 0 0 0 -0.015683 0.191466 0.0406245 0.00150732 -0.00971585 0.0236167 0 0 0 0 0 0 0 0 0 3 0 0 0 0 0 0 5 0.002 
828 2 0.00787963 0.0723049 0.0262325 0 0 0 -0.029194 -0.226775 -0.119016 0 -0.000164368 0 0 0 0 0 0 0 0 0 0 0 0 0 0 0 0 0 16 0.002 
12 9 0.0173824 0.0711288 0.0272544 0 0 0 0.300354 -0.0902248 0.0692753 -0.0040377 -0.00162931 -0.00372778 1 1 0 0 0 0 0 0 1 0 0 0 0 0 0 0 30 0.002 
898 1 0.00355547 0.0585749 0.028333 0 0 0 0.361694 -0.0599186 0.484451 -0.0321502 0.0125846 -0.0996395 2 0 0 0 0 0 0 0 0 0 0 0 0 0 0 0 16 0.002 
815 10 0.018122 0.0564078 0.0299142 0 0 0 -0.656483 -0.625924 -0.668178 0 -0.000164368 0 0 0 0 0 0 0 0 0 0 0 0 0 0 0 0 0 23 0.002 
813 6 0.00332561 0.0629422 0.029616 0 0 0 -0.247659 0.229265 -0.171115 -0.00985173 -0.00452983 -0.0267543 0 0 0 0 0 2 0 0 0 0 0 0 0 0 0 0 20 0.002 
783 3 0.00665671 0.0610974 0.028465 0 0 0 0.391724 0.591286 0.170134 -0.00169156 -0.00548663 -0.00572111 1 0 0 0 0 1 0 0 0 0 0 0 0 0 0 0 34 0.002 
1064 5 0.0107535 0.061062 0.0295867 0 0 0 0.0457131 -0.0943046 -0.0699904 -0.000155054 5.13413e-05 0.000648833 0 0 0 0 1 0 0 0 0 0 0 0 0 0 0 0 7 0.002 
414 7 0.00929938 0.0649747 0.0298362 0 0 0 0.265724 0.0861802 0.0849058 -0.0303372 -0.0147429 -0.0229356 0 0 0 0 0 0 2 0 0 0 0 0 0 0 0 0 35 0.002 
156 4 0.00567738 0.0666697 0.0298735 0 0 0 0.431835 0.517313 0.130478 0.000669444 -0.000809409 -0.000254171 0 0 0 1 0 0 1 0 0 0 0 0 0 0 0 0 31 0.002 
139 6 0.0125474 0.0672505 0.0292966 0 0 0 -0.0372339 -0.176514 -0.127742 0 -0.000164368 0 0 0 0 0 0 0 0 0 0 0 0 0 0 0 0 0 45 0.002 
1050 1 0.0165156 0.066859 0.0289503 0 0 0 0.0296433 -0.359294 -0.0275019 0 -0.000164368 0 0 0 0 0 0 0 0 0 0 0 0 0 0 0 0 0 6 0.002 
460 2 0.00298386 0.069228 0.0283944 0 0 0 0.0596516 0.0286986 -0.037982 0.00772514 -0.00784809 -0.00127491 0 1 0 1 0 1 0 0 0 1 0 0 0 0 0 0 36 0.002 
1073 6 0.00988842 0.0702385 0.0293747 0 0 0 0.0403568 -0.23233 0.00755081 0 -0.000164368 0 0 0 0 0 0 0 0 0 0 0 0 0 0 0 0 0 9 0.002 
709 1 0.00605325 0.0714139 0.029682 0 0 0 0.0615508 -0.0043529 0.0424488 0.00546319 0.0011739 0.00406754 1 1 0 0 0 0 0 0 0 0 0 0 0 0 0 0 25 0.002 
621 4 0.0140654 0.0709834 0.0296533 0 0 0 0.117702 -0.154135 0.00668264 0 -0.000164368 0 0 0 0 0 0 0 0 0 0 0 0 0 0 0 0 0 33 0.002 
427 6 0.00299925 0.0740169 0.0300223 0 0 0 0.00452645 -0.158669 -0.0107891 8.06989e-05 -0.000124986 8.78136e-06 0 0 0 0 0 0 0 0 0 0 0 0 0 0 0 0 28 0.002 
1044 10 0.0114434 0.0740284 0.0293191 0 0 0 0.0285544 -0.178661 -0.0172018 0 -0.000164368 0 0 0 0 0 0 0 0 0 0 0 0 0 0 0 0 0 7 0.002 
740 1 0.0161439 0.0745482 0.0291981 0 0 0 -0.0541816 -0.40125 0.00873828 -0.000139333 2.77212e-05 0.000282044 1 0 0 0 0 0 0 0 0 0 0 0 0 0 0 0 23 0.002 
189 5 0.0084469 0.0534755 0.0313909 0 0 0 -0.140945 -0.183988 -0.129769 0 -0.000164368 0 0 0 0 0 0 0 0 0 0 0 0 0 0 0 0 0 26 0.002 
380 3 0.00564427 0.0568437 0.0312051 0 0 0 0.112099 0.304124 0.0825386 0.0374656 -0.00828274 0.102471 1 0 0 0 0 0 0 0 0 0 0 0 0 0 0 0 18 0.002 
533 4 0.018081 0.0622301 0.0305004 0 0 0 -0.0640844 -0.165084 -0.0315066 0 -0.000164368 0 0 0 0 0 0 0 0 0 0 0 0 0 0 0 0 0 43 0.002 
716 5 0.00541068 0.0490243 0.0328533 0 0 0 1.4697 -0.624005 -0.357341 0 -0.000164368 0 0 0 0 0 0 0 0 0 0 0 0 0 0 0 0 0 14 0.002 
449 4 0.00308371 0.0537462 0.032634 0 0 0 -0.135223 0.00892518 -0.0180284 0 -0.000164368 0 0 0 0 0 0 0 0 0 0 0 0 0 0 0 0 0 21 0.002 
488 6 0.0124638 0.0555895 0.0325892 0 0 0 -0.39078 -0.249633 -0.270219 0 -0.000164368 0 0 0 0 0 0 0 0 0 0 0 0 0 0 0 0 0 32 0.002 
902 3 0.00300118 0.0600253 0.0329991 0 0 0 0.00427705 -0.298176 -0.00500199 0 -0.000164368 0 0 0 0 0 0 0 0 0 0 0 0 0 0 0 0 0 11 0.002 
144 9 0.0125123 0.0597084 0.0329571 0 0 0 0.070364 0.0729672 0.118917 -0.00126208 -0.0138978 -0.000113862 0 0 0 0 0 0 0 0 1 0 0 0 0 0 0 0 43 0.002 
860 11 0.00915786 0.0623865 0.0330032 0 0 0 0.01904 -0.0333593 -0.0421509 -0.000123914 -5.89099e-05 -0.000284325 0 0 0 0 1 0 0 0 0 0 0 0 0 0 0 0 21 0.002 
705 14 0.0146134 0.0630988 0.0329047 0 0 0 -0.15154 0.0477725 -0.0246199 0.00503865 0.00477268 -0.0013995 0 0 0 0 0 0 0 0 1 0 0 0 0 1 0 0 27 0.002 
301 5 0.00528203 0.0634834 0.0330216 0 0 0 -0.092114 0.294134 -0.119425 -0.00491009 0.00473749 -0.00532847 0 0 0 0 0 1 0 0 0 0 0 0 0 0 0 0 37 0.002 
452 8 0.0032137 0.0671138 0.0329974 0 0 0 0.00919252 0.115135 -0.00536665 -0.000542656 -0.00520838 0.0025264 0 0 0 0 0 0 0 1 0 0 0 0 0 0 0 0 31 0.002 
1004 3 0.0116136 0.0657357 0.0329728 0 0 0 0.00549745 -0.0428271 0.0406555 0.0260234 0.0235286 0.024761 0 0 0 0 0 0 1 0 0 0 0 0 0 1 0 0 15 0.002 
207 2 0.015581 0.0669925 0.0330036 0 0 0 0.108894 0.279932 0.00641744 -0.0140862 -0.0104302 -0.00229205 0 1 0 0 0 0 0 0 0 0 0 0 0 0 0 0 31 0.002 
1000 4 0.00789534 0.0692941 0.0329641 0 0 0 -0.025132 -0.192404 -0.00173477 0 -0.000164368 0 0 0 0 0 0 0 0 0 0 0 0 0 0 0 0 0 8 0.002 
638 6 0.0120697 0.0697142 0.0329677 0 0 0 -0.0560294 -0.112466 -0.0394302 0 -0.000164368 0 0 0 0 0 0 0 0 0 0 0 0 0 0 0 0 0 22 0.002 
360 2 0.00308782 0.0711059 0.0329255 0 0 0 -0.177693 0.0311179 0.0610352 -0.00253517 0.000253391 -0.00382771 0 1 0 0 0 0 0 1 0 0 0 0 0 0 0 0 17 0.002 
128 4 0.0163537 0.070998 0.0329753 0 0 0 0.0284049 -0.239605 0.0138404 0 -0.000164368 0 0 0 0 0 0 0 0 0 0 0 0 0 0 0 0 0 27 0.002 
257 6 0.00568042 0.0741338 0.0329911 0 0 0 0.0584306 -0.0856742 -0.0211584 -0.00195193 -0.00693051 0.00368069 0 1 0 0 0 2 0 0 0 0 0 0 0 0 0 0 26 0.002 
519 1 0.00951713 0.0729691 0.0329062 0 0 0 -0.00746608 -0.208079 0.0030331 0 -0.000164368 0 0 0 0 0 0 0 0 0 0 0 0 0 0 0 0 0 28 0.002 
928 2 0.0134475 0.0737772 0.0329878 0 0 0 0.0082331 -0.243044 -0.00819648 0 -0.000164368 0 0 0 0 0 0 0 0 0 0 0 0 0 0 0 0 0 17 0.002 
814 13 0.0173183 0.0749085 0.0330029 0 0 0 0.0186356 -0.239983 -0.00344038 -0.000499997 0.000267018 -0.000174612 1 0 0 0 0 0 0 0 0 0 0 0 1 0 0 0 31 0.002 
65 2 0.0138786 0.094388 -0.0326083 0 0 0 0.397474 -1.37225 0.143969 0 -0.000164368 0 0 0 0 0 0 0 0 0 0 0 0 0 0 0 0 0 18 0.002 
887 1 0.0186492 0.100674 -0.0324265 0 0 0 0.445302 -0.10538 -0.000661747 0 -0.000164368 0 0 0 0 0 0 0 0 0 0 0 0 0 0 0 0 0 7 0.002 
786 1 0.013637 0.101174 -0.0329474 0 0 0 -0.366158 -1.57968 -0.0972344 0 -0.000164368 0 0 0 0 0 0 0 0 0 0 0 0 0 0 0 0 0 28 0.002 
1117 1 0.00897045 0.106651 -0.0322121 0 0 0 -0.845676 0.074784 -0.494733 0 -0.000164368 0 0 0 0 0 0 0 0 0 0 0 0 0 0 0 0 0 0 0.002 
756 2 0.0106979 0.0802999 -0.0298673 0 0 0 3.13967 0.578142 0.566926 0 -0.000164368 0 0 0 0 0 0 0 0 0 0 0 0 0 0 0 0 0 21 0.002 
1008 4 0.00832295 0.0947294 -0.0294172 0 0 0 1.47626 -0.693474 -0.263918 0 -0.000164368 0 0 0 0 0 0 0 0 0 0 0 0 0 0 0 0 0 5 0.002 
704 9 0.00297094 0.0968045 -0.0306764 0 0 0 0.175394 -0.656327 0.0768909 0.0541452 0.026866 -0.00151082 0 0 0 0 0 0 0 0 0 0 0 0 0 0 0 0 20 0.002 
503 7 0.0148843 0.107825 -0.0293552 0 0 0 0.612828 -0.0497953 -0.719677 0 -0.000164368 0 0 0 0 0 0 0 0 0 0 0 0 0 0 0 0 0 24 0.002 
369 6 0.00671777 0.0986053 -0.0291766 0 0 0 -1.95995 -1.2789 1.23876 0 -0.000164368 0 0 0 0 0 0 0 0 0 0 0 0 0 0 0 0 0 27 0.002 
636 8 0.00923606 0.10591 -0.0270298 0 0 0 0.301955 -0.339858 -0.043437 0 -0.000164368 0 0 0 0 0 0 0 0 0 0 0 0 0 0 0 0 0 10 0.002 
906 5 0.00382043 0.0866835 -0.0265674 0 0 0 0.508726 1.91842 0.988458 0 -0.000164368 0 0 0 0 0 0 0 0 0 0 0 0 0 0 0 0 0 19 0.002 
430 4 0.0123189 0.0985305 -0.0237886 0 0 0 -1.02462 -1.68828 -0.504605 0 -0.000164368 0 0 0 0 0 0 0 0 0 0 0 0 0 0 0 0 0 36 0.002 
314 6 0.0169405 0.0992501 -0.0243339 0 0 0 0.0473784 0.804017 0.864074 0 -0.000164368 0 0 0 0 0 0 0 0 0 0 0 0 0 0 0 0 0 17 0.002 
764 4 0.0040905 0.105839 -0.0226848 0 0 0 0.0923916 -0.10435 0.912307 0 -0.000164368 0 0 0 0 0 0 0 0 0 0 0 0 0 0 0 0 0 31 0.002 
904 3 0.00375678 0.0787157 -0.0222117 0 0 0 0.330055 1.38028 1.11447 0 -0.000164368 0 0 0 0 0 0 0 0 0 0 0 0 0 0 0 0 0 8 0.002 
188 6 0.0041903 0.0787705 -0.0179689 0 0 0 -0.165195 2.15067 1.27839 0 -0.000164368 0 0 0 0 0 0 0 0 0 0 0 0 0 0 0 0 0 39 0.002 
544 2 0.0153366 0.0951405 -0.0192583 0 0 0 1.19588 -0.348961 0.0188702 0 -0.000164368 0 0 0 0 0 0 0 0 0 0 0 0 0 0 0 0 0 32 0.002 
900 1 0.0106737 0.0988599 -0.017889 0 0 0 0.0194836 0.59012 -0.587311 0 -0.000164368 0 0 0 0 0 0 0 0 0 0 0 0 0 0 0 0 0 15 0.002 
1107 3 0.0144339 0.099551 -0.0199183 0 0 0 1.15474 0.614974 -0.2554 0 -0.000164368 0 0 0 0 0 0 0 0 0 0 0 0 0 0 0 0 0 0 0.002 
235 3 0.00688758 0.103519 -0.019573 0 0 0 -1.08822 5.43307 1.48134 0 -0.000164368 0 0 0 0 0 0 0 0 0 0 0 0 0 0 0 0 0 36 0.002 
1119 4 0.00651325 0.107936 -0.0187311 0 0 0 0.319021 0.776651 0.640696 0 -0.000164368 0 0 0 0 0 0 0 0 0 0 0 0 0 0 0 0 0 0 0.002 
18 3 0.0043111 0.085258 -0.015204 0 0 0 0.675389 5.81462 -4.78836 0 -0.000164368 0 0 0 0 0 0 0 0 0 0 0 0 0 0 0 0 0 27 0.002 
353 6 0.0155596 0.0999548 -0.0152622 0 0 0 0.39839 0.14498 1.12512 0 -0.000164368 0 0 0 0 0 0 0 0 0 0 0 0 0 0 0 0 0 14 0.002 
1131 5 0.00406617 0.102462 -0.0146395 0 0 0 -2.84313 2.75664 4.25685 0 -0.000164368 0 0 0 0 0 0 0 0 0 0 0 0 0 0 0 0 0 0 0.002 
834 3 0.0101811 0.103479 -0.0148777 0 0 0 0.818252 -0.635846 -2.89956 0 -0.000164368 0 0 0 0 0 0 0 0 0 0 0 0 0 0 0 0 0 24 0.002 
1146 2 0.0171676 0.104555 -0.0135197 0 0 0 1.78522 1.08266 0.740475 0 -0.000164368 0 0 0 0 0 0 0 0 0 0 0 0 0 0 0 0 0 0 0.002 
195 7 0.00814867 0.107146 -0.0149332 0 0 0 0.50432 -0.308504 0.809893 0 -0.000164368 0 0 0 0 0 0 0 0 0 0 0 0 0 0 0 0 0 31 0.002 
434 14 0.00373017 0.107864 -0.0146307 0 0 0 0.569099 -0.138523 -0.202818 0 -0.000164368 0 0 0 0 0 0 0 0 0 0 0 0 0 0 0 0 0 37 0.002 
653 9 0.00602396 0.10611 -0.0116345 0 0 0 0.343327 0.0638851 0.43733 0 -0.000164368 0 0 0 0 0 0 0 0 0 0 0 0 0 0 0 0 0 17 0.002 
856 11 0.0169477 0.0864065 -0.0106091 0 0 0 0.211471 0.00176034 3.04855 0 -0.000164368 0 0 0 0 0 0 0 0 0 0 0 0 0 0 0 0 0 20 0.002 
107 2 0.0172105 0.102511 -0.00924982 0 0 0 -0.172868 1.01644 1.49097 0 -0.000164368 0 0 0 0 0 0 0 0 0 0 0 0 0 0 0 0 0 9 0.002 
1114 1 0.0141768 0.107695 -0.0101763 0 0 0 1.59519 -0.329062 0.377401 0 -0.000164368 0 0 0 0 0 0 0 0 0 0 0 0 0 0 0 0 0 1 0.002 
634 2 0.0186334 0.108052 -0.00881303 0 0 0 1.7167 0.378238 1.48 -0.113249 -0.243409 -0.0443462 0 0 0 0 0 0 0 0 0 0 0 0 0 0 0 0 21 0.002 
344 1 0.0132862 0.0826549 -0.00714277 0 0 0 -1.5537 -1.51455 0.783756 0 -0.000164368 0 0 0 0 0 0 0 0 0 0 0 0 0 0 0 0 0 28 0.002 
825 1 0.00316107 0.0941803 -0.00661058 0 0 0 0.101832 -0.527303 -0.732933 0 -0.000164368 0 0 0 0 0 0 0 0 0 0 0 0 0 0 0 0 0 19 0.002 
385 7 0.0118365 0.0948985 -0.00625462 0 0 0 0.290194 -1.06333 1.31727 0 -0.000164368 0 0 0 0 0 0 0 0 0 0 0 0 0 0 0 0 0 27 0.002 
74 5 0.0184468 0.094586 -0.00636799 0 0 0 -0.357327 -0.919644 0.0545112 0.0199463 -0.0182757 0.0101243 0 0 0 0 1 0 0 0 0 0 0 0 0 0 0 0 33 0.002 
176 2 0.0156239 0.096686 -0.00820135 0 0 0 -0.388013 -0.493422 0.422649 -0.0199463 0.017947 -0.0101243 0 0 0 0 1 0 0 0 0 0 0 0 0 0 0 0 23 0.002 
410 6 0.00712164 0.106593 -0.00639123 0 0 0 -0.652456 -0.547431 -0.0218651 0 -0.000164368 0 0 0 0 0 0 0 0 0 0 0 0 0 0 0 0 0 18 0.002 
1129 5 0.00731328 0.103069 -0.00310798 0 0 0 -0.0550505 -0.250251 -0.317844 0 -0.000164368 0 0 0 0 0 0 0 0 0 0 0 0 0 0 0 0 0 1 0.002 
69 6 0.0174197 0.101655 -0.00178317 0 0 0 0.761524 -0.26873 1.05204 0 -0.000164368 0 0 0 0 0 0 0 0 0 0 0 0 0 0 0 0 0 25 0.002 
182 2 0.0118482 0.0794935 -0.000968553 0 0 0 1.07252 -1.10378 -0.793116 0 -0.000164368 0 0 0 0 0 0 0 0 0 0 0 0 0 0 0 0 0 31 0.002 
1147 9 0.00620561 0.0960334 -0.000959249 0 0 0 0.785058 -1.08867 0.47334 0 -0.000164368 0 0 0 0 0 0 0 0 0 0 0 0 0 0 0 0 0 0 0.002 
1033 2 0.00899052 0.100209 -0.000547814 0 0 0 0.798768 -0.409054 0.407534 0 -0.000164368 0 0 0 0 0 0 0 0 0 0 0 0 0 0 0 0 0 11 0.002 
288 1 0.00314096 0.105045 0.00296082 0 0 0 0.081575 0.00705973 0.166541 0 -0.000164368 0 0 0 0 0 0 0 0 0 0 0 0 0 0 0 0 0 24 0.002 
581 6 0.0157162 0.103501 0.00143146 0 0 0 0.398727 -1.59615 0.329123 -0.0535262 -0.0229955 -0.0962205 0 0 0 0 0 1 0 0 0 0 0 0 0 0 0 0 36 0.002 
355 5 0.0070063 0.107662 0.002076 0 0 0 -0.29825 -0.0138472 0.658828 0 -0.000164368 0 0 0 0 0 0 0 0 0 0 0 0 0 0 0 0 0 25 0.002 
707 2 0.016648 0.107732 0.0024319 0 0 0 -0.300122 -0.219723 0.750384 0 -0.000164368 0 0 0 0 0 0 0 0 0 0 0 0 0 0 0 0 0 28 0.002 
274 4 0.00622413 0.0915532 0.00310398 0 0 0 1.41244 2.94528 -1.35716 0 -0.000164368 0 0 0 0 0 0 0 0 0 0 0 0 0 0 0 0 0 30 0.002 
1077 1 0.00419271 0.0995214 0.00327164 0 0 0 0.0859978 -0.199326 0.0591893 0 -0.000164368 0 0 0 0 0 0 0 0 0 0 0 0 0 0 0 0 0 4 0.002 
550 10 0.0182583 0.102697 0.00430796 0 0 0 1.17775 1.63981 0.931048 0.0592423 0.0194205 0.0821472 0 0 0 0 0 1 0 0 0 1 0 0 0 0 0 0 27 0.002 
1124 4 0.00966327 0.105646 0.0045055 0 0 0 0.0183967 -0.300832 0.237829 0 -0.000164368 0 0 0 0 0 0 0 0 0 0 0 0 0 0 0 0 0 0 0.002 
742 3 0.00866596 0.0824658 0.0057079 0 0 0 0.537367 1.30614 -0.988255 0 -0.000164368 0 0 0 0 0 0 0 0 0 0 0 0 0 0 0 0 0 17 0.002 
570 1 0.00391331 0.096426 0.00601173 0 0 0 0.0972636 -0.116707 0.232539 0 -0.000164368 0 0 0 0 0 0 0 0 0 0 0 0 0 0 0 0 0 32 0.002 
402 1 0.0117675 0.0969131 0.00727346 0 0 0 0.481072 -0.277622 0.247033 0 -0.000164368 0 0 0 0 0 0 0 0 0 0 0 0 0 0 0 0 0 30 0.002 
511 2 0.00798045 0.0994275 0.00763233 0 0 0 0.165021 -0.390534 0.0818935 0 -0.000164368 0 0 0 0 0 0 0 0 0 0 0 0 0 0 0 0 0 22 0.002 
505 2 0.00330867 0.103614 0.0069867 0 0 0 0.035775 -0.0824836 0.236051 0 -0.000164368 0 0 0 0 0 0 0 0 0 0 0 0 0 0 0 0 0 31 0.002 
589 5 0.0158343 0.104567 0.00677158 0 0 0 -0.525303 1.30567 1.54867 -0.00571605 0.0030819 0.0140733 0 0 0 0 0 0 0 0 0 1 0 0 0 0 0 0 27 0.002 
1011 6 0.00683251 0.107851 0.0067734 0 0 0 0.0737614 -0.00950574 0.178383 0 -0.000164368 0 0 0 0 0 0 0 0 0 0 0 0 0 0 0 0 0 10 0.002 
1135 5 0.0156899 0.0984139 0.0093833 0 0 0 0.513708 0.309563 0.118601 0 -0.000164368 0 0 0 0 0 0 0 0 0 0 0 0 0 0 0 0 0 1 0.002 
183 9 0.00314146 0.100286 0.00929095 0 0 0 -0.030435 -0.114706 0.221474 0 -0.000164368 0 0 0 0 0 0 0 0 0 0 0 0 0 0 0 0 0 23 0.002 
657 3 0.00851577 0.104264 0.00851256 0 0 0 -0.296821 -0.176401 0.498545 0 -0.000164368 0 0 0 0 0 0 0 0 0 0 0 0 0 0 0 0 0 16 0.002 
1071 3 0.00304589 0.10747 0.00804929 0 0 0 0.0727257 0.0110548 -0.00277257 0 -0.000164368 0 0 0 0 0 0 0 0 0 0 0 0 0 0 0 0 0 1 0.002 
1024 5 0.0104482 0.107951 0.00933106 0 0 0 -0.225878 0.092159 -0.154646 0 -0.000164368 0 0 0 0 0 0 0 0 0 0 0 0 0 0 0 0 0 1 0.002 
972 3 0.00320502 0.0908891 0.0117063 0 0 0 0.0883625 -0.696523 0.5684 0 -0.000164368 0 0 0 0 0 0 0 0 0 0 0 0 0 0 0 0 0 10 0.002 
231 7 0.0111311 0.0924798 0.0104141 0 0 0 -0.416809 0.234853 0.269859 0 -0.000164368 0 0 0 0 0 0 0 0 0 0 0 0 0 0 0 0 0 31 0.002 
554 3 0.00331678 0.0963345 0.0100591 0 0 0 0.00955124 -0.149974 0.119508 0 -0.000164368 0 0 0 0 0 0 0 0 0 0 0 0 0 0 0 0 0 8 0.002 
118 2 0.0105515 0.097851 0.0111997 0 0 0 0.11006 0.203658 -0.0949243 -0.000821806 0.000708976 0.00148557 0 1 0 0 0 0 0 0 0 0 0 0 0 0 0 0 29 0.002 
206 6 0.00339822 0.102981 0.0122428 0 0 0 0.0169366 -0.0542144 0.165337 0 -0.000164368 0 0 0 0 0 0 0 0 0 0 0 0 0 0 0 0 0 31 0.002 
699 9 0.00786609 0.101029 0.0115302 0 0 0 -0.242042 0.00869036 0.0571531 0 -0.000164368 0 0 0 0 0 0 0 0 0 0 0 0 0 0 0 0 0 14 0.002 
693 8 0.0130199 0.101041 0.010954 0 0 0 0.027524 0.0620898 0.0505568 0 -0.000164368 0 0 0 0 0 0 0 0 0 0 0 0 0 0 0 0 0 19 0.002 
669 1 0.00299254 0.107012 0.0120398 0 0 0 -0.0566218 -0.0914039 0.051298 0.0105535 0.00161926 -0.00262181 2 0 0 0 0 0 0 0 0 0 0 0 0 0 0 0 36 0.002 
250 5 0.00677514 0.107609 0.0109261 0 0 0 -0.0502266 -0.0243129 -0.0674166 0.00526311 -0.000421469 -0.000433983 1 0 0 0 0 0 0 0 0 0 0 0 0 0 0 0 34 0.002 
778 4 0.0161187 0.105558 0.0113295 0 0 0 0.101022 0.0408409 0.343396 0 -0.000164368 0 0 0 0 0 0 0 0 0 0 0 0 0 0 0 0 0 17 0.002 
572 3 0.00932278 0.0789447 0.0122632 0 0 0 -0.168912 -0.698222 -0.0328959 0 -0.000164368 0 0 0 0 0 0 0 0 0 0 0 0 0 0 0 0 0 19 0.002 
1105 7 0.00985131 0.085363 0.0132472 0 0 0 0.474624 -0.712061 0.288017 0 -0.000164368 0 0 0 0 0 0 0 0 0 0 0 0 0 0 0 0 0 0 0.002 
543 1 0.00373331 0.0873408 0.013961 0 0 0 0.349678 -0.473703 0.166831 -0.00410317 -0.000383575 -0.000684637 1 0 0 0 0 0 0 0 0 0 0 0 0 0 0 0 28 0.002 
720 4 0.00743691 0.0885564 0.0131 0 0 0 0.51441 -0.640114 0.605833 0.00410317 5.48385e-05 0.000684637 1 0 0 0 0 0 0 0 0 0 0 0 0 0 0 0 14 0.002 
230 6 0.00557054 0.0944726 0.0131528 0 0 0 0.246643 -0.183074 0.119306 0 -0.000164368 0 0 0 0 0 0 0 0 0 0 0 0 0 0 0 0 0 39 0.002 
245 1 0.00826071 0.0979415 0.0144717 0 0 0 0.0685259 0.00949163 0.00280672 0.000821806 -0.00103771 -0.00148557 0 1 0 0 0 0 0 0 0 0 0 0 0 0 0 0 28 0.002 
9 6 0.00338429 0.0991042 0.0133078 0 0 0 0.0159522 -0.103313 0.160722 0 -0.000164368 0 0 0 0 0 0 0 0 0 0 0 0 0 0 0 0 0 36 0.002 
437 8 0.0170652 0.101588 0.0137897 0 0 0 0.422256 0.539563 -0.0284327 0 -0.000164368 0 0 0 0 0 0 0 0 0 0 0 0 0 0 0 0 0 30 0.002 
54 6 0.0104913 0.104196 0.0129598 0 0 0 0.0687135 -0.0758552 0.0705939 0 -0.000164368 0 0 0 0 0 0 0 0 0 0 0 0 0 0 0 0 0 33 0.002 
766 7 0.0129706 0.107999 0.0125213 0 0 0 -0.0926433 -0.100989 -0.215713 0 -0.000164368 0 0 0 0 0 0 0 0 0 0 0 0 0 0 0 0 0 22 0.002 
381 2 0.00454001 0.0752313 0.0159101 0 0 0 -0.703342 -0.357388 0.00212159 0 -0.000164368 0 0 0 0 0 0 0 0 0 0 0 0 0 0 0 0 0 31 0.002 
1091 5 0.00885858 0.076602 0.0158393 0 0 0 -0.401014 -1.12407 0.67565 0.0102921 -0.0235109 -0.00482533 0 0 0 0 1 0 0 0 0 0 0 0 0 0 0 0 7 0.002 
512 7 0.0162796 0.0761168 0.0153881 0 0 0 -0.132931 0.0999951 -0.513391 0 -0.000164368 0 0 0 0 0 0 0 0 0 0 0 0 0 0 0 0 0 29 0.002 
400 7 0.0136912 0.0789368 0.0166676 0 0 0 -0.212363 -0.053829 -0.189871 1.84612e-05 -0.000194935 -1.2946e-05 0 0 0 0 0 0 1 0 0 0 0 0 0 0 0 0 34 0.002 
403 8 0.0073458 0.0801764 0.0166679 0 0 0 0.0133864 -0.679435 -0.0923889 -0.0102921 0.0231821 0.00482533 0 0 0 0 1 0 0 0 0 0 0 0 0 0 0 0 28 0.002 
368 5 0.00658575 0.0912727 0.0164216 0 0 0 0.166456 -0.165965 0.394663 -0.00789165 0.0038195 -0.0361793 0 0 0 0 1 0 0 0 0 0 0 0 0 0 0 0 29 0.002 
211 2 0.0103497 0.0912558 0.0147617 0 0 0 0.0951736 -0.344221 0.0777844 0 -0.000164368 0 0 0 0 0 0 0 0 0 0 0 0 0 0 0 0 0 17 0.002 
789 5 0.0114445 0.0955349 0.0162063 0 0 0 0.0767842 -0.0995527 -0.0426697 0 -0.000164368 0 0 0 0 0 0 0 0 0 0 0 0 0 0 0 0 0 22 0.002 
730 3 0.00323337 0.0963913 0.0162448 0 0 0 0.0605235 -0.0770648 0.177925 0 -0.000164368 0 0 0 0 0 0 0 0 0 0 0 0 0 0 0 0 0 13 0.002 
397 3 0.0154417 0.0966924 0.0167191 0 0 0 0.0675308 -0.343833 0.0869757 0 -0.000164368 0 0 0 0 0 0 0 0 0 0 0 0 0 0 0 0 0 37 0.002 
375 4 0.0132093 0.0994736 0.0146998 0 0 0 0.203399 -0.284627 -0.0185052 0 -0.000164368 0 0 0 0 0 0 0 0 0 0 0 0 0 0 0 0 0 25 0.002 
769 5 0.00703091 0.101752 0.0153813 0 0 0 -0.0255923 -0.0029944 0.125265 0 -0.000164368 0 0 0 0 0 0 0 0 0 0 0 0 0 0 0 0 0 16 0.002 
1036 6 0.00301273 0.103991 0.0161086 0 0 0 0.0140556 0.0378413 0.193619 0.000108087 0.00129077 7.22292e-05 0 0 0 0 0 1 0 0 0 0 0 0 0 0 0 0 16 0.002 
654 3 0.0143439 0.10424 0.0150952 0 0 0 -0.215813 -0.0198325 0.197426 0 -0.000164368 0 0 0 0 0 0 0 0 0 0 0 0 0 0 0 0 0 31 0.002 
1113 4 0.00661443 0.105746 0.0157273 0 0 0 0.00546669 0.02195 0.0190248 0 -0.000164368 0 0 0 0 0 0 0 0 0 0 0 0 0 0 0 0 0 2 0.002 
130 1 0.0103197 0.107388 0.0155102 0 0 0 0.0662487 0.0101371 0.0584738 0 -0.000164368 0 0 0 0 0 0 0 0 0 0 0 0 0 0 0 0 0 25 0.002 
931 4 0.00300401 0.107991 0.0159149 0 0 0 0.00120219 -0.0133205 0.0372977 -0.000629301 -1.67048e-05 0.000698955 1 0 0 0 0 0 0 0 0 0 0 0 0 0 0 0 12 0.002 
359 3 0.0141455 0.107965 0.0165721 0 0 0 -0.230175 0.273249 -0.0420452 0 -0.000164368 0 0 0 0 0 0 0 0 0 0 0 0 0 0 0 0 0 29 0.002 
77 12 0.0107934 0.0807517 0.0187332 0 0 0 -0.178159 -0.207531 0.103192 -1.84612e-05 -0.000133801 1.2946e-05 0 0 0 0 0 0 1 0 0 0 0 0 0 0 0 0 34 0.002 
1040 3 0.0131723 0.0843709 0.0174465 0 0 0 -0.349535 -0.0493834 -0.0546907 0.0199459 -0.0165483 -0.00592174 0 0 0 0 0 0 0 0 0 0 0 0 0 0 0 0 12 0.002 
984 3 0.0093168 0.0853394 0.0177192 0 0 0 -0.164316 -0.500836 0.15714 -0.0199459 0.0162196 0.00592174 0 0 0 0 0 0 0 0 0 0 0 0 0 0 0 0 14 0.002 
591 9 0.0168685 0.0872419 0.0172012 0 0 0 -0.386189 -0.599227 -0.157547 0 -0.000164368 0 0 0 0 0 0 0 0 0 0 0 0 0 0 0 0 0 13 0.002 
53 3 0.00300558 0.0892115 0.0174301 0 0 0 -0.0161211 -0.342549 0.0503974 0 -0.000164368 0 0 0 0 0 0 0 0 0 0 0 0 0 0 0 0 0 34 0.002 
252 6 0.00976551 0.0894912 0.0183121 0 0 0 0.179333 -0.330882 0.161162 -0.00104412 -0.00161161 0.000718953 0 0 0 0 0 1 0 0 0 0 0 0 0 0 0 0 18 0.002 
876 14 0.0142799 0.0914075 0.0177186 0 0 0 -0.259894 -0.448505 0.645349 -0.0304924 -0.0288244 0.00614472 0 0 0 0 0 0 0 0 0 0 0 0 0 1 0 0 9 0.002 
287 6 0.0179785 0.0927703 0.0175872 0 0 0 0.202031 -0.217797 -0.0440049 0.0304924 0.0284957 -0.00614472 0 0 0 0 0 0 0 0 0 0 0 0 0 1 0 0 22 0.002 
841 3 0.00759114 0.0949555 0.0176271 0 0 0 0.175958 0.0178873 0.00156168 0 -0.000164368 0 0 0 0 0 0 0 0 0 0 0 0 0 0 0 0 0 18 0.002 
830 7 0.00378057 0.100284 0.0173824 0 0 0 -0.0838091 -0.0279412 0.14463 -0.000108087 -0.00161951 -7.22292e-05 0 0 0 0 0 1 0 0 0 0 0 0 0 0 0 0 25 0.002 
624 7 0.00993339 0.0999382 0.0175109 0 0 0 -0.112798 0.150759 0.0249123 -0.00294182 -0.00190234 -0.000249217 0 0 0 0 0 0 1 0 0 0 0 0 0 0 0 0 21 0.002 
798 4 0.0172861 0.10041 0.0179623 0 0 0 0.107698 -0.21046 0.252852 -0.00485839 0.00856951 -0.0158292 0 0 0 2 0 0 0 0 0 0 0 0 0 0 0 0 17 0.002 
261 1 0.0134699 0.101643 0.0182292 0 0 0 0.0210618 -0.0636857 0.0375138 0.00286682 0.0013337 0.000839904 1 0 0 0 0 0 1 0 0 0 0 0 0 0 0 0 25 0.002 
501 2 0.0101731 0.104029 0.0183528 0 0 0 -0.037307 0.0703827 -0.0795424 0 -0.000164368 0 0 0 0 0 0 0 0 0 0 0 0 0 0 0 0 0 7 0.002 
760 3 0.00301249 0.0769144 0.019694 0 0 0 0.00300403 -0.203861 -0.126497 0 -0.000164368 0 0 0 0 0 0 0 0 0 0 0 0 0 0 0 0 0 19 0.002 
534 13 0.011505 0.0754424 0.0198233 0 0 0 -0.0112217 -0.104261 -0.256576 0 -0.000164368 0 0 0 0 0 0 0 0 0 0 0 0 0 0 0 0 0 26 0.002 
167 2 0.0185769 0.0765979 0.0209734 0 0 0 -0.147309 -0.0398962 -0.126653 0.000136951 -0.000236506 6.57497e-05 0 1 0 0 0 0 0 0 0 0 0 0 0 0 0 0 26 0.002 
214 8 0.00761679 0.0788011 0.0204318 0 0 0 -0.166541 -0.394649 0.101722 -0.00125108 -0.000234865 0.000122941 0 0 0 0 0 0 0 1 0 0 0 0 0 0 0 0 5 0.002 
1093 3 0.0147056 0.0776032 0.0209896 0 0 0 -0.124355 0.0179782 -0.0831482 -0.000136951 -9.22307e-05 -6.57497e-05 0 1 0 0 0 0 0 0 0 0 0 0 0 0 0 0 8 0.002 
55 4 0.00380808 0.0813197 0.019133 0 0 0 -0.492835 0.0820045 0.460321 0 -0.000164368 0 0 0 0 0 0 0 0 0 0 0 0 0 0 0 0 0 18 0.002 
527 8 0.00723045 0.0829416 0.0205115 0 0 0 -0.386452 -0.367606 0.39383 0 -0.000164368 0 0 0 0 0 0 0 0 0 0 0 0 0 0 0 0 0 25 0.002 
792 2 0.00419063 0.0855875 0.0198169 0 0 0 -0.212267 -0.0899071 -0.0445878 0 -0.000164368 0 0 0 0 0 0 0 0 0 0 0 0 0 0 0 0 0 13 0.002 