ITEM: TIMESTEP
9850000
ITEM: NUMBER OF ATOMS
1209
ITEM: BOX BOUNDS ff ff ff
-0.01 0.45
-0.15 0.15
-0.08 0.1
ITEM: ATOMS id type x y z ix iy iz vx vy vz fx fy fz c_cc_1 c_cc_2 c_cc_3 c_cc_4 c_cc_5 c_cc_6 c_cc_7 c_cc_8 c_cc_9 c_cc_10 c_cc_11 c_cc_12 c_cc_13 c_cc_14 c_cc_15 c_cc_16 f_fppacc radius 
854 2 0.0108281 -0.0332827 -0.0220438 0 0 0 -0.933132 -22.0776 8.44149 0 -0.000164368 0 0 0 0 0 0 0 0 0 0 0 0 0 0 0 0 0 25 0.002 
851 7 0.0122082 -0.0169832 0.0553269 0 0 0 3.80171 22.8202 5.5339 -0.141331 0.131841 -0.444358 0 0 0 0 0 0 0 0 0 0 0 0 0 0 0 0 11 0.002 
1095 7 0.0122068 -0.0292272 0.0500562 0 0 0 -5.84347 42.1159 27.2999 0.941702 0.662799 -1.27648 0 0 0 0 0 0 0 0 0 0 0 0 0 0 0 0 4 0.002 
507 6 0.0165596 0.0273468 -0.0296808 0 0 0 -4.24961 -13.8835 -15.7292 0 -0.000164368 0 0 0 0 0 0 0 0 0 0 0 0 0 0 0 0 0 33 0.002 
41 1 0.015124 0.0528566 -0.0355 0 0 0 1.37828e-307 -8.12383e-20 1.12852e-12 -1.48168e-307 1.35525e-20 0 0 0 0 0 0 0 0 0 0 0 0 0 0 0 0 0 2 0.002 
678 9 0.00661238 0.0731754 -0.0319882 0 0 0 0.357278 -0.380791 0.18418 0 -0.000164368 0 0 0 0 0 0 0 0 0 0 0 0 0 0 0 0 0 29 0.002 
245 1 0.00604714 0.0685523 -0.0293479 0 0 0 0.292901 0.569484 1.70028 0 -0.000164368 0 0 0 0 0 0 0 0 0 0 0 0 0 0 0 0 0 28 0.002 
404 6 0.0101653 0.0483815 -0.0211423 0 0 0 0.58984 -3.90566 1.8926 0 -0.000164368 0 0 0 0 0 0 0 0 0 0 0 0 0 0 0 0 0 25 0.002 
386 1 0.0122073 0.0695028 -0.0117902 0 0 0 9.43863 -0.766955 -11.05 0 -0.000164368 0 0 0 0 0 0 0 0 0 0 0 0 0 0 0 0 0 26 0.002 
915 9 0.00903436 0.0726946 -0.00183715 0 0 0 -2.03555 -1.62996 0.171241 0 -0.000164368 0 0 0 0 0 0 0 0 0 0 0 0 0 0 0 0 0 30 0.002 
516 2 0.00787945 0.0716785 0.00570327 0 0 0 -0.204214 -0.00569309 -0.523139 0 -0.000164368 0 0 0 0 0 0 0 0 0 0 0 0 0 0 0 0 0 35 0.002 
1067 10 0.00624099 0.0625598 0.00984113 0 0 0 -3.36843 0.885348 1.84711 0 -0.000164368 0 0 0 0 0 0 0 0 0 0 0 0 0 0 0 0 0 7 0.002 
1135 5 0.0161486 0.0701675 0.00786699 0 0 0 -0.592414 0.177929 -1.51526 0 -0.000164368 0 0 0 0 0 0 0 0 0 0 0 0 0 0 0 0 0 6 0.002 
724 1 0.00983613 0.0628269 0.0133415 0 0 0 -0.545687 -0.730173 -0.448133 0 -0.000164368 0 0 0 0 0 0 0 0 0 0 0 0 0 0 0 0 0 25 0.002 
658 8 0.00304081 0.0699193 0.0176068 0 0 0 0.315578 -0.681118 -0.00739135 0 -0.000164368 0 0 0 0 0 0 0 0 0 0 0 0 0 0 0 0 0 30 0.002 
1189 5 0.00685278 0.0688287 0.0185471 0 0 0 -0.065136 -0.956368 0.536407 0 -0.000164368 0 0 0 0 0 0 0 0 0 0 0 0 0 0 0 0 0 1 0.002 
26 9 0.0145803 0.0544636 0.020824 0 0 0 -0.22708 -0.643116 -0.187483 0 -0.000164368 0 0 0 0 0 0 0 0 0 0 0 0 0 0 0 0 0 36 0.002 
952 3 0.00719091 0.0621964 0.0186838 0 0 0 -1.44793 -0.284961 -1.36793 0 -0.000164368 0 0 0 0 0 0 0 0 0 0 0 0 0 0 0 0 0 8 0.002 
149 7 0.014314 0.0626701 0.020095 0 0 0 -1.02621 -1.02193 -0.309154 0 -0.000164368 0 0 0 0 0 0 0 0 0 0 0 0 0 0 0 0 0 51 0.002 
471 5 0.00298523 0.0674578 0.0230731 0 0 0 -0.294197 -0.524153 -0.0749233 0.0315834 0.0246942 0.0265493 0 0 0 0 1 0 0 0 0 0 0 0 0 0 0 0 41 0.002 
288 1 0.00681269 0.0683892 0.0235448 0 0 0 -0.355405 -0.00621537 0.243023 0.029277 -0.00106848 -0.0077829 0 0 0 0 1 0 0 0 0 0 0 0 0 0 0 0 34 0.002 
753 6 0.014074 0.0683596 0.0227562 0 0 0 -0.402258 -0.483504 -0.014729 0 -0.000164368 0 0 0 0 0 0 0 0 0 0 0 0 0 0 0 0 0 54 0.002 
263 2 0.00465749 0.071994 0.0218188 0 0 0 -0.733945 0.545323 -0.207723 0 -0.000164368 0 0 0 0 0 0 0 0 0 0 0 0 0 0 0 0 0 31 0.002 
882 3 0.0141782 0.0454155 0.0248806 0 0 0 0.587776 -1.46639 -0.809524 0 -0.000164368 0 0 0 0 0 0 0 0 0 0 0 0 0 0 0 0 0 23 0.002 
54 6 0.0129058 0.0721194 0.0248784 0 0 0 0.0177212 -0.0540289 0.079163 0 -0.000164368 0 0 0 0 0 0 0 0 0 0 0 0 0 0 0 0 0 46 0.002 
1131 5 0.0182055 0.071626 0.0239444 0 0 0 -0.590856 -0.00688081 -0.351531 0.00126423 -0.00397165 -0.000754807 0 0 0 0 1 0 0 0 0 0 0 0 0 0 0 0 10 0.002 
624 7 0.00829918 0.0737457 0.0252084 0 0 0 0.220187 -0.183508 0.232772 -0.00325375 -0.00172717 -0.000139441 0 0 0 0 0 0 1 0 0 0 0 0 0 0 0 0 33 0.002 
1111 4 0.00937933 0.0687932 0.0271738 0 0 0 0.115321 -0.185984 -0.112171 0 -0.000164368 0 0 0 0 0 0 0 0 0 0 0 0 0 0 0 0 0 12 0.002 
707 2 0.0152363 0.0694787 0.027016 0 0 0 0.0674785 -0.230902 -0.0885984 0 -0.000164368 0 0 0 0 0 0 0 0 0 0 0 0 0 0 0 0 0 51 0.002 
830 7 0.00430897 0.0721317 0.0274154 0 0 0 0.214284 -0.435262 0.0173418 0 -0.000164368 0 0 0 0 0 0 0 0 0 0 0 0 0 0 0 0 0 36 0.002 
811 5 0.00466691 0.0636853 0.0284778 0 0 0 0.125658 -0.406195 0.0522858 0 -0.000164368 0 0 0 0 0 0 0 0 0 0 0 0 0 0 0 0 0 30 0.002 
58 1 0.00662675 0.0671842 0.0297574 0 0 0 0.0709028 -0.210719 -0.0638802 0 -0.000164368 0 0 0 0 0 0 0 0 0 0 0 0 0 0 0 0 0 41 0.002 
842 11 0.00480386 0.0485955 0.0232126 0 0 0 -4.99451 2.28908 -24.3707 0 -0.000164368 0 0 0 0 0 0 0 0 0 0 0 0 0 0 0 0 0 28 0.002 
671 3 0.00300391 0.0686083 0.0288158 0 0 0 0.00559081 -0.357273 -0.066131 0 -0.000164368 0 0 0 0 0 0 0 0 0 0 0 0 0 0 0 0 0 47 0.002 
331 7 0.00832618 0.0722933 0.0293947 0 0 0 0.0202327 -0.274435 0.00919619 0 -0.000164368 0 0 0 0 0 0 0 0 0 0 0 0 0 0 0 0 0 47 0.002 
150 7 0.0121631 0.0708879 0.0296163 0 0 0 0.0187404 -0.225922 -0.0808366 0 -0.000164368 0 0 0 0 0 0 0 0 0 0 0 0 0 0 0 0 0 31 0.002 
130 1 0.0158892 0.0723764 0.0296961 0 0 0 -0.00974599 -0.229493 -0.0552639 0 -0.000164368 0 0 0 0 0 0 0 0 0 0 0 0 0 0 0 0 0 35 0.002 
463 9 0.00339219 0.0592063 0.0280961 0 0 0 -6.97983 23.564 -8.60964 0 -0.000164368 0 0 0 0 0 0 0 0 0 0 0 0 0 0 0 0 0 38 0.002 
895 10 0.0160659 0.0583353 0.0315695 0 0 0 0.629726 -1.0302 0.276779 0 -0.000164368 0 0 0 0 0 0 0 0 0 0 0 0 0 0 0 0 0 40 0.002 
773 5 0.00314305 0.0616453 0.0315931 0 0 0 -0.0393465 -0.0524438 -0.296908 0 -0.000164368 0 0 0 0 0 0 0 0 0 0 0 0 0 0 0 0 0 18 0.002 
165 4 0.0162642 0.0651498 0.0321884 0 0 0 0.0804158 -0.294642 -0.195668 0 -0.000164368 0 0 0 0 0 0 0 0 0 0 0 0 0 0 0 0 0 32 0.002 
934 1 0.00643075 0.0703259 0.0323236 0 0 0 0.0211035 -0.283604 -0.0260618 0.00163283 -0.000289149 -0.000353764 1 0 0 0 0 0 0 0 0 0 0 0 0 0 0 0 31 0.002 
1021 3 0.00609035 0.0643734 0.0326545 0 0 0 0.107371 -0.199733 0.0202823 0 -0.000164368 0 0 0 0 0 0 0 0 0 0 0 0 0 0 0 0 0 14 0.002 
1046 3 0.0090106 0.0673425 0.0329976 0 0 0 0.0336012 -0.26957 0.00132088 0 -0.000164368 0 0 0 0 0 0 0 0 0 0 0 0 0 0 0 0 0 10 0.002 
625 3 0.00300791 0.0683597 0.032992 0 0 0 0.01786 -0.289208 -0.0260949 0 -0.000164368 0 0 0 0 0 0 0 0 0 0 0 0 0 0 0 0 0 21 0.002 
577 2 0.0138868 0.0684084 0.0324809 0 0 0 0.0864911 -0.258798 -0.0666583 0 -0.000164368 0 0 0 0 0 0 0 0 0 0 0 0 0 0 0 0 0 24 0.002 
903 8 0.00304254 0.0723678 0.0328963 0 0 0 0.039509 -0.295775 -0.0243755 -0.00164563 -0.00601933 0.00528243 1 0 0 0 0 0 0 1 0 0 0 0 0 0 0 0 47 0.002 
104 1 0.0178192 0.0706995 0.0329202 0 0 0 0.0963855 -0.166177 -0.0255155 0 -0.000164368 0 0 0 0 0 0 0 0 0 0 0 0 0 0 0 0 0 23 0.002 
268 5 0.0101889 0.0725592 0.0329617 0 0 0 0.0563926 -0.218644 -0.0362776 0 -0.000164368 0 0 0 0 0 0 0 0 0 0 0 0 0 0 0 0 0 51 0.002 
708 1 0.0050464 0.0412215 0.0391906 0 0 0 6.70801 19.3789 -20.0374 0 -0.000164368 0 0 0 0 0 0 0 0 0 0 0 0 0 0 0 0 0 33 0.002 
1058 2 0.00306169 0.0748878 0.0128242 0 0 0 0.652766 -2.00812 0.483343 0 -0.000164368 0 0 0 0 0 0 0 0 0 0 0 0 0 0 0 0 0 17 0.002 
264 10 0.00700564 0.0749824 0.0145438 0 0 0 0.0873219 -0.358659 0.791643 0 -0.000164368 0 0 0 0 0 0 0 0 0 0 0 0 0 0 0 0 0 35 0.002 
576 2 0.00832323 0.0817946 -0.0329422 0 0 0 2.71892 -4.34914 -1.1142 0 -0.000164368 0 0 0 0 0 0 0 0 0 0 0 0 0 0 0 0 0 20 0.002 
562 3 0.00342085 0.0975392 -0.032874 0 0 0 0.246961 0.0232797 -0.179453 0 -0.000164368 0 0 0 0 0 0 0 0 0 0 0 0 0 0 0 0 0 23 0.002 
430 4 0.00742626 0.10119 -0.0321419 0 0 0 0.428307 -0.376744 0.322706 0 -0.000164368 0 0 0 0 0 0 0 0 0 0 0 0 0 0 0 0 0 39 0.002 
836 4 0.00336459 0.104269 -0.0329371 0 0 0 0.183491 0.0991829 0.108114 -0.00404893 -0.0315832 -0.0128669 0 0 0 1 0 0 0 0 0 0 0 0 0 0 0 0 28 0.002 
584 8 0.00899812 0.106781 -0.0330111 0 0 0 0.0563496 0.106085 -0.0440289 -0.00917166 0.00660667 0.0228006 0 0 0 0 0 0 0 0 0 0 0 0 0 0 0 0 42 0.002 
1154 12 0.0144999 0.105454 -0.0324841 0 0 0 0.0433069 -0.506731 -0.192382 0 -0.000164368 0 0 0 0 0 0 0 0 0 0 0 0 0 0 0 0 0 2 0.002 
598 1 0.0050812 0.10783 -0.0324374 0 0 0 -0.147776 -0.186185 -0.188011 0.00404893 0.0312545 0.0128669 0 0 0 1 0 0 0 0 0 0 0 0 0 0 0 0 32 0.002 
814 13 0.0102747 0.107922 -0.0292442 0 0 0 -0.37409 -0.317618 0.224501 0 -0.000164368 0 0 0 0 0 0 0 0 0 0 0 0 0 0 0 0 0 35 0.002 
957 4 0.00435284 0.0875247 -0.0253019 0 0 0 -0.289383 -2.25895 6.37194 0 -0.000164368 0 0 0 0 0 0 0 0 0 0 0 0 0 0 0 0 0 13 0.002 
1093 3 0.0174829 0.0969861 -0.0282569 0 0 0 -0.227476 -0.597799 0.460616 0 -0.000164368 0 0 0 0 0 0 0 0 0 0 0 0 0 0 0 0 0 13 0.002 
619 6 0.00304768 0.0995241 -0.0289887 0 0 0 0.223026 -0.169843 0.413408 0 -0.000164368 0 0 0 0 0 0 0 0 0 0 0 0 0 0 0 0 0 27 0.002 
704 9 0.0160156 0.101131 -0.0272252 0 0 0 1.0152 0.670229 -0.305568 0 -0.000164368 0 0 0 0 0 0 0 0 0 0 0 0 0 0 0 0 0 24 0.002 
492 4 0.0110248 0.10431 -0.0272958 0 0 0 0.686264 1.09155 -0.397435 0 -0.000164368 0 0 0 0 0 0 0 0 0 0 0 0 0 0 0 0 0 25 0.002 
638 6 0.0160865 0.107549 -0.0289522 0 0 0 0.449784 -0.313625 -0.149642 0 -0.000164368 0 0 0 0 0 0 0 0 0 0 0 0 0 0 0 0 0 24 0.002 
879 4 0.011244 0.0803411 -0.0240069 0 0 0 0.489381 0.0823077 2.57664 0 -0.000164368 0 0 0 0 0 0 0 0 0 0 0 0 0 0 0 0 0 22 0.002 
827 2 0.00940346 0.101344 -0.0247648 0 0 0 2.23714 0.113052 2.41688 0 -0.000164368 0 0 0 0 0 0 0 0 0 0 0 0 0 0 0 0 0 23 0.002 
891 2 0.00339876 0.108044 -0.0265108 0 0 0 -0.682932 0.696126 -0.172994 0.0760133 -0.244819 0.0958434 0 0 0 0 0 0 0 0 0 0 0 0 0 0 0 0 12 0.002 
1089 6 0.00374189 0.0827712 -0.0257291 0 0 0 1.73809 7.49668 -4.57979 0 -0.000164368 0 0 0 0 0 0 0 0 0 0 0 0 0 0 0 0 0 8 0.002 
756 2 0.00920956 0.0933808 -0.023967 0 0 0 0.540481 -0.0864257 -0.969199 0 -0.000164368 0 0 0 0 0 0 0 0 0 0 0 0 0 0 0 0 0 32 0.002 
745 7 0.00331559 0.0964581 -0.023838 0 0 0 -0.0783484 0.441116 -0.527585 0 -0.000164368 0 0 0 0 0 0 0 0 0 0 0 0 0 0 0 0 0 23 0.002 
960 3 0.00300649 0.104971 -0.0235732 0 0 0 0.196746 0.713276 0.269077 0 -0.000164368 0 0 0 0 0 0 0 0 0 0 0 0 0 0 0 0 0 12 0.002 
370 4 0.00709538 0.104721 -0.0246776 0 0 0 -0.929083 -0.131751 -1.2935 -0.0275246 -0.0976974 -0.0120947 0 0 0 1 0 0 0 0 0 0 0 0 0 0 0 0 38 0.002 
1225 1 0.00889127 0.108066 -0.0236954 0 0 0 -0.37656 -0.319245 -0.335284 0.0336682 -0.112647 0.00118524 0 0 0 1 0 0 0 0 0 0 0 0 0 0 0 0 1 0.002 
570 1 0.0133121 0.108056 -0.0234384 0 0 0 0.0873523 -0.197705 -0.157477 0.00720815 -0.0956961 -0.00276171 1 0 0 0 0 0 0 0 0 0 0 0 0 0 0 0 34 0.002 
1062 4 0.00322173 0.100768 -0.0216241 0 0 0 -1.0583 1.66662 0.229862 0 -0.000164368 0 0 0 0 0 0 0 0 0 0 0 0 0 0 0 0 0 14 0.002 
348 6 0.011494 0.100629 -0.0208032 0 0 0 0.323436 0.972526 -1.36765 0 -0.000164368 0 0 0 0 0 0 0 0 0 0 0 0 0 0 0 0 0 42 0.002 
329 7 0.00634538 0.103536 -0.020576 0 0 0 0.0886512 1.07689 0.371536 0 -0.000164368 0 0 0 0 0 0 0 0 0 0 0 0 0 0 0 0 0 33 0.002 
243 5 0.0155178 0.101985 -0.0202752 0 0 0 -0.606361 1.17155 1.1709 0 -0.000164368 0 0 0 0 0 0 0 0 0 0 0 0 0 0 0 0 0 19 0.002 
729 9 0.0112698 0.105009 -0.0220024 0 0 0 0.0150738 -0.904568 -1.48011 -0.0163357 -0.0831209 0.00949272 1 0 0 0 0 0 0 0 0 0 0 0 0 0 0 0 29 0.002 
546 1 0.0174539 0.106981 -0.022064 0 0 0 0.70442 -0.32984 0.390735 0 -0.000164368 0 0 0 0 0 0 0 0 0 0 0 0 0 0 0 0 0 31 0.002 
1147 9 0.00366949 0.097243 -0.0197633 0 0 0 -0.237383 1.20713 0.849254 0 -0.000164368 0 0 0 0 0 0 0 0 0 0 0 0 0 0 0 0 0 5 0.002 
317 11 0.00299943 0.10557 -0.0195734 0 0 0 -0.0341365 1.21748 0.324726 0.00190638 -0.000783278 -0.000724925 0 0 0 0 0 0 0 0 0 0 0 0 0 0 0 0 32 0.002 
632 6 0.00776388 0.107981 0.00986137 0 0 0 0.125835 -0.0461292 0.119948 -0.00160929 -0.00194237 -0.00577601 0 0 0 0 0 2 0 0 0 0 0 0 0 0 0 0 34 0.002 
1121 3 0.0116424 0.107955 -0.018831 0 0 0 0.133346 -0.137973 0.128865 0 -0.000164368 0 0 0 0 0 0 0 0 0 0 0 0 0 0 0 0 0 0 0.002 
121 2 0.0108922 0.0910569 -0.0170622 0 0 0 -1.29227 7.63888 -2.52036 0.0984153 0.0814935 -0.176859 0 1 0 0 0 0 0 0 0 0 0 0 0 0 0 0 43 0.002 
589 5 0.00296671 0.0995011 -0.016177 0 0 0 0.368615 0.762332 -0.222999 0.0443949 0.00389308 0.0155982 0 0 0 0 0 0 0 0 0 0 0 0 0 0 0 0 32 0.002 
650 3 0.00770758 0.101238 -0.016239 0 0 0 0.109509 0.12783 -0.349573 0.0182188 -0.0602817 -0.00174376 0 0 1 0 0 0 0 0 0 0 0 0 0 0 0 0 30 0.002 
602 6 0.00296524 0.103672 -0.0159287 0 0 0 0.0402467 0.733204 -0.467123 0.0769471 -0.0581879 -0.0379982 0 0 0 0 0 1 0 0 0 0 0 0 0 0 0 0 25 0.002 
1091 5 0.0058269 0.107465 -0.0170707 0 0 0 -0.35762 1.62142 -0.220012 0 -0.000164368 0 0 0 0 0 0 0 0 0 0 0 0 0 0 0 0 0 8 0.002 
645 2 0.0158644 0.0886822 -0.0140998 0 0 0 1.05465 0.965026 1.15741 0 -0.000164368 0 0 0 0 0 0 0 0 0 0 0 0 0 0 0 0 0 31 0.002 
293 1 0.0102426 0.100231 -0.0130981 0 0 0 -0.185605 0.273465 0.219106 0 -0.000164368 0 0 0 0 0 0 0 0 0 0 0 0 0 0 0 0 0 35 0.002 
961 1 0.00653419 0.104525 -0.0143821 0 0 0 -0.0118932 0.422506 -0.907321 0.0016599 0.0296846 -0.00945495 1 0 1 0 0 1 0 0 0 0 0 0 0 0 0 0 13 0.002 
1201 4 0.0123354 0.103509 -0.0147509 0 0 0 -0.120533 0.694101 -0.516494 0 -0.000164368 0 0 0 0 0 0 0 0 0 0 0 0 0 0 0 0 0 1 0.002 
214 8 0.00997184 0.106769 -0.0139402 0 0 0 0.185127 0.941918 0.305932 0 -0.000164368 0 0 0 0 0 0 0 0 0 0 0 0 0 0 0 0 0 7 0.002 
675 1 0.0150908 0.106525 -0.0145665 0 0 0 -0.869477 1.64117 1.42373 0 -0.000164368 0 0 0 0 0 0 0 0 0 0 0 0 0 0 0 0 0 30 0.002 
377 4 0.009468 0.0912961 -0.0134306 0 0 0 -0.0181715 -0.34432 -2.0779 -0.0984153 -0.0818222 0.176859 0 1 0 0 0 0 0 0 0 0 0 0 0 0 0 0 47 0.002 
1215 2 0.00327412 0.103098 -0.0113754 0 0 0 0.0874449 -0.410795 0.210692 0 -0.000164368 0 0 0 0 0 0 0 0 0 0 0 0 0 0 0 0 0 0 0.002 
1086 9 0.00598913 0.107902 -0.012421 0 0 0 -0.340585 -0.0438176 0.449805 -0.0042985 0.0410616 0.0252833 1 0 0 0 0 0 0 0 1 0 0 0 0 0 0 0 10 0.002 
308 1 0.0111407 0.0971925 -0.0103617 0 0 0 0.752927 -0.366082 -0.00481606 0 -0.000164368 0 0 0 0 0 0 0 0 0 0 0 0 0 0 0 0 0 54 0.002 
661 2 0.00650925 0.104175 -0.00878742 0 0 0 -0.466889 -0.805729 0.985238 -0.0594801 0.015349 -0.0828612 0 1 0 0 0 0 0 0 0 0 0 0 0 0 0 0 14 0.002 
787 3 0.0109964 0.104632 -0.00991035 0 0 0 0.393989 0.0583212 0.0299224 0.00502622 -0.00756119 -0.00547693 0 0 1 0 0 0 0 0 0 0 0 0 0 0 0 0 25 0.002 
698 6 0.015232 0.104461 -0.0103956 0 0 0 -0.755593 -0.428723 -0.205114 0 -0.000164368 0 0 0 0 0 0 0 0 0 0 0 0 0 0 0 0 0 30 0.002 
888 1 0.0131168 0.108001 -0.00922142 0 0 0 0.142124 0.635586 0.343496 -0.0194626 -0.0349103 -0.0435798 0 0 0 0 0 0 0 0 0 0 0 0 0 0 0 0 27 0.002 
713 7 0.00494356 0.10797 -0.00855655 0 0 0 -0.332177 -0.128921 0.388933 -0.0192199 -0.00332182 -0.000314009 0 0 0 0 0 0 2 0 0 0 0 0 0 0 0 0 32 0.002 
1212 1 0.00878266 0.107929 -0.00956845 0 0 0 -0.229063 -0.372775 0.2263 0.0181006 0.0125648 0.00839414 0 0 1 0 0 0 1 0 1 0 0 0 0 0 0 0 3 0.002 
179 1 0.0155495 0.0755351 -0.00749063 0 0 0 -0.868886 -1.60409 -0.333553 0 -0.000164368 0 0 0 0 0 0 0 0 0 0 0 0 0 0 0 0 0 35 0.002 
832 8 0.0105099 0.0986563 -0.00657315 0 0 0 -0.040298 -0.406428 -0.0320464 0 -0.000164368 0 0 0 0 0 0 0 0 0 0 0 0 0 0 0 0 0 29 0.002 
309 1 0.0171569 0.101044 -0.00834924 0 0 0 -1.0514 -0.566447 -0.195996 0 -0.000164368 0 0 0 0 0 0 0 0 0 0 0 0 0 0 0 0 0 48 0.002 
592 7 0.00618247 0.0799066 -0.00529278 0 0 0 1.05812 -1.05887 0.705087 0 -0.000164368 0 0 0 0 0 0 0 0 0 0 0 0 0 0 0 0 0 37 0.002 
703 3 0.00377883 0.0873207 -0.00625463 0 0 0 -5.22587 0.93989 -3.66532 0.161003 -0.0218496 0.0674795 0 0 1 0 0 0 0 0 0 0 0 0 0 0 0 0 27 0.002 
767 5 0.00523846 0.0999089 -0.00602159 0 0 0 -0.283953 -0.171304 -0.15794 -0.00414857 0.0228125 -0.0194519 0 0 0 0 1 0 0 0 0 0 0 0 0 0 0 0 27 0.002 
582 7 0.00312701 0.103337 -0.00592861 0 0 0 0.100768 0.0261004 -0.0129302 0 -0.000164368 0 0 0 0 0 0 0 0 0 0 0 0 0 0 0 0 0 24 0.002 
907 8 0.00915646 0.103687 -0.00591147 0 0 0 0.0533812 0.0907421 0.275365 0.0594801 -0.0156778 0.0828612 0 1 0 0 0 0 0 0 0 0 0 0 0 0 0 0 22 0.002 
999 5 0.00308704 0.107251 -0.00509353 0 0 0 -0.539031 -0.167568 0.229454 0.00359785 -0.0037588 -0.00904357 0 0 0 0 2 0 1 0 0 0 0 0 0 0 0 0 12 0.002 
551 10 0.00750882 0.0871446 -0.00487823 0 0 0 -1.07235 3.80226 -3.72018 -0.161003 0.0215208 -0.0674795 0 0 1 0 0 0 0 0 0 0 0 0 0 0 0 0 19 0.002 
262 3 0.00824167 0.0930853 -0.00253985 0 0 0 1.90907 1.41049 1.56271 0 -0.000164368 0 0 0 0 0 0 0 0 0 0 0 0 0 0 0 0 0 30 0.002 
574 5 0.00475571 0.0951607 -0.00217372 0 0 0 0.405665 -0.274467 0.5168 -0.0386042 -0.0436001 0.00705748 0 0 0 0 1 0 0 0 0 0 0 0 0 0 0 0 25 0.002 
457 6 0.00747185 0.0975471 -0.00373129 0 0 0 0.163221 0.109287 -0.533311 0.0427528 0.0202946 0.0123944 0 0 0 0 2 0 0 0 0 0 0 0 0 0 0 0 27 0.002 
4 6 0.0110885 0.0962528 -0.00170516 0 0 0 -0.518759 -0.506836 0.110531 0 -0.000164368 0 0 0 0 0 0 0 0 0 0 0 0 0 0 0 0 0 28 0.002 
797 6 0.00313907 0.0996021 -0.00190171 0 0 0 -0.410115 0.539204 0.056725 0 -0.000164368 0 0 0 0 0 0 0 0 0 0 0 0 0 0 0 0 0 30 0.002 
800 1 0.0128473 0.101059 -0.00319469 0 0 0 -0.0904661 -0.594256 -0.22372 0 -0.000164368 0 0 0 0 0 0 0 0 0 0 0 0 0 0 0 0 0 19 0.002 
133 1 0.0108263 0.107198 -0.00337174 0 0 0 -0.382656 0.17103 0.338142 0 -0.000164368 0 0 0 0 0 0 0 0 0 0 0 0 0 0 0 0 0 36 0.002 
1103 1 0.00679118 0.107844 -0.00376754 0 0 0 -0.10364 -0.0984469 -0.170439 0.00283021 0.000588239 -0.000332504 0 0 0 0 1 0 0 0 0 0 0 0 0 0 0 0 12 0.002 
529 14 0.00783867 0.0763998 -0.000294348 0 0 0 -2.09582 -2.34053 1.50127 0 -0.000164368 0 0 0 0 0 0 0 0 0 0 0 0 0 0 0 0 0 45 0.002 
1196 5 0.00684201 0.102213 -0.000920238 0 0 0 0.130433 0.0832685 -0.0745142 0 -0.000164368 0 0 0 0 0 0 0 0 0 0 0 0 0 0 0 0 0 1 0.002 
451 1 0.00321547 0.103988 -0.00119403 0 0 0 0.00872423 -0.0914933 0.247068 0 -0.000164368 0 0 0 0 0 0 0 0 0 0 0 0 0 0 0 0 0 33 0.002 
1016 8 0.00682008 0.106114 2.29359e-05 0 0 0 -0.571975 0.23232 0.0670223 0 -0.000164368 0 0 0 0 0 0 0 0 0 0 0 0 0 0 0 0 0 5 0.002 
760 3 0.00297913 0.108007 -0.0011899 0 0 0 0.120341 -0.015311 0.312136 0.019745 -0.00574736 -0.00295387 0 0 1 0 1 0 0 0 0 0 0 0 0 0 0 0 22 0.002 
1064 5 0.0158017 0.0834491 0.00187414 0 0 0 -2.03077 2.24446 -1.50696 0 -0.000164368 0 0 0 0 0 0 0 0 0 0 0 0 0 0 0 0 0 17 0.002 
1063 3 0.00344151 0.0916071 0.00251011 0 0 0 0.157589 0.443467 -0.578888 0 -0.000164368 0 0 0 0 0 0 0 0 0 0 0 0 0 0 0 0 0 10 0.002 
199 4 0.00623422 0.0981669 0.00218503 0 0 0 0.772086 0.364691 0.326247 0 -0.000164368 0 0 0 0 0 0 0 0 0 0 0 0 0 0 0 0 0 44 0.002 
639 9 0.011648 0.0964313 0.0025261 0 0 0 -0.423557 -0.553901 0.518283 0 -0.000164368 0 0 0 0 0 0 0 0 0 0 0 0 0 0 0 0 0 42 0.002 
510 9 0.00587309 0.102409 0.00306779 0 0 0 0.262669 0.609953 0.110637 0 -0.000164368 0 0 0 0 0 0 0 0 0 0 0 0 0 0 0 0 0 63 0.002 
419 10 0.00346515 0.10632 0.00239027 0 0 0 0.00447525 0.157561 0.512477 -0.00057248 -0.00431112 -0.0110567 0 0 1 0 0 0 0 0 0 1 0 0 0 0 0 0 47 0.002 
1199 14 0.0103201 0.106715 0.00189471 0 0 0 -0.585046 0.303287 0.218712 -0.0285276 -0.0116851 -0.00595342 0 0 0 0 0 0 0 0 0 0 0 0 0 1 0 0 1 0.002 
1175 4 0.0119235 0.0821366 0.00421357 0 0 0 1.35102 0.344468 -0.171831 0 -0.000164368 0 0 0 0 0 0 0 0 0 0 0 0 0 0 0 0 0 1 0.002 
1222 3 0.00602542 0.0855737 0.00457153 0 0 0 1.7777 6.38162 1.45536 0 -0.000164368 0 0 0 0 0 0 0 0 0 0 0 0 0 0 0 0 0 0 0.002 
1043 8 0.00997993 0.10202 0.00371329 0 0 0 0.567309 0.687369 0.127524 0 -0.000164368 0 0 0 0 0 0 0 0 0 0 0 0 0 0 0 0 0 12 0.002 
674 10 0.00299354 0.103844 0.00547056 0 0 0 -0.00231336 -0.124562 0.399422 -0.00114902 -0.00336809 -0.00136087 0 0 0 0 0 0 0 0 0 1 0 0 0 0 0 0 27 0.002 
403 8 0.0138002 0.106771 0.00380696 0 0 0 -0.452812 0.230569 -0.0560078 0.0285276 0.0113564 0.00595342 0 0 0 0 0 0 0 0 0 0 0 0 0 1 0 0 33 0.002 
1127 2 0.00674543 0.108009 0.00390659 0 0 0 0.134608 -0.0266704 0.208951 -0.0119363 -0.00486213 -0.00206234 0 1 0 0 0 0 0 0 0 1 0 0 0 0 0 0 5 0.002 
339 4 0.00383081 0.0883091 0.00749817 0 0 0 1.94258 6.29895 2.31639 0 -0.000164368 0 0 0 0 0 0 0 0 0 0 0 0 0 0 0 0 0 30 0.002 
303 3 0.0163741 0.0866457 0.00571632 0 0 0 -0.812026 3.20596 -1.29329 0 -0.000164368 0 0 0 0 0 0 0 0 0 0 0 0 0 0 0 0 0 29 0.002 
193 8 0.00844959 0.0914612 0.00717762 0 0 0 -0.162659 0.711014 0.614516 0 -0.000164368 0 0 0 0 0 0 0 0 0 0 0 0 0 0 0 0 0 42 0.002 
662 1 0.0152153 0.098024 0.00712837 0 0 0 -2.00908 0.667525 0.460756 0 -0.000164368 0 0 0 0 0 0 0 0 0 0 0 0 0 0 0 0 0 32 0.002 
297 3 0.00307345 0.0997219 0.00610256 0 0 0 -0.314108 0.0348432 -0.0495785 0 -0.000164368 0 0 0 0 0 0 0 0 0 0 0 0 0 0 0 0 0 42 0.002 
1167 8 0.0136027 0.102592 0.00613916 0 0 0 -2.40489 1.15266 -0.130346 0.00107704 0.00981141 -0.00139529 0 0 0 0 0 0 0 2 0 0 0 0 0 0 0 0 2 0.002 
306 3 0.00299547 0.107803 0.00702098 0 0 0 -0.0310074 -0.0785021 0.198925 0.00732861 0.000292582 0.0036357 0 0 0 0 0 0 0 0 0 0 0 0 0 0 0 0 40 0.002 
765 1 0.0102269 0.108012 0.00584219 0 0 0 -0.0988874 0.0377676 0.518723 -0.00103002 0.00126871 -0.00504973 1 1 0 0 0 0 0 0 0 0 0 0 0 0 0 0 23 0.002 
959 6 0.01587 0.0819993 0.00836747 0 0 0 -2.44282 1.23386 1.3027 0 -0.000164368 0 0 0 0 0 0 0 0 0 0 0 0 0 0 0 0 0 23 0.002 
922 5 0.0179785 0.108013 0.00844524 0 0 0 0.152028 0.227401 0.2112 0.0199252 0.000905507 -0.00175794 0 0 0 0 2 0 0 0 0 0 0 0 0 0 0 0 11 0.002 
945 9 0.0120663 0.0894896 0.00884432 0 0 0 0.0497556 0.136879 1.60393 0 -0.000164368 0 0 0 0 0 0 0 0 0 0 0 0 0 0 0 0 0 13 0.002 
503 7 0.00578014 0.0973254 0.0088853 0 0 0 -0.172038 0.0384074 0.215434 0 -0.000164368 0 0 0 0 0 0 0 0 0 0 0 0 0 0 0 0 0 24 0.002 
1116 4 0.00347216 0.101923 0.00962058 0 0 0 -0.00985156 -0.0239425 0.0514403 0 -0.000164368 0 0 0 0 0 0 0 0 0 0 0 0 0 0 0 0 0 15 0.002 
1193 8 0.00814422 0.101801 0.00809305 0 0 0 -0.0843254 -0.125875 -0.0698523 0.00297649 -0.00190861 0.00100723 0 0 0 0 0 0 0 2 0 0 0 0 0 0 0 0 4 0.002 
9 6 0.0176007 0.102903 0.00880377 0 0 0 -0.0699831 0.335667 0.243238 0 -0.000164368 0 0 0 0 0 0 0 0 0 0 0 0 0 0 0 0 0 50 0.002 
446 9 0.00577228 0.105017 0.00807516 0 0 0 0.0589284 -0.0842874 0.329799 -0.00184438 -0.00081919 -0.000744122 0 0 0 0 0 1 0 1 1 1 0 0 0 0 0 0 45 0.002 
930 3 0.0107087 0.104919 0.00829765 0 0 0 -0.279669 0.128885 0.390843 0.00650259 -0.0210608 0.0115727 1 0 1 0 0 0 0 0 0 0 0 0 0 0 0 0 36 0.002 
526 2 0.014667 0.105888 0.00810727 0 0 0 -0.297096 1.00536 -0.111144 -0.0207362 -0.077568 -0.0403837 0 1 0 0 1 0 0 1 0 0 0 0 0 0 0 0 25 0.002 
1223 2 0.00857102 0.0852505 0.0109969 0 0 0 -0.804361 -0.0825969 2.1649 0 -0.000164368 0 0 0 0 0 0 0 0 0 0 0 0 0 0 0 0 0 0 0.002 
823 9 0.0141106 0.0860939 0.01227 0 0 0 -3.57183 -2.2568 3.16258 0 -0.000164368 0 0 0 0 0 0 0 0 0 0 0 0 0 0 0 0 0 10 0.002 
873 6 0.00895383 0.0953317 0.0115729 0 0 0 0.256455 -0.224918 0.043777 0 -0.000164368 0 0 0 0 0 0 0 0 0 0 0 0 0 0 0 0 0 14 0.002 
395 6 0.00870274 0.100097 0.011666 0 0 0 -0.0257059 0.0109474 -0.00862593 -6.33808e-05 -0.000550476 0.00035342 0 0 0 0 0 1 0 0 0 0 0 0 0 0 0 0 45 0.002 
706 9 0.0132416 0.102407 0.0100937 0 0 0 -0.339142 0.0799164 0.326529 -0.00328008 0.000193858 -0.000690576 0 0 0 0 0 0 0 0 3 0 0 0 0 0 0 0 48 0.002 
719 3 0.00547659 0.105286 0.0120462 0 0 0 0.0995083 -0.052609 0.316254 0.00223766 -2.13211e-05 0.00547751 0 0 1 0 0 0 0 0 0 0 0 0 0 0 0 0 20 0.002 
375 4 0.0134087 0.107408 0.0115307 0 0 0 0.0733052 0.299234 0.586534 -0.0242534 0.0175064 0.0362687 0 0 0 1 0 0 0 0 0 0 0 0 0 0 0 0 28 0.002 
1122 1 0.00913046 0.106118 0.0329726 0 0 0 0.0349743 -0.0467454 -0.00630748 0 -0.000164368 0 0 0 0 0 0 0 0 0 0 0 0 0 0 0 0 0 7 0.002 
296 2 0.0168001 0.081471 0.014092 0 0 0 -0.427975 0.0633218 -0.642357 0 -0.000164368 0 0 0 0 0 0 0 0 0 0 0 0 0 0 0 0 0 20 0.002 
601 8 0.0160072 0.0921334 0.0132091 0 0 0 -0.484432 -0.090962 0.021935 0 -0.000164368 0 0 0 0 0 0 0 0 0 0 0 0 0 0 0 0 0 32 0.002 
321 7 0.00338218 0.0951683 0.0140424 0 0 0 0.0342619 0.00961257 -0.219824 0 -0.000164368 0 0 0 0 0 0 0 0 0 0 0 0 0 0 0 0 0 27 0.002 
967 2 0.0180277 0.0959064 0.013309 0 0 0 -0.115027 -0.0195814 1.16815 0 -0.000164368 0 0 0 0 0 0 0 0 0 0 0 0 0 0 0 0 0 13 0.002 
278 11 0.00325505 0.0994157 0.0131681 0 0 0 0.0626945 0.128256 -0.133637 0 -0.000164368 0 0 0 0 0 0 0 0 0 0 0 0 0 0 0 0 0 39 0.002 
809 1 0.015872 0.100742 0.0125816 0 0 0 -0.019658 0.17769 0.165716 0.00411354 -0.00239859 0.00509113 0 0 0 0 0 0 0 0 1 0 0 0 0 0 0 0 22 0.002 
400 7 0.00899785 0.103866 0.0134191 0 0 0 0.146868 0.0780087 0.0999971 0 -0.000164368 0 0 0 0 0 0 0 0 0 0 0 0 0 0 0 0 0 38 0.002 
695 2 0.0131147 0.103948 0.0138321 0 0 0 -0.0318692 0.0563241 0.055347 0 -0.000164368 0 0 0 0 0 0 0 0 0 0 0 0 0 0 0 0 0 20 0.002 
1040 3 0.00306399 0.107961 0.0137932 0 0 0 0.0223235 0.0170635 0.0766295 3.70593e-05 -0.000129831 -6.74468e-05 0 0 1 0 0 0 0 0 0 0 0 0 0 0 0 0 14 0.002 
1187 4 0.00983048 0.108008 0.0132722 0 0 0 -0.0431228 -0.0690797 0.164799 0.00303599 -0.000837959 0.00589483 0 0 0 1 0 0 0 0 0 0 0 0 0 0 0 0 1 0.002 
1017 2 0.0159916 0.107996 0.0145346 0 0 0 -0.105175 0.0499524 0.179398 -0.0005559 0.00214076 4.55065e-05 0 0 0 0 0 0 0 0 0 0 0 0 0 0 0 0 2 0.002 
993 8 0.00297616 0.0764195 0.0175266 0 0 0 -0.297991 1.46348 2.81474 0.0950354 -0.0253652 -0.0402846 0 0 0 0 0 0 0 0 0 0 0 0 0 0 0 0 26 0.002 
399 3 0.00735626 0.0850692 0.0158167 0 0 0 0.326436 -0.372114 -0.508714 0 -0.000164368 0 0 0 0 0 0 0 0 0 0 0 0 0 0 0 0 0 36 0.002 
1060 2 0.0173532 0.0868788 0.014645 0 0 0 -0.29065 -0.0486134 0.174088 0 -0.000164368 0 0 0 0 0 0 0 0 0 0 0 0 0 0 0 0 0 7 0.002 
1204 4 0.00497812 0.0891557 0.0146455 0 0 0 -0.111072 -0.279563 -0.213641 0 -0.000164368 0 0 0 0 0 0 0 0 0 0 0 0 0 0 0 0 0 0 0.002 
189 5 0.0106641 0.0896798 0.0148519 0 0 0 -0.488312 -0.132134 0.0594338 0 -0.000164368 0 0 0 0 0 0 0 0 0 0 0 0 0 0 0 0 0 27 0.002 
926 2 0.012622 0.0932613 0.0153181 0 0 0 -0.56678 0.194781 0.311484 0 -0.000164368 0 0 0 0 0 0 0 0 0 0 0 0 0 0 0 0 0 15 0.002 
976 5 0.00656933 0.0977973 0.0149882 0 0 0 0.0194734 0.0739118 -0.116915 0 -0.000164368 0 0 0 0 0 0 0 0 0 0 0 0 0 0 0 0 0 9 0.002 
863 1 0.0150825 0.0973711 0.0161116 0 0 0 -0.255128 0.0812562 -0.0634175 -0.00104485 -0.0101193 0.00218878 2 0 0 0 0 0 0 0 0 0 0 0 0 0 0 0 14 0.002 
988 10 0.0065934 0.10181 0.0162358 0 0 0 0.0210714 0.0910679 0.097598 0 -0.000164368 0 0 0 0 0 0 0 0 0 0 0 0 0 0 0 0 0 13 0.002 
338 6 0.0107785 0.102137 0.0165939 0 0 0 0.0533025 -0.107704 0.0711744 -6.47933e-06 8.81009e-05 -0.000137969 0 0 0 0 0 1 0 0 0 0 0 0 0 0 0 0 32 0.002 
480 3 0.0147055 0.101322 0.0164159 0 0 0 -0.211453 0.176828 0.230253 0.00341255 0.0098447 -0.00481832 1 0 0 0 0 0 0 0 0 0 0 0 0 0 0 0 35 0.002 
985 4 0.0184274 0.102933 0.0148779 0 0 0 -0.0294474 0.152213 0.231823 0.00920706 -0.012767 -0.00816462 0 0 0 2 0 0 0 0 0 0 0 0 0 0 0 0 13 0.002 
1065 3 0.00318415 0.103564 0.0148784 0 0 0 -0.103887 -0.0821587 0.0479021 -0.000717505 0.000543356 -0.00118513 0 0 1 0 0 0 0 0 0 0 0 0 0 0 0 0 13 0.002 
1191 3 0.00674895 0.106063 0.016299 0 0 0 -0.0743158 -0.153979 0.266523 0 -0.000164368 0 0 0 0 0 0 0 0 0 0 0 0 0 0 0 0 0 1 0.002 
941 3 0.0109741 0.106132 0.0166184 0 0 0 -0.0582048 -0.0744728 0.149613 -0.00138264 0.000126547 -0.00122786 0 0 1 0 0 0 0 0 0 0 0 0 0 0 0 0 22 0.002 
1011 6 0.00873858 0.0752917 0.0182759 0 0 0 1.39834 -0.351164 0.736348 -0.00468718 0.00463763 0.0197305 0 0 0 0 0 1 0 0 0 0 0 0 0 0 0 0 16 0.002 
769 5 0.00871315 0.0794931 0.0169646 0 0 0 -0.503103 0.08606 -0.122395 0 -0.000164368 0 0 0 0 0 0 0 0 0 0 0 0 0 0 0 0 0 28 0.002 
299 1 0.0149116 0.0829717 0.0176386 0 0 0 -0.096837 -0.248617 -0.218206 0 -0.000164368 0 0 0 0 0 0 0 0 0 0 0 0 0 0 0 0 0 33 0.002 
954 5 0.0185217 0.0848553 0.0185097 0 0 0 -0.33357 -0.00722292 -0.16382 0 -0.000164368 0 0 0 0 0 0 0 0 0 0 0 0 0 0 0 0 0 20 0.002 
69 6 0.0135148 0.0883798 0.0183309 0 0 0 0.029185 0.00383653 0.165889 0.0077692 0.001311 -0.0214409 0 0 0 0 0 1 0 0 0 0 0 0 0 0 0 0 33 0.002 
860 11 0.016986 0.0901971 0.0172732 0 0 0 0.087973 -0.23372 0.209969 -0.0358686 0.0107787 -0.0234146 0 0 0 0 0 0 0 0 0 0 1 0 0 0 0 0 28 0.002 
425 1 0.00308865 0.0919539 0.0174471 0 0 0 0.0254009 0.0260511 -0.189818 0 -0.000164368 0 0 0 0 0 0 0 0 0 0 0 0 0 0 0 0 0 38 0.002 
1066 1 0.00852019 0.0936606 0.0168237 0 0 0 -0.179035 0.148291 -0.147987 0 -0.000164368 0 0 0 0 0 0 0 0 0 0 0 0 0 0 0 0 0 22 0.002 
128 4 0.00504484 0.0955219 0.0180772 0 0 0 -0.230678 0.203566 -0.0715984 0.0064818 -0.00955981 -0.00412563 0 0 0 1 0 0 0 0 0 0 0 0 0 0 0 0 34 0.002 
459 5 0.0155948 0.0941055 0.0185678 0 0 0 -0.207047 -0.299623 0.271359 7.99301e-05 -9.11468e-05 0.000101323 0 0 0 0 1 0 0 0 0 0 0 0 0 0 0 0 26 0.002 
726 1 0.0100564 0.0982185 0.0169151 0 0 0 -0.0333474 -0.110423 -0.00259431 -0.000978056 0.000875282 -0.000572306 1 0 0 0 0 1 0 0 0 0 0 0 0 0 0 0 25 0.002 
892 5 0.00308659 0.0989674 0.0176442 0 0 0 -0.0654653 0.243208 -0.0371247 -0.0064818 0.00923108 0.00412563 0 0 0 1 0 0 0 0 0 0 0 0 0 0 0 0 15 0.002 
531 1 0.0034898 0.102934 0.0188133 0 0 0 -0.110187 -0.0151006 0.0491041 -0.00668779 0.000576345 -0.00235392 3 0 1 0 0 0 0 0 0 0 0 0 0 0 0 0 53 0.002 
107 2 0.016011 0.105043 0.0172262 0 0 0 -0.0593486 0.043809 0.169088 -0.0072902 0.00882159 0.00758081 0 1 0 1 0 0 0 0 0 0 0 0 0 0 0 0 14 0.002 
1142 2 0.00300101 0.106708 0.0175912 0 0 0 -0.000797545 -0.0137069 0.0596844 -5.51223e-05 0.00111315 -0.000484202 1 0 1 0 0 0 0 0 0 0 0 0 0 0 0 0 4 0.002 
1023 1 0.0138065 0.108001 0.0187424 0 0 0 -0.0148969 0.0327386 0.0976967 -0.00800869 0.00256482 0.0054418 1 1 0 0 0 0 0 0 0 0 0 0 0 0 0 0 15 0.002 
693 8 0.0143415 0.075351 0.0195575 0 0 0 -0.164415 -0.0808372 -0.432435 0 -0.000164368 0 0 0 0 0 0 0 0 0 0 0 0 0 0 0 0 0 33 0.002 
904 3 0.00363446 0.0834619 0.0198493 0 0 0 0.0729321 -0.056002 -0.129709 0 -0.000164368 0 0 0 0 0 0 0 0 0 0 0 0 0 0 0 0 0 12 0.002 
1228 8 0.0115807 0.0824267 0.0211239 0 0 0 -0.0735914 -0.240926 -0.0198798 0 -0.000164368 0 0 0 0 0 0 0 0 0 0 0 0 0 0 0 0 0 0 0.002 
979 4 0.0103824 0.0862477 0.0200161 0 0 0 -0.351878 -0.337545 0.234726 0 -0.000164368 0 0 0 0 0 0 0 0 0 0 0 0 0 0 0 0 0 24 0.002 
261 1 0.00658824 0.0914293 0.0198227 0 0 0 -0.20303 0.153284 0.0114881 0 -0.000164368 0 0 0 0 0 0 0 0 0 0 0 0 0 0 0 0 0 35 0.002 
876 14 0.0113391 0.0953951 0.0194348 0 0 0 -0.0831312 -0.0964879 0.0335777 0.00269194 0.00249487 0.000952792 1 0 0 0 0 0 0 0 0 0 0 0 0 2 0 0 15 0.002 