ITEM: TIMESTEP
9650000
ITEM: NUMBER OF ENTRIES
308
ITEM: BOX BOUNDS ff ff ff
-0.01 0.45
-0.15 0.15
-0.08 0.1
ITEM: ENTRIES c_pwc[1] c_pwc[2] c_pwc[3] 
0 954 122 
0 850 41 
0 885 41 
0 855 199 
0 855 263 
0 855 895 
0 895 821 
0 894 263 
0 894 662 
0 894 463 
0 894 945 
0 894 821 
0 894 625 
0 894 903 
0 894 499 
0 894 548 
0 894 29 
0 894 268 
0 894 352 
0 894 291 
0 894 104 
0 894 989 
0 894 874 
0 852 741 
0 855 830 
0 855 671 
0 855 792 
0 855 904 
0 855 931 
0 855 499 
0 854 534 
1 2706 752 
1 2704 752 
1 2705 752 
1 2722 752 
1 2698 752 
1 2717 752 
1 529 146 
1 530 146 
1 1842 146 
1 1826 146 
1 1827 146 
1 1828 146 
1 1830 146 
1 1831 146 
1 526 146 
1 541 146 
1 527 146 
1 523 146 
1 1873 146 
1 1874 146 
1 1883 146 
1 1861 146 
1 1892 146 
1 1893 146 
1 1871 146 
1 1885 146 
1 1868 146 
1 1869 146 
0 885 270 
0 885 969 
0 885 48 
0 885 127 
0 885 52 
0 885 908 
0 885 276 
0 885 6 
0 885 79 
0 885 351 
0 885 45 
0 885 39 
0 885 393 
0 850 270 
0 850 969 
0 850 48 
0 850 127 
0 850 52 
0 850 908 
0 850 276 
0 850 6 
0 850 79 
0 850 351 
0 850 45 
0 851 39 
0 851 393 
0 895 688 
0 895 767 
0 853 336 
0 884 891 
0 884 1120 
0 884 823 
0 885 1198 
0 894 734 
0 894 1080 
0 894 61 
0 894 581 
0 894 940 
0 894 194 
0 894 794 
0 895 970 
0 895 560 
0 895 829 
0 961 1029 
0 961 40 
0 753 1029 
0 753 40 
0 904 1106 
0 886 15 
0 885 15 
0 850 15 
0 889 1173 
0 891 604 
0 891 544 
0 892 213 
0 892 655 
0 895 1118 
0 895 258 
0 383 226 
0 379 389 
0 389 208 
0 387 431 
0 373 170 
0 373 571 
0 367 189 
0 395 1204 
0 437 1145 
0 433 358 
0 407 1194 
0 429 1179 
0 429 1182 
0 427 439 
0 425 1069 
0 419 612 
0 420 783 
0 415 757 
0 413 656 
0 413 443 
0 385 320 
0 385 269 
0 379 243 
0 375 1157 
0 390 1083 
0 391 138 
0 399 256 
0 439 228 
0 439 893 
0 434 470 
0 434 851 
0 432 191 
0 410 600 
0 426 31 
0 426 1164 
0 424 236 
0 425 994 
0 418 371 
0 535 838 
0 533 616 
0 527 413 
0 382 180 
0 380 609 
0 380 143 
0 376 413 
0 545 88 
0 539 743 
0 394 694 
0 390 1072 
0 518 115 
0 553 1195 
0 553 171 
0 551 217 
0 549 398 
0 549 85 
0 438 686 
0 408 630 
0 571 1038 
0 426 295 
0 563 22 
0 416 401 
0 537 812 
0 529 366 
0 529 284 
0 527 977 
0 527 412 
0 532 925 
0 545 614 
0 539 615 
0 523 1079 
0 523 870 
0 521 804 
0 519 57 
0 519 312 
0 551 733 
0 549 936 
0 589 1013 
0 517 611 
0 590 454 
0 561 556 
0 561 89 
0 559 622 
0 556 411 
0 581 35 
0 575 87 
0 582 148 
0 563 754 
0 536 388 
0 534 478 
0 532 201 
0 532 578 
0 530 944 
0 537 637 
0 535 117 
0 531 605 
0 540 528 
0 541 587 
0 541 247 
0 522 223 
0 520 689 
0 548 935 
0 587 134 
0 562 101 
0 560 722 
0 574 227 
0 568 1010 
0 1061 736 
0 1057 617 
0 1053 335 
0 1051 569 
0 1071 307 
0 1067 75 
0 1067 341 
0 544 837 
0 1079 447 
0 1077 549 
0 1077 367 
0 1113 25 
0 1109 379 
0 1087 817 
0 1085 1 
0 1081 500 
0 1081 771 
0 1101 98 
0 1101 485 
0 1097 950 
0 574 5 
0 572 816 
0 1091 565 
0 1091 864 
0 1091 28 
0 1089 408 
0 1089 81 
0 1053 169 
0 1068 596 
0 1066 279 
0 1066 66 
0 1065 277 
0 1045 643 
0 1042 372 
0 1042 422 
0 1078 177 
0 1075 494 
0 1114 281 
0 1111 94 
0 1083 90 
0 1081 147 
0 1081 670 
0 1109 135 
0 1108 429 
0 1107 119 
0 1106 238 
0 1105 197 
0 1102 190 
0 1102 646 
0 1101 793 
0 1094 212 
0 1091 67 
0 1090 418 
0 1279 441 
0 1064 265 
0 1056 421 
0 1295 78 
0 1067 642 
0 1050 93 
0 1050 672 
0 1050 487 
0 1042 166 
0 1305 160 
0 1078 153 
0 1117 858 
0 1228 315 
0 1309 315 
0 1084 23 
0 1094 162 
0 1283 109 
0 1295 241 
0 1271 120 
0 1341 363 
0 1314 10 
0 1313 163 
0 1310 518 
0 1309 100 
0 1333 215 
0 1331 785 
0 1327 198 
0 1325 251 
0 75 174 
0 123 37 
0 1332 292 
0 131 11 
