ITEM: TIMESTEP
9000000
ITEM: NUMBER OF ENTRIES
2723
ITEM: BOX BOUNDS ff ff ff
-0.01 0.45
-0.15 0.15
-0.08 0.1
ITEM: ENTRIES c_pwc[1] c_pwc[2] c_pwc[3] c_pwc[4] c_pwc[5] c_pwc[6] c_pwc[7] c_pwc[8] c_pwc[9] c_pwc[10] c_pwc[11] c_pwc[12] c_pwc[13] c_pwc[14] 
0 0 0 -0.000378805 -0.0632382 0.0785312 0 784 17147 -3.81343e-10 -1.99228e-05 -1.61135e-05 9.84238e-11 1.9581e-08 
0 0 0 -0.0489969 -0.0645543 0.103635 0 782 16821 5.7647e-09 1.10238e-05 5.09499e-06 5.05267e-10 1.00526e-07 
0 0 0 0.0014595 -0.00654709 0.0350238 0 778 3129 1.20244e-19 1.02659e-05 1.35713e-06 5.18851e-10 1.03229e-07 
0 0 0 0.00016903 -0.00557664 0.0298323 0 778 7649 6.14195e-19 1.02659e-05 1.35713e-06 5.18851e-10 1.03229e-07 
0 0 0 0.00115667 -0.0164475 0.0879873 0 778 12757 -1.15951e-05 2.1167e-05 -5.70179e-05 5.18519e-10 1.03163e-07 
0 0 0 0.0189386 5.61712e-06 -0.0995571 0 778 13923 -4.08193e-05 7.99286e-05 1.76705e-05 1.11437e-10 2.21701e-08 
0 0 0 0.0403748 0.0129843 -0.06946 0 778 15694 6.54389e-19 1.02659e-05 1.35713e-06 5.18851e-10 1.03229e-07 
0 0 0 0.00617289 -0.00363738 0.0194582 0 778 7654 -2.55684e-19 1.02659e-05 1.35713e-06 5.18851e-10 1.03229e-07 
0 0 0 -0.00419345 -0.000895539 0.00475765 0 778 14580 -9.17122e-12 1.02176e-05 1.3473e-06 5.15882e-10 1.02638e-07 
0 0 0 -0.00138874 -0.000200503 0.000772598 0 778 4413 -5.74093e-06 1.13221e-05 1.94552e-06 5.44762e-10 1.08384e-07 
0 0 0 -0.0170064 -0.00137641 0.00736313 0 778 15381 -7.3499e-20 1.02659e-05 1.35713e-06 5.18851e-10 1.03229e-07 
0 0 0 0.00584871 -0.0147498 0.0789045 0 778 15828 6.11656e-19 1.02659e-05 1.35713e-06 5.18851e-10 1.03229e-07 
0 0 0 0.0145628 -0.0100004 0.0534975 0 778 12332 9.36721e-19 1.02659e-05 1.35713e-06 5.18851e-10 1.03229e-07 
0 0 0 0.00500013 -0.00795546 0.0427162 0 778 4306 -2.46977e-05 1.22156e-05 -2.56257e-06 5.64328e-10 1.12277e-07 
0 0 0 0.0198875 -0.00269431 0.0142535 0 778 2611 -2.75258e-06 1.17422e-05 -2.67853e-06 5.3602e-10 1.06645e-07 
0 0 0 0.0136455 -0.00443203 0.0237228 0 778 12917 2.53093e-12 1.02789e-05 1.35983e-06 5.19833e-10 1.03424e-07 
0 0 0 0.00773569 -0.00452436 0.0242032 0 778 255 -1.62749e-15 1.02659e-05 1.35713e-06 5.1885e-10 1.03229e-07 
0 0 0 0.0184183 -0.00343972 0.0184001 0 778 2015 -8.70459e-13 1.0266e-05 1.35714e-06 5.18822e-10 1.03223e-07 
0 0 0 0.0260012 -0.00728357 0.0389636 0 778 4848 -4.9693e-16 1.02659e-05 1.35713e-06 5.18851e-10 1.03229e-07 
0 0 0 -0.00542005 -0.00696826 0.0462962 0 778 6949 -5.98652e-06 6.73556e-05 -1.87482e-05 1.99216e-09 3.96426e-07 
0 0 0 0.0264802 -0.00317247 0.0169625 0 778 12116 4.37092e-08 1.00191e-05 1.42795e-06 5.10796e-10 1.01626e-07 
0 0 0 0.141214 -0.00697111 0.0375461 0 778 1637 2.83994e-09 1.42458e-05 2.15759e-06 6.56596e-10 1.30636e-07 
0 0 0 0.0192179 -0.00379261 0.0202886 0 778 15272 -2.69605e-18 1.02659e-05 1.35713e-06 5.18851e-10 1.03229e-07 
0 0 0 0.0285108 -0.00177449 0.00949268 0 778 10496 -1.00467e-18 1.02659e-05 1.35713e-06 5.18851e-10 1.03229e-07 
0 0 0 0.167716 -0.00372254 0.0199138 0 778 15517 1.29017e-07 1.03033e-05 1.15683e-06 5.18851e-10 1.03229e-07 
0 0 0 -0.0450993 -0.00324966 0.0173841 0 778 7764 -1.22701e-18 1.02659e-05 1.35713e-06 5.18851e-10 1.03229e-07 
0 0 0 -0.0440906 -0.0173291 0.0926911 0 778 16330 1.96473e-06 1.07556e-05 -1.14228e-06 5.19136e-10 1.03285e-07 
0 0 0 0.0155789 0.00715146 -0.0382569 0 778 13527 5.49347e-19 1.02659e-05 1.35713e-06 5.18851e-10 1.03229e-07 
0 0 0 -0.0388307 0.00262731 -0.014039 0 778 5892 -3.60237e-08 1.03095e-05 1.36103e-06 5.20939e-10 1.03644e-07 
0 0 0 -0.0230867 -0.00116056 0.0062052 0 778 5399 4.94539e-06 9.88738e-06 3.38275e-06 5.18726e-10 1.03204e-07 
0 0 0 0.0595962 0.0110943 -0.0593493 0 778 8496 -6.6613e-18 1.02659e-05 1.35713e-06 5.18851e-10 1.03229e-07 
0 0 0 0.00146851 -9.34329e-08 0.0133278 0 776 7937 -3.83199e-14 1.05198e-05 -3.47783e-13 5.24813e-10 1.04415e-07 
0 0 0 -0.0144739 -4.94167e-11 0.0152219 0 776 5540 1.87601e-16 1.05196e-05 -1.97213e-16 5.24825e-10 1.04417e-07 
0 0 0 -0.00859313 1.28919e-10 0.0165227 0 776 1200 -3.04684e-16 1.05196e-05 5.85857e-16 5.24825e-10 1.04417e-07 
0 0 0 0.000633329 -5.87173e-12 0.000455784 0 776 1871 7.55388e-20 1.05196e-05 -5.51077e-20 5.24825e-10 1.04417e-07 
0 0 0 0.00398379 -9.81376e-08 4.92837e-06 0 776 206 -2.22553e-09 1.05342e-05 1.60069e-08 5.25291e-10 1.0451e-07 
0 0 0 6.58319e-05 2.46663e-06 -0.000696336 0 776 1972 2.82678e-09 1.06413e-05 1.83208e-07 5.294e-10 1.05328e-07 
0 0 0 0.0033381 1.0619e-07 -0.000858055 0 776 733 -3.81495e-08 1.13877e-05 9.16883e-07 5.53336e-10 1.1009e-07 
0 0 0 -0.00140667 5.93401e-05 0.0025953 0 776 10595 -5.53532e-09 1.43737e-05 -1.74597e-06 6.58422e-10 1.31e-07 
0 0 0 -0.00766047 7.15972e-05 0.00333877 0 776 894 -5.79879e-08 9.94503e-06 -2.1915e-07 5.21179e-10 1.03692e-07 
0 0 0 0.000426427 -6.81349e-05 0.00187684 0 776 9680 -3.55411e-08 1.1452e-05 -3.82961e-07 5.40858e-10 1.07607e-07 
0 0 0 0.00279107 0.000199643 0.00219032 0 776 414 -1.72586e-08 1.07652e-05 1.00319e-06 5.75992e-10 1.14598e-07 
0 0 0 0.00567401 -0.000364919 0.00231031 0 776 280 -4.69909e-07 2.8879e-05 -1.44319e-05 9.62189e-10 1.91444e-07 
0 0 0 0.000202002 -0.000261872 -0.000315823 0 776 1894 -1.02999e-07 1.59467e-05 7.79365e-06 6.39695e-10 1.27273e-07 
0 0 0 -0.00631459 0.000165222 0.000831613 0 776 9977 -7.78488e-07 1.70393e-05 4.14223e-06 7.56828e-10 1.5058e-07 
0 0 0 -0.00846102 -0.000593048 0.00117451 0 776 1225 -4.25748e-07 7.20114e-06 -1.16982e-05 2.72079e-10 5.41302e-08 
0 0 0 -0.000251073 6.76842e-05 0.00150489 0 776 3512 -1.02207e-08 2.89793e-06 -1.06491e-05 2.40363e-10 4.78201e-08 
0 0 0 0.00320815 0.00016026 0.0021773 0 776 101 -1.3496e-08 1.42272e-05 -1.81318e-06 6.7481e-10 1.3426e-07 
0 0 0 0.0144844 -2.92659e-05 0.000985146 0 776 317 -2.60112e-10 1.05123e-05 -4.63775e-10 5.18248e-10 1.03109e-07 
0 0 0 0.0125076 3.83416e-05 0.00166543 0 776 1705 6.69624e-10 1.00151e-05 7.16257e-10 5.16276e-10 1.02717e-07 
0 0 0 0.0028871 -1.75476e-05 0.0012439 0 776 2352 -5.21695e-09 1.13683e-05 -1.06804e-08 5.48935e-10 1.09215e-07 
0 0 0 0.00338667 -0.000864909 0.000728959 0 776 9269 -1.24947e-08 1.74603e-05 -1.27358e-07 5.64309e-10 1.12274e-07 
0 0 0 0.00811427 -1.04288e-05 0.000602372 0 776 6408 5.0547e-09 1.05035e-05 2.44381e-08 5.22034e-10 1.03862e-07 
0 0 0 0.00650338 2.32083e-05 0.000947656 0 776 553 9.45846e-11 9.80484e-06 2.09898e-09 5.05859e-10 1.00644e-07 
0 0 0 0.00447722 1.19256e-05 0.00336483 0 776 585 1.71724e-11 1.06459e-05 5.93232e-13 5.31596e-10 1.05765e-07 
0 0 0 0.0170295 -4.7511e-06 -3.65667e-05 0 776 2069 -4.10893e-10 1.06275e-05 4.70772e-09 5.27382e-10 1.04926e-07 
0 0 0 0.00987957 -1.58367e-06 -0.000701963 0 776 531 -1.63745e-08 1.03267e-05 1.17003e-07 5.18049e-10 1.03069e-07 
0 0 0 0.0149253 2.34878e-05 0.0138979 0 776 8455 8.6706e-11 1.0409e-05 1.13776e-10 5.26234e-10 1.04698e-07 
0 0 0 0.00258464 -1.93291e-12 0.000117245 0 776 11208 -9.67739e-19 1.05196e-05 -4.40558e-20 5.24825e-10 1.04417e-07 
0 0 0 0.00544827 1.06484e-12 -5.32366e-05 0 776 6702 2.34088e-19 1.05196e-05 -2.33039e-21 5.24825e-10 1.04417e-07 
0 0 0 0.0108923 -5.37421e-07 0.00231359 0 776 1002 -1.6423e-12 1.05237e-05 -3.48964e-13 5.24847e-10 1.04422e-07 
0 0 0 0.010611 -2.81016e-12 0.00147988 0 776 1470 -2.15897e-19 1.05196e-05 -2.70719e-20 5.24825e-10 1.04417e-07 
0 0 0 0.0188371 -1.07016e-06 0.000639535 0 776 154 3.55608e-12 1.05162e-05 -6.68061e-11 5.24481e-10 1.04349e-07 
0 0 0 0.0147064 1.22271e-05 -5.1686e-05 0 776 1045 -1.51931e-07 1.12477e-05 6.26886e-07 5.51388e-10 1.09703e-07 
0 0 0 0.0160328 2.99348e-11 0.0198637 0 776 10613 1.15259e-16 1.05196e-05 1.41672e-16 5.24825e-10 1.04417e-07 
0 0 0 0.0144369 -4.58265e-12 0.00710181 0 776 4634 -1.75451e-18 1.05196e-05 1.20326e-18 5.24825e-10 1.04417e-07 
0 0 0 0.0155206 3.10602e-07 0.0102551 0 776 72 1.35939e-12 1.05153e-05 8.98374e-13 5.24749e-10 1.04402e-07 
0 0 0 0.0195469 -5.71059e-12 0.0122183 0 776 4165 -1.40721e-18 1.05196e-05 -6.89977e-19 5.24825e-10 1.04417e-07 
0 0 0 0.00647827 3.25778e-05 -0.0027546 0 776 3087 5.80592e-06 7.58959e-05 -2.37978e-06 1.96429e-09 3.90879e-07 
0 0 0 0.0141966 4.28661e-10 0.00782678 0 776 4185 1.81392e-15 1.05195e-05 9.99943e-16 5.24824e-10 1.04417e-07 
0 0 0 0.0210566 -0.00187664 -0.00427532 0 776 1920 -5.86184e-06 2.86268e-05 -3.22993e-06 6.82111e-10 1.35713e-07 
0 0 0 0.00874501 -2.71562e-07 0.00659373 0 776 1063 -6.53455e-13 1.05215e-05 -5.11831e-13 5.24829e-10 1.04418e-07 
0 0 0 0.0322751 2.82956e-12 0.00645423 0 776 4095 -9.13169e-19 1.05196e-05 -1.19794e-18 5.24825e-10 1.04417e-07 
0 0 0 0.023921 -6.51626e-12 0.00512202 0 776 4938 -2.39606e-18 1.05196e-05 5.99002e-19 5.24825e-10 1.04417e-07 
0 0 0 0.0149481 -4.65371e-05 0.00328265 0 776 18 -6.69053e-07 1.38043e-05 7.53709e-07 6.19425e-10 1.2324e-07 
0 0 0 0.00832854 1.95387e-07 0.00508196 0 776 12691 4.61466e-13 1.05175e-05 2.80976e-13 5.24798e-10 1.04412e-07 
0 0 0 0.0157175 5.08545e-12 0.00995894 0 776 9715 7.95185e-19 1.05196e-05 4.02544e-19 5.24825e-10 1.04417e-07 
0 0 0 0.0156888 -1.4963e-05 0.00663024 0 776 1036 -1.50742e-07 6.66237e-06 -1.87287e-08 3.83563e-10 7.63111e-08 
0 0 0 0.037808 5.89113e-12 0.00306366 0 776 8603 3.63658e-18 1.05196e-05 -3.02153e-19 5.24825e-10 1.04417e-07 
0 0 0 0.0329057 -4.26038e-12 0.0261048 0 776 1367 -2.45129e-18 1.05196e-05 -2.45155e-18 5.24825e-10 1.04417e-07 
0 0 0 0.016124 0.00010336 0.00685802 0 776 4532 -1.19434e-06 1.37055e-05 -1.35937e-06 6.47451e-10 1.28817e-07 
0 0 0 0.0263751 4.11864e-12 0.0157305 0 776 9639 -4.79227e-18 1.05196e-05 2.3129e-19 5.24825e-10 1.04417e-07 
0 0 0 0.026746 -7.0867e-14 0.0324214 0 776 7185 4.61034e-18 1.05196e-05 4.79204e-18 5.24825e-10 1.04417e-07 
0 0 0 0.0311736 4.12538e-13 0.00122764 0 776 3983 9.34282e-19 1.05196e-05 -1.34198e-19 5.24825e-10 1.04417e-07 
0 0 0 0.0199416 -5.54945e-12 0.0182933 0 776 7431 -2.32249e-18 1.05196e-05 -2.31344e-18 5.24825e-10 1.04417e-07 
0 0 0 0.0134264 5.2076e-05 0.0179162 0 776 1366 -4.7692e-06 3.04528e-06 -5.12743e-06 2.43532e-10 4.84507e-08 
0 0 0 0.0326197 -4.26038e-12 -0.000451174 0 776 9279 4.7916e-18 1.05196e-05 1.11098e-20 5.24825e-10 1.04417e-07 
0 0 0 0.0106418 5.75717e-06 0.0163192 0 776 4164 1.84687e-10 1.05357e-05 -4.64247e-10 5.26606e-10 1.04772e-07 
0 0 0 0.0245972 0.0151283 -0.0809292 0 779 8467 -1.10916e-18 1.02659e-05 1.35713e-06 5.18851e-10 1.03229e-07 
0 0 0 0.0506701 0.00802296 -0.042919 0 779 10802 9.85911e-18 1.02659e-05 1.35713e-06 5.18851e-10 1.03229e-07 
0 0 0 0.0596029 -0.00103115 0.00551614 0 779 15618 -1.48668e-17 1.02659e-05 1.35713e-06 5.18851e-10 1.03229e-07 
0 0 0 0.0022897 -9.96454e-05 0.0152613 0 777 5611 -6.91575e-11 9.99535e-06 -3.98838e-10 4.85494e-10 9.65918e-08 
0 0 0 0.00578517 3.02659e-11 0.0123242 0 777 12304 4.72137e-17 1.05196e-05 1.00673e-16 5.24825e-10 1.04417e-07 
0 0 0 0.00508042 3.64244e-06 0.00767947 0 777 10360 1.22204e-07 1.09981e-05 -5.00439e-07 5.41405e-10 1.07716e-07 
0 0 0 0.0124546 5.10159e-10 0.0145835 0 777 14724 1.72662e-15 1.05196e-05 2.02195e-15 5.24825e-10 1.04417e-07 
0 0 0 0.0306442 -0.00493096 0.0523074 0 777 5953 -4.92433e-05 8.96416e-05 -0.000560233 1.44918e-09 2.88356e-07 
0 0 0 -0.00531995 -3.18655e-05 -0.0380155 0 777 14256 -2.74018e-06 1.12942e-05 4.93773e-06 5.43466e-10 1.08127e-07 
0 0 0 -0.00273815 8.27839e-06 -0.0029433 0 777 7286 6.30231e-06 1.27349e-05 9.08403e-07 5.97867e-10 1.18951e-07 
0 0 0 0.00258559 -0.000313998 -0.00170252 0 775 2116 -3.10164e-09 1.03402e-05 -1.36126e-06 5.22224e-10 1.039e-07 
0 0 0 0.00497162 -0.00055234 -0.00295715 0 775 12 6.63944e-13 1.02677e-05 -1.35751e-06 5.19008e-10 1.0326e-07 
0 0 0 0.00651556 3.52756e-05 0.000658594 0 775 4248 7.68552e-09 1.11876e-05 -1.52584e-06 5.31269e-10 1.057e-07 
0 0 0 0.00437819 0.000230617 0.00450212 0 775 9210 -4.93763e-07 1.87669e-05 -3.27623e-06 6.62126e-10 1.31737e-07 
0 0 0 0.00896464 -0.00089932 0.00505121 0 775 1890 -6.14229e-08 4.93455e-05 -1.02831e-05 1.19005e-09 2.36788e-07 
0 0 0 0.0127591 0.00360185 0.019277 0 775 10907 -7.28061e-12 1.03361e-05 -1.37077e-06 5.20887e-10 1.03634e-07 
0 0 0 0.0118964 0.00309748 0.0165701 0 775 6574 -4.76172e-14 1.02657e-05 -1.3571e-06 5.18842e-10 1.03227e-07 
0 0 0 0.01414 0.00367131 0.0196397 0 775 1749 5.43259e-14 1.02659e-05 -1.35715e-06 5.18856e-10 1.0323e-07 
0 0 0 0.00478873 0.00154316 0.00824954 0 775 3630 1.55591e-12 1.02648e-05 -1.35698e-06 5.1904e-10 1.03266e-07 
0 0 0 0.0163331 0.00358617 0.0191843 0 775 11044 -1.39407e-14 1.02655e-05 -1.35706e-06 5.18838e-10 1.03226e-07 
0 0 0 0.000430721 -0.000185745 -0.000984162 0 774 2641 -1.67615e-08 9.5646e-06 -1.12629e-06 4.93693e-10 9.82232e-08 
0 0 0 -0.00729232 -0.00110846 -0.00586615 0 774 5113 -4.9046e-10 9.88687e-06 -1.28217e-06 5.03294e-10 1.00133e-07 
0 0 0 0.000325169 2.42315e-05 -0.00095962 0 774 210 5.32051e-07 7.16715e-06 -5.40636e-07 4.51687e-10 8.98652e-08 
0 0 0 -0.00114295 -0.000329424 -0.00164807 0 774 3865 2.0126e-10 1.09318e-05 -1.48651e-06 5.36792e-10 1.06799e-07 
0 0 0 -0.00336706 -0.000767539 -0.004106 0 774 4325 -5.60688e-15 1.0266e-05 -1.35715e-06 5.18856e-10 1.0323e-07 
0 0 0 -0.00255468 -0.000984867 -0.00356206 0 774 1165 1.39239e-05 3.36728e-05 2.38621e-06 1.0607e-09 2.11048e-07 
0 0 0 0.00690963 0.000196045 0.00125318 0 774 3869 -2.92181e-11 1.01507e-05 -1.33082e-06 5.06725e-10 1.00816e-07 
0 0 0 -0.00695921 -0.00322782 -0.0172289 0 774 9441 -6.21767e-11 1.01257e-05 -1.32898e-06 5.12524e-10 1.0197e-07 
0 0 0 0.00349329 -0.000477025 -0.00254557 0 774 6076 -1.31943e-08 9.73005e-06 -1.18834e-06 4.99771e-10 9.94324e-08 
0 0 0 -0.0037822 -0.00330926 -0.0143948 0 774 4050 -3.41024e-06 1.4705e-05 -2.23374e-06 5.36966e-10 1.06833e-07 
0 0 0 0.00189905 -0.000855506 -0.00492402 0 774 3081 2.34573e-08 9.69873e-06 -1.24408e-06 5.13315e-10 1.02127e-07 
0 0 0 0.00683219 -6.49573e-05 -0.000330271 0 774 1541 9.02956e-10 1.04148e-05 -1.38641e-06 5.2323e-10 1.041e-07 
0 0 0 0.0133731 0.00154221 0.00825007 0 774 3998 2.53202e-15 1.02659e-05 -1.35713e-06 5.18851e-10 1.03229e-07 
0 0 0 0.0127565 0.00187932 0.0100535 0 774 12874 3.85765e-19 1.02659e-05 -1.35713e-06 5.18851e-10 1.03229e-07 
0 0 0 0.0131864 0.00191694 0.0102547 0 774 9650 2.63434e-20 1.02659e-05 -1.35713e-06 5.18851e-10 1.03229e-07 
0 0 0 -0.00086485 0.00233423 0.0115203 0 774 5900 -3.78958e-05 2.86201e-06 -3.45639e-05 5.18051e-10 1.0307e-07 
0 0 0 0.00330418 0.00500661 0.026783 0 774 7843 -1.5257e-16 1.02659e-05 -1.35713e-06 5.18851e-10 1.03229e-07 
0 0 0 0.0146283 0.00329887 0.0176474 0 774 2966 5.55494e-19 1.02659e-05 -1.35713e-06 5.18851e-10 1.03229e-07 
0 0 0 6.23038 41.5129 25.5174 0 948 12857 0.122476 0.124172 -0.214059 2.48997e-07 5.1173e-05 
0 0 0 17.5952 36.7915 32.6938 0 946 15786 0.145586 0.172819 -0.234461 3.13994e-07 6.51173e-05 
0 0 0 6.38685e-05 -0.000987599 -0.00522944 0 774 10425 -1.41783e-09 9.83517e-06 -1.24478e-06 5.01732e-10 9.98226e-08 
0 0 0 0.00346968 -0.000887547 -0.0046754 0 774 7315 -7.14631e-09 1.10642e-05 -1.4405e-06 5.42422e-10 1.07919e-07 
0 0 0 0.000672912 -0.00167426 -0.00895649 0 774 2953 8.96575e-19 1.02659e-05 -1.35713e-06 5.18851e-10 1.03229e-07 
0 0 0 0.0207773 -0.00151398 -0.00809906 0 774 5016 5.44907e-19 1.02659e-05 -1.35713e-06 5.18851e-10 1.03229e-07 
0 0 0 0.0252447 0.00058504 0.00312968 0 774 5294 7.80576e-19 1.02659e-05 -1.35713e-06 5.18851e-10 1.03229e-07 
0 0 0 -0.000589096 -0.00156277 -0.00832844 0 774 2858 1.62949e-08 1.51707e-05 -2.42686e-06 6.74233e-10 1.34146e-07 
0 0 0 -3.28737e-05 0.00165684 0.00886333 0 774 13272 6.34594e-19 1.02659e-05 -1.35713e-06 5.18851e-10 1.03229e-07 
0 0 0 0.004903 0.00791889 0.0423623 0 774 13605 -4.78298e-20 1.02659e-05 -1.35713e-06 5.18851e-10 1.03229e-07 
0 0 0 -0.00946015 -0.00307846 -0.0164683 0 774 13823 9.65061e-19 1.02659e-05 -1.35713e-06 5.18851e-10 1.03229e-07 
0 0 0 -0.00642718 -0.000410653 0.000960634 0 774 3484 2.10446e-05 -1.54363e-06 -4.78135e-05 2.77683e-10 5.52451e-08 
0 0 0 -0.00182086 -0.000667621 -0.00357145 0 774 5875 4.50503e-19 1.02659e-05 -1.35713e-06 5.18851e-10 1.03229e-07 
0 0 0 0.00533116 -0.000213334 -0.00393001 0 774 11158 -1.76967e-05 2.16041e-05 6.41829e-05 6.01036e-10 1.19581e-07 
0 0 0 0.00434107 0.00540457 0.0289119 0 774 2150 -4.08222e-20 1.02659e-05 -1.35713e-06 5.18851e-10 1.03229e-07 
0 0 0 0.000627919 -0.000575535 -0.00307884 0 774 3877 -1.54313e-19 1.02659e-05 -1.35713e-06 5.18851e-10 1.03229e-07 
0 0 0 -0.013285 0.00328303 0.0175626 0 774 8267 5.62983e-18 1.02659e-05 -1.35713e-06 5.18851e-10 1.03229e-07 
0 0 0 0.0117147 -0.00425426 -0.0227583 0 774 7002 6.20493e-20 1.02659e-05 -1.35713e-06 5.18851e-10 1.03229e-07 
0 0 0 0.0253931 -0.0016381 -0.00876353 0 774 14998 6.62169e-13 1.02598e-05 -1.35596e-06 5.18664e-10 1.03192e-07 
0 0 0 0.004738 -0.00599098 -0.0320489 0 774 13214 -8.25692e-19 1.02659e-05 -1.35713e-06 5.18851e-10 1.03229e-07 
0 0 0 -0.0961724 0.0115794 0.0619462 0 774 6057 -7.60902e-07 1.00367e-05 -2.55618e-06 5.1861e-10 1.03181e-07 
0 0 0 -0.00758177 0.00526338 0.0281566 0 774 3491 2.33848e-19 1.02659e-05 -1.35713e-06 5.18851e-10 1.03229e-07 
0 0 0 -0.0416016 -0.000624896 -0.0033429 0 774 16108 6.41294e-18 1.02659e-05 -1.35713e-06 5.18851e-10 1.03229e-07 
0 0 0 0.00652359 0.00615015 0.0329003 0 774 11656 1.47655e-19 1.02659e-05 -1.35713e-06 5.18851e-10 1.03229e-07 
0 0 0 0.0464917 -0.00541485 -0.0289669 0 774 6053 6.65138e-18 1.02659e-05 -1.35713e-06 5.18851e-10 1.03229e-07 
0 0 0 0.0108875 0.0050217 0.0268637 0 774 6493 1.60082e-16 1.02659e-05 -1.35713e-06 5.18851e-10 1.03229e-07 
0 0 0 0.0208817 0.00419308 0.022431 0 774 10974 2.67743e-16 1.02659e-05 -1.35713e-06 5.18851e-10 1.03229e-07 
0 0 0 -0.647433 0.0440691 0.0483415 0 768 16065 3.84803e-06 5.37508e-06 -5.64322e-06 4.28995e-10 8.53504e-08 
0 0 0 -0.00988796 0.0252599 -0.0440663 0 884 4511 -0.000274629 0.000592812 0.00129664 8.74862e-09 1.74238e-06 
0 0 0 0.015485 -0.0575271 0.00137765 0 884 12057 9.51115e-06 1.39595e-05 0.000278928 4.83677e-09 9.62825e-07 
0 0 0 -0.00180745 -0.033775 0.0129744 0 884 14529 8.51483e-06 9.57123e-05 0.000192181 5.35427e-09 1.06591e-06 
0 0 0 -0.00125672 0.0148323 0.00117925 0 884 3353 1.21169e-05 -0.000821206 7.62391e-05 2.14844e-09 4.27534e-07 
0 0 0 0.00181701 0.0121294 0.0129019 0 884 2873 -0.000113866 9.7963e-05 0.00010449 4.29581e-09 8.55082e-07 
0 0 0 -0.000474309 0.0234376 0.0103732 0 884 11395 3.52229e-05 -0.000760391 0.000457215 7.67655e-09 1.52866e-06 
0 0 0 7.09872e-226 8.48801e-20 5.89795e-12 0 884 5230 -1.16429e-226 5.25978e-06 -1.62002 1.22522e-06 0.0003 
0 0 0 -0.00526406 -0.00970647 0.00778895 0 884 13505 2.14905e-06 0.000157111 0.000409613 6.93849e-09 1.38156e-06 
0 0 0 0.0103625 0.00373214 -0.00565758 0 884 10083 -0.000257641 -0.000106296 0.000222871 3.28268e-09 6.53335e-07 
0 0 0 -0.00894241 0.00961502 0.00294567 0 884 2268 4.29364e-08 6.22256e-06 -1.10927e-05 3.87676e-10 7.71295e-08 
0 0 0 4.05872e-268 -8.49381e-20 1.18145e-12 0 884 3064 7.91822e-269 5.25978e-06 -1.62002 1.22522e-06 0.0003 
0 0 0 0.0136984 -0.0156065 -0.000424343 0 884 15085 3.02722e-05 -0.000101167 0.00024635 4.2396e-09 8.43888e-07 
0 0 0 -3.6166e-303 -8.48736e-20 2.36054e-12 0 884 871 7.45966e-307 5.25978e-06 -1.62002 1.22522e-06 0.0003 
0 0 0 1.76209e-30 -8.47875e-20 2.36056e-12 0 884 1962 -3.21231e-32 5.25978e-06 -1.62002 1.22522e-06 0.0003 
0 0 0 0.0286747 0.0175128 0.00905569 0 884 10273 -2.43615e-06 -0.000179938 0.00035991 6.61211e-09 1.31652e-06 
0 0 0 -1.86713e-18 -2.17261e-17 -5.89597e-13 0 884 2565 -0.000366432 -0.00331019 -1.61968 1.22509e-06 0.000299958 
0 0 0 -1.26834e-302 -3.76924e-20 4.72346e-12 0 884 2145 3.91171e-307 5.25978e-06 -1.62002 1.22522e-06 0.0003 
0 0 0 0.0473556 -0.0198855 -0.0029069 0 884 8097 -8.19341e-05 5.44421e-06 0.00016423 2.87983e-09 5.7313e-07 
0 0 0 -1.22532e-13 4.20734e-14 5.90018e-12 0 884 7394 2.05322e-14 5.25978e-06 -1.62002 1.22522e-06 0.0003 
0 0 0 0.0439166 -0.0259774 0.0192576 0 884 16569 -5.32966e-05 0.000529672 0.000513253 9.16999e-09 1.8264e-06 
0 0 0 0.0161073 0.00867065 0.00819961 0 884 12850 -2.16199e-08 -2.73441e-05 0.000363108 6.54111e-09 1.30237e-06 
0 0 0 1.05442e-147 8.49492e-20 -2.36058e-12 0 884 3089 2.33989e-150 5.25978e-06 -1.62002 1.22522e-06 0.0003 
0 0 0 -2.43428e-61 8.48143e-20 3.53506e-12 0 884 1269 -1.33785e-62 5.25978e-06 -1.62002 1.22522e-06 0.0003 
0 0 0 0.0317461 -0.0111692 0.000154542 0 884 10778 -1.49428e-05 2.57525e-05 5.95476e-05 1.69177e-09 3.36638e-07 
0 0 0 -2.01865e-302 -5.67957e-20 -3.53501e-12 0 884 7839 7.55161e-307 5.25978e-06 -1.62002 1.22522e-06 0.0003 
0 0 0 0.0142761 -0.000903772 0.00758343 0 884 1828 2.90668e-06 1.81496e-05 -3.67617e-05 7.04275e-10 1.40123e-07 
0 0 0 0.72782 -1.71242 -1.4743 0 884 12566 -0.00283211 -0.0407716 0.130496 2.09423e-07 4.28088e-05 
0 0 0 -0.0172967 0.00791498 -0.00348431 0 884 9388 0.000249013 9.4728e-05 0.000129779 2.30645e-09 4.58985e-07 
0 0 0 -6.31527e-35 -2.82003e-20 -5.8979e-12 0 884 5274 3.41025e-35 5.25978e-06 -1.62002 1.22522e-06 0.0003 
0 0 0 0.175142 -0.183229 0.0176739 0 884 2011 -1.49796e-06 6.52601e-07 3.2679e-06 3.60491e-09 7.17495e-07 
0 0 0 -0.0192406 0.0368106 0.0246298 0 884 65 -7.77604e-06 0.000259949 0.000670181 1.10142e-08 2.19422e-06 
0 0 0 -4.26143e-16 7.48075e-17 -4.12838e-12 0 884 2130 0.0553778 0.0030167 -1.61636 1.2238e-06 0.000299547 
0 0 0 0.0746866 0.0325062 0.00827775 0 884 12853 -6.0786e-05 -2.6246e-05 -1.66082e-05 4.75294e-12 9.45568e-10 
0 0 0 -0.000608188 0.0509636 0.0249287 0 884 5395 0.000261252 -0.000146844 0.000539295 1.00149e-08 1.9949e-06 
0 0 0 0.0336231 0.0969573 -0.0104986 0 884 14297 0.000438148 -0.000146856 0.000924209 9.28481e-09 1.84929e-06 
0 0 0 0.256384 0.0305992 0.00697461 0 884 8914 1.83029e-05 -7.75878e-06 9.405e-05 3.29972e-09 6.56728e-07 
0 0 0 0.0433299 0.111098 0.0131016 0 884 9771 -6.05171e-06 -3.70073e-05 -7.49978e-05 5.52384e-10 1.09901e-07 
0 0 0 0.0239327 0.0175003 -0.00621052 0 884 12435 -9.16724e-05 0.000159448 0.00107007 1.08005e-08 2.15159e-06 
0 0 0 0.0594821 -0.00986468 0.000649389 0 884 2189 -0.000322177 -0.000361067 0.000967817 1.07482e-08 2.14115e-06 
0 0 0 4.26282e-16 -7.64588e-17 -4.12857e-12 0 884 4708 -0.0637567 -0.00346182 -1.62369 1.22664e-06 0.000300453 
0 0 0 0.112493 0.150828 0.0209311 0 884 12553 0.000122793 6.554e-06 0.000761233 1.13123e-08 2.25369e-06 
0 0 0 0.337386 -0.208757 1.84471 0 870 4636 0.000978404 -0.00038466 0.000302251 4.18446e-08 8.36849e-06 
0 0 0 -2.30196e-15 3.09109e-17 -2.73215e-19 0 863 2723 -1.61852 0.00940676 2.20624e-05 1.22464e-06 0.000299814 
0 0 0 -2.15293e-15 3.8371e-17 -2.56006e-19 0 863 4560 -1.62152 -0.013102 -2.92936e-05 1.2258e-06 0.000300186 
0 0 0 2.33011e-15 4.62991e-20 -2.06418e-302 0 862 444 -1.62002 5.25978e-06 2.62452e-307 1.22522e-06 0.0003 
0 0 0 -2.36833e-15 5.11535e-19 2.20738e-20 0 862 927 -1.62002 9.33398e-05 -8.54159e-07 1.22522e-06 0.0003 
0 0 0 -0.642759 -0.302623 -0.836245 0 854 610 0.0314637 -0.00943104 0.0125916 7.19584e-08 1.44461e-05 
0 0 0 -0.0303023 -0.0472008 -0.136025 0 854 14531 0.000480236 4.07225e-05 0.00023664 3.32017e-09 6.608e-07 
0 0 0 -0.0395662 0.107793 0.0884247 0 854 5635 0.000712113 -0.000287771 0.000209676 4.56337e-09 9.0837e-07 
0 0 0 -0.00180745 -0.033775 0.0129744 0 854 14529 1.02991e-05 -2.25918e-06 -9.09626e-05 1.53024e-10 3.04438e-08 
0 0 0 -0.0142478 -0.0166529 0.0813374 0 854 8101 0.000202184 4.89771e-05 8.84353e-05 1.92432e-09 3.82924e-07 
0 0 0 -0.00908653 0.00425749 0.0562504 0 854 8785 0.000110343 5.48748e-05 -5.71515e-06 1.22066e-09 2.4288e-07 
0 0 0 0.0087762 -0.000706067 -0.0369949 0 854 15747 5.48884e-05 1.54335e-05 6.86503e-06 2.99024e-09 5.9511e-07 
0 0 0 0.022563 0.0840124 -0.102959 0 854 9545 0.000471755 -0.000157439 0.000175645 9.19111e-09 1.83061e-06 
0 0 0 0.015362 -0.0301338 0.0242104 0 854 14322 -2.86387e-05 3.06918e-05 -7.94676e-06 2.68392e-09 5.34127e-07 
0 0 0 0.00384424 0.025192 0.00823981 0 854 5546 -1.69057e-05 5.48852e-06 6.4286e-06 1.67455e-10 3.33148e-08 
0 0 0 0.00939478 0.127487 0.167712 0 854 8633 0.000207159 -7.29825e-05 -7.35004e-05 5.05679e-09 1.00665e-06 
0 0 0 0.00546656 0.0454763 0.0885547 0 854 11430 0.000334159 -9.43981e-05 -0.000137857 5.92441e-09 1.17949e-06 
0 0 0 0.000345414 0.0269722 0.0419811 0 854 11676 0.000126368 3.10631e-06 -3.61911e-05 2.8014e-09 5.57516e-07 
0 0 0 0.00838469 0.00127723 0.0359485 0 854 16643 0.000140582 -0.000115132 -4.81661e-05 4.12497e-09 8.21058e-07 
0 0 0 0.00602272 0.0480398 0.0272925 0 854 4199 0.000166558 -7.114e-05 -4.32959e-05 4.12791e-09 8.21645e-07 
0 0 0 0.00181701 0.0121294 0.0129019 0 854 2873 0.000165675 -3.72858e-05 -7.39715e-05 3.54451e-09 7.0547e-07 
0 0 0 -0.00433487 0.0655825 -0.017118 0 854 81 0.000260902 -0.0006639 0.000125594 3.91283e-09 7.78813e-07 
0 0 0 -0.00912117 0.0972221 0.0917212 0 854 14708 0.000249377 -0.000103053 -7.01942e-05 3.171e-09 6.31099e-07 
0 0 0 -0.0231654 -0.00567176 -0.0484966 0 854 15504 0.000672829 -0.000166499 0.000292323 5.89856e-09 1.17434e-06 
0 0 0 0.000746515 0.0258443 0.0550179 0 854 13802 4.41922e-05 -1.43243e-05 -1.68241e-05 1.49337e-09 2.97152e-07 
0 0 0 -0.0104584 0.0195973 0.00966799 0 854 7102 0.000858626 3.77001e-05 -0.00017085 8.78021e-09 1.74868e-06 
0 0 0 0.0103027 0.027115 0.00965159 0 854 11410 -2.84715e-05 -0.000150867 2.06116e-05 1.70333e-09 3.38939e-07 
0 0 0 0.00379301 0.0137435 0.0212895 0 854 5008 3.63677e-05 6.68213e-07 -8.78438e-06 1.86064e-09 3.70248e-07 
0 0 0 -0.00389396 -0.0189119 0.0102388 0 854 13281 5.98185e-05 2.97826e-05 2.74988e-06 1.04817e-09 2.08555e-07 
0 0 0 -0.00870058 0.0552395 0.0731067 0 854 11271 0.000617777 -0.00013515 -0.000277753 6.96938e-09 1.38772e-06 
0 0 0 -0.00145032 0.0335355 -0.0489945 0 854 2510 3.54186e-05 -0.000290628 0.000431924 9.23312e-10 1.83708e-07 
0 0 0 0.00603523 0.0132766 0.0469232 0 854 12409 9.0877e-05 -1.79412e-05 5.91959e-06 3.11497e-09 6.19944e-07 
0 0 0 -0.00256708 0.0184096 0.0210255 0 854 5085 0.00013339 8.41254e-05 2.08083e-05 2.48974e-09 4.95471e-07 
0 0 0 0.00172743 0.00833057 0.00349297 0 854 3386 -3.02932e-07 1.15984e-07 9.74142e-08 5.41569e-10 1.07749e-07 
0 0 0 0.00984619 0.0300108 0.0893274 0 854 5352 0.000126988 -0.000174446 -0.000479048 4.15485e-09 8.27008e-07 
0 0 0 -0.00899989 0.0788696 -0.00307298 0 854 2226 0.000200006 -9.99367e-05 3.63365e-06 2.55454e-09 5.08371e-07 
0 0 0 0.00364637 -0.0121437 0.0623698 0 854 10631 0.000364431 -3.83347e-05 -1.54329e-07 6.01021e-09 1.19659e-06 
0 0 0 -0.0117866 -0.00516255 0.00879948 0 854 4354 0.000343434 3.74167e-05 -0.000149043 3.93932e-09 7.84086e-07 
0 0 0 7.09872e-226 8.48801e-20 5.89795e-12 0 850 5230 -1.16429e-226 5.25978e-06 1.62002 1.22522e-06 0.0003 
0 0 0 4.05872e-268 -8.49381e-20 1.18145e-12 0 850 3064 7.91822e-269 5.25978e-06 1.62002 1.22522e-06 0.0003 
0 0 0 2.94984e-302 8.49752e-20 4.7235e-12 0 850 478 1.59354e-307 5.25978e-06 1.62002 1.22522e-06 0.0003 
0 0 0 -3.6166e-303 -8.48736e-20 2.36054e-12 0 850 871 -8.40793e-307 5.25978e-06 1.62002 1.22522e-06 0.0003 
0 0 0 1.76209e-30 -8.47875e-20 2.36056e-12 0 850 1962 -3.21231e-32 5.25978e-06 1.62002 1.22522e-06 0.0003 
0 0 0 -1.58088e-302 5.6455e-20 -2.36053e-12 0 850 283 -3.19606e-307 5.25978e-06 1.62002 1.22522e-06 0.0003 
0 0 0 1.85971e-18 1.20468e-17 -5.89565e-13 0 850 6540 0.000366432 0.00332071 1.61968 1.22509e-06 0.000299958 
0 0 0 -1.86713e-18 -2.17261e-17 -5.89597e-13 0 850 2565 -0.000456452 -0.00412468 1.62036 1.22535e-06 0.000300042 
0 0 0 -1.26834e-302 -3.76924e-20 4.72346e-12 0 850 2145 -2.98157e-307 5.25978e-06 1.62002 1.22522e-06 0.0003 
0 0 0 4.30398e-302 -7.52619e-20 2.3606e-12 0 850 5520 -3.26354e-307 5.25978e-06 1.62002 1.22522e-06 0.0003 
0 0 0 5.3577e-17 3.86663e-18 -6.48724e-12 0 850 10198 0.0116404 0.000746045 1.62246 1.22617e-06 0.000300301 
0 0 0 -1.22532e-13 4.20734e-14 5.90018e-12 0 850 7394 2.05322e-14 5.25978e-06 1.62002 1.22522e-06 0.0003 
0 0 0 1.18096e-302 -4.7176e-20 1.18144e-12 0 850 2321 6.24278e-307 5.25978e-06 1.62002 1.22522e-06 0.0003 
0 0 0 1.01028e-302 -9.32647e-21 -5.89788e-12 0 850 7581 -8.21295e-307 5.25978e-06 1.62002 1.22522e-06 0.0003 
0 0 0 1.05442e-147 8.49492e-20 -2.36058e-12 0 850 3089 2.33989e-150 5.25978e-06 1.62002 1.22522e-06 0.0003 
0 0 0 -2.43428e-61 8.48143e-20 3.53506e-12 0 850 1269 -1.33785e-62 5.25978e-06 1.62002 1.22522e-06 0.0003 
0 0 0 -4.78203e-17 -2.56011e-18 -6.48657e-12 0 850 5323 -0.0057685 -0.000361842 1.61758 1.22428e-06 0.000299699 
0 0 0 2.79905e-156 -6.63628e-20 -1.18143e-12 0 850 392 -2.81216e-158 5.25978e-06 1.62002 1.22522e-06 0.0003 
0 0 0 -3.79469e-302 8.48407e-20 -3.53498e-12 0 850 13677 -9.44456e-307 5.25978e-06 1.62002 1.22522e-06 0.0003 
0 0 0 -2.01865e-302 -5.67957e-20 -3.53501e-12 0 850 7839 -8.49228e-307 5.25978e-06 1.62002 1.22522e-06 0.0003 
0 0 0 1.54567e-16 -2.63781e-17 1.56093e-13 0 850 9691 0.0223979 0.00345618 1.61997 1.2252e-06 0.000299994 
0 0 0 5.90586e-303 -2.83115e-20 4.72342e-12 0 850 1583 7.60062e-307 5.25978e-06 1.62002 1.22522e-06 0.0003 
0 0 0 -7.80179e-106 -8.49927e-20 -2.36057e-12 0 850 4567 -2.89243e-107 5.25978e-06 1.62002 1.22522e-06 0.0003 
0 0 0 6.17943e-16 2.40752e-15 1.55617e-13 0 850 10506 0.109354 0.289098 1.65804 1.23984e-06 0.000304675 
0 0 0 7.40785e-17 2.26012e-15 1.55543e-13 0 850 14345 -0.101475 -0.225266 1.58234 1.21048e-06 0.00029533 
0 0 0 6.44558e-183 -6.60902e-20 5.8979e-12 0 850 8195 1.78795e-183 5.25978e-06 1.62002 1.22522e-06 0.0003 
0 0 0 -6.31527e-35 -2.82003e-20 -5.8979e-12 0 850 5274 3.41025e-35 5.25978e-06 1.62002 1.22522e-06 0.0003 
0 0 0 -1.8199e-302 -3.76264e-20 3.53501e-12 0 850 10333 1.34196e-307 5.25978e-06 1.62002 1.22522e-06 0.0003 
0 0 0 -4.26143e-16 7.48075e-17 -4.12838e-12 0 850 2130 0.0637567 0.00347234 1.62369 1.22664e-06 0.000300453 
0 0 0 4.26282e-16 -7.64588e-17 -4.12857e-12 0 850 4708 -0.0553778 -0.00300618 1.61636 1.2238e-06 0.000299547 
0 0 0 2.33011e-15 4.62991e-20 -2.06418e-302 0 822 444 1.62002 5.25978e-06 -3.5466e-307 1.22522e-06 0.0003 
0 0 0 -2.36833e-15 5.11535e-19 2.20738e-20 0 821 927 1.62002 9.33397e-05 -8.54159e-07 1.22522e-06 0.0003 
0 0 0 -2.30196e-15 3.09109e-17 -2.73215e-19 0 821 2723 1.62152 0.0130245 3.01479e-05 1.2258e-06 0.000300186 
0 0 0 -2.15293e-15 3.8371e-17 -2.56006e-19 0 820 4560 1.61852 -0.0094843 -2.12083e-05 1.22464e-06 0.000299814 