ITEM: TIMESTEP
9400000
ITEM: NUMBER OF ENTRIES
2779
ITEM: BOX BOUNDS ff ff ff
-0.01 0.45
-0.15 0.15
-0.08 0.1
ITEM: ENTRIES c_pwc[1] c_pwc[2] c_pwc[3] c_pwc[4] c_pwc[5] c_pwc[6] c_pwc[7] c_pwc[8] c_pwc[9] c_pwc[10] c_pwc[11] c_pwc[12] c_pwc[13] c_pwc[14] 
0 0 0 0.0490451 -0.108667 0.280503 0 780 14539 1.71265e-12 9.53808e-06 2.53061e-06 5.00917e-10 9.96605e-08 
0 0 0 0.205716 -0.0992749 0.256258 0 780 15203 -1.03789e-17 9.53905e-06 2.53098e-06 5.00925e-10 9.96621e-08 
0 0 0 0.0015365 -4.79496e-08 -0.00164699 0 778 3129 -7.02994e-06 1.405e-05 4.79444e-06 5.93801e-10 1.18142e-07 
0 0 0 -0.122011 -0.00795263 0.042601 0 778 13923 -0.000261785 -5.82683e-05 0.000367402 5.17605e-10 1.02981e-07 
0 0 0 0.00124995 -0.0042471 0.0229889 0 778 14170 3.52208e-07 8.79448e-06 2.44655e-06 4.87242e-10 9.69395e-08 
0 0 0 0.00179593 0.00218664 -0.0116975 0 778 12757 3.44613e-19 1.02659e-05 1.35713e-06 5.18851e-10 1.03229e-07 
0 0 0 0.00291571 -9.0142e-05 0.000294158 0 778 8040 -8.34213e-06 1.63824e-05 3.16762e-06 7.06858e-10 1.40637e-07 
0 0 0 -0.0270852 0.0027832 -0.00800691 0 778 14527 -0.0173343 3.4443e-05 -0.000166455 5.61435e-10 1.11702e-07 
0 0 0 0.0104072 -0.00167775 0.00889218 0 778 15555 2.08854e-09 9.67465e-06 1.24383e-06 4.95172e-10 9.85175e-08 
0 0 0 -0.00956386 -0.00283431 0.0151591 0 778 7654 4.04493e-12 1.0275e-05 1.35886e-06 5.19036e-10 1.03266e-07 
0 0 0 -0.000311102 0.000536014 -0.00398002 0 778 14580 -1.08848e-05 9.23961e-06 1.49673e-05 5.24257e-10 1.04304e-07 
0 0 0 -0.00275014 -0.00408846 0.0220538 0 778 17336 -2.4024e-09 1.07119e-05 1.44226e-06 5.41157e-10 1.07667e-07 
0 0 0 -0.000704509 -0.000211417 0.00111277 0 778 14360 7.94113e-11 1.02511e-05 1.35401e-06 5.17619e-10 1.02984e-07 
0 0 0 -0.00262458 0.00266097 -0.0142349 0 778 5338 4.65363e-06 1.05783e-05 -3.14345e-07 5.18851e-10 1.03229e-07 
0 0 0 -0.00205257 -0.00237712 0.0127164 0 778 15828 2.34727e-19 1.02659e-05 1.35713e-06 5.18851e-10 1.03229e-07 
0 0 0 -0.0617867 0.0198444 -0.106158 0 778 15381 -1.46647e-17 1.02659e-05 1.35713e-06 5.18851e-10 1.03229e-07 
0 0 0 0.0027955 -0.000955259 0.00460491 0 778 12332 -6.83564e-08 1.06715e-05 1.44432e-06 5.12616e-10 1.01988e-07 
0 0 0 0.000887917 -0.0021753 0.0119027 0 778 3837 -1.15179e-08 1.06243e-05 1.42689e-06 5.41533e-10 1.07742e-07 
0 0 0 -0.00182198 -0.000432626 0.00231434 0 778 17589 1.91731e-19 1.02659e-05 1.35713e-06 5.18851e-10 1.03229e-07 
0 0 0 0.00330994 0.00102543 -0.0050383 0 778 16821 2.72739e-07 9.85976e-06 1.27676e-06 5.22869e-10 1.04028e-07 
0 0 0 -0.0551456 0.00614044 -0.0328484 0 778 8467 1.24708e-14 1.02659e-05 1.35713e-06 5.18851e-10 1.03229e-07 
0 0 0 0.0016564 0.000205012 -0.00105733 0 778 4306 2.76786e-08 1.24315e-05 1.75135e-06 5.91607e-10 1.17705e-07 
0 0 0 0.0787814 0.0136042 -0.0727757 0 778 13193 2.8354e-14 1.02659e-05 1.35713e-06 5.18851e-10 1.03229e-07 
0 0 0 -0.0367328 -0.000540477 0.00289129 0 778 11996 -3.29388e-18 1.02659e-05 1.35713e-06 5.18851e-10 1.03229e-07 
0 0 0 0.0739781 0.00852561 -0.0456079 0 778 13527 -2.80672e-17 1.02659e-05 1.35713e-06 5.18851e-10 1.03229e-07 
0 0 0 -0.259995 0.0056144 -0.0300426 0 778 752 2.25759e-06 9.32198e-06 6.48232e-06 5.18988e-10 1.03256e-07 
0 0 0 -0.00241584 -0.00475684 0.0242327 0 778 1637 -8.916e-11 1.32606e-05 1.94218e-06 5.70088e-10 1.13424e-07 
0 0 0 0.00112931 0.000394859 -0.00111647 0 776 7649 -4.09433e-07 -1.11915e-06 3.81433e-07 3.22724e-11 6.42042e-09 
0 0 0 3.12197e-05 -5.57355e-05 0.000461735 0 776 7937 -3.79638e-08 9.59014e-06 -1.18704e-07 4.8119e-10 9.57354e-08 
0 0 0 -0.000370507 -3.18933e-08 0.000126682 0 776 5540 -2.47127e-14 1.05196e-05 2.04643e-13 5.2482e-10 1.04416e-07 
0 0 0 -0.00103522 0.000237782 0.000795002 0 776 1200 9.25662e-06 2.06192e-05 -4.53906e-06 8.67947e-10 1.72691e-07 
0 0 0 -0.00013802 4.03452e-06 0.000341966 0 776 1871 -5.06953e-08 1.03096e-05 2.31356e-07 5.18696e-10 1.03198e-07 
0 0 0 -0.000355044 0.000163288 -0.000663064 0 776 1972 1.91837e-06 1.14116e-05 5.88794e-06 5.88945e-10 1.17175e-07 
0 0 0 -0.00018993 -8.23219e-06 -0.00119023 0 776 733 -3.26754e-07 9.84276e-06 2.44781e-06 5.00265e-10 9.95308e-08 
0 0 0 -0.000865548 0.000346937 8.53112e-05 0 776 10595 2.00981e-07 1.60066e-05 -4.49834e-07 7.64263e-10 1.5206e-07 
0 0 0 -0.00245911 3.14546e-05 -0.000724764 0 776 894 5.97437e-07 1.05485e-05 -8.25458e-07 5.32591e-10 1.05963e-07 
0 0 0 -0.000898364 4.9117e-05 -0.00231643 0 776 9680 4.52027e-09 1.49443e-07 -2.62274e-07 5.20831e-11 1.03617e-08 
0 0 0 0.000285213 -1.90692e-05 -4.61972e-05 0 776 414 1.64518e-10 1.0773e-05 -9.06283e-11 5.29111e-10 1.0527e-07 
0 0 0 8.30285e-05 -8.62641e-05 -0.000341103 0 776 206 -3.05177e-06 1.5058e-05 3.76279e-06 6.48996e-10 1.29124e-07 
0 0 0 -0.000101592 -2.70026e-05 -0.0012007 0 776 1894 4.78419e-07 5.76973e-06 2.84492e-06 3.45205e-10 6.86793e-08 
0 0 0 -0.000795756 -0.000123927 0.00111104 0 776 9977 -1.2077e-07 1.04912e-05 -5.00204e-08 4.97052e-10 9.88914e-08 
0 0 0 -0.000814212 5.01578e-07 -0.00145457 0 776 1225 -1.14477e-13 1.05143e-05 -2.05007e-13 5.24757e-10 1.04404e-07 
0 0 0 5.25429e-05 1.67365e-05 -0.0014407 0 776 3512 1.22432e-09 1.06403e-05 1.40818e-09 5.32447e-10 1.05934e-07 
0 0 0 0.000738947 -3.46881e-05 -0.000116111 0 776 690 2.30988e-07 1.19045e-05 2.68225e-06 5.62576e-10 1.11929e-07 
0 0 0 0.000603699 -7.46909e-05 3.91695e-06 0 776 280 -1.20068e-06 8.67034e-06 -3.10307e-08 4.4467e-10 8.84692e-08 
0 0 0 0.00137513 0.000120754 -0.00352642 0 776 2352 -2.1997e-06 8.87696e-06 7.50597e-07 4.95545e-10 9.85916e-08 
0 0 0 -0.000715973 -6.73509e-06 -0.000239384 0 776 101 -1.69425e-09 1.04916e-05 -2.10389e-09 5.22435e-10 1.03942e-07 
0 0 0 0.00134056 7.00303e-05 0.000414736 0 776 317 1.64113e-07 1.10534e-05 -1.26192e-07 5.57465e-10 1.10912e-07 
0 0 0 0.00538186 5.03199e-05 -9.62244e-05 0 776 1705 -1.99003e-09 1.05772e-05 2.07116e-09 5.3762e-10 1.06963e-07 
0 0 0 0.00149127 -0.000398319 0.00547166 0 776 5611 -1.15009e-05 2.37919e-05 -3.04041e-06 8.29028e-10 1.64947e-07 
0 0 0 0.000900893 4.86142e-05 -0.00102475 0 776 9269 3.22893e-07 1.08396e-05 1.47661e-07 5.45884e-10 1.08608e-07 
0 0 0 -0.000382793 -2.53345e-05 -0.00189815 0 776 6408 3.80727e-06 1.75368e-05 5.53656e-06 7.3282e-10 1.45803e-07 
0 0 0 0.000367369 8.54394e-05 4.43531e-05 0 776 11208 -1.24157e-07 9.75524e-06 -8.55543e-08 5.17811e-10 1.03022e-07 
0 0 0 -0.00108168 9.10355e-05 -1.171e-05 0 776 553 1.89922e-07 3.82313e-06 6.68715e-07 2.90602e-10 5.78155e-08 
0 0 0 -0.000776836 -1.1477e-08 -0.0034275 0 776 585 2.49162e-15 1.05199e-05 1.13751e-14 5.24835e-10 1.04419e-07 
0 0 0 0.00346046 -3.68996e-05 -0.000955638 0 776 2069 1.30581e-07 1.26629e-05 2.40603e-06 5.86139e-10 1.16617e-07 
0 0 0 0.00304724 0.000199823 -0.000984169 0 776 531 -2.22087e-06 8.89215e-06 2.76486e-06 5.13656e-10 1.02195e-07 
0 0 0 -0.00499333 4.77577e-07 -0.00626083 0 776 6702 -2.3802e-11 1.05208e-05 2.03929e-12 5.24969e-10 1.04446e-07 
0 0 0 0.00985338 -3.20043e-11 0.000208576 0 776 1002 -8.74832e-17 1.05196e-05 -1.85114e-18 5.24825e-10 1.04417e-07 
0 0 0 0.00259839 2.25368e-11 -0.000746639 0 776 1470 1.73392e-17 1.05196e-05 -4.9645e-18 5.24825e-10 1.04417e-07 
0 0 0 -0.00146202 -6.34411e-07 -0.000182594 0 776 154 4.32084e-13 1.05226e-05 -8.09553e-12 5.2479e-10 1.0441e-07 
0 0 0 0.000466789 1.43054e-05 0.000344203 0 776 1045 -2.94595e-07 1.09953e-05 3.50866e-07 5.43605e-10 1.08154e-07 
0 0 0 0.00144655 -2.75306e-05 0.00320492 0 776 10613 -6.11023e-09 1.07286e-05 -2.38063e-10 5.25815e-10 1.04614e-07 
0 0 0 -0.00139969 -2.55712e-06 0.0107226 0 776 4634 -1.07512e-09 1.05004e-05 3.78311e-10 5.23633e-10 1.0418e-07 
0 0 0 0.00297115 2.17856e-06 0.00133847 0 776 72 5.0935e-12 1.05039e-05 -9.72301e-12 5.24774e-10 1.04407e-07 
0 0 0 0.00377205 1.95249e-06 0.00186204 0 776 4165 9.9911e-13 1.0541e-05 2.78718e-12 5.25961e-10 1.04644e-07 
0 0 0 -0.00426073 -9.6028e-07 0.00766677 0 776 1920 1.12894e-12 1.05099e-05 -2.03442e-12 5.24297e-10 1.04312e-07 
0 0 0 -0.00788107 -8.09815e-08 0.0089319 0 776 3087 1.77283e-13 1.05193e-05 -2.00922e-13 5.24798e-10 1.04412e-07 
0 0 0 0.00261635 -1.00994e-06 -0.00542992 0 776 1063 8.79439e-11 1.05174e-05 5.54621e-11 5.24534e-10 1.0436e-07 
0 0 0 -0.0254843 2.66843e-12 0.062746 0 776 4185 -2.39595e-18 1.05196e-05 -9.58324e-18 5.24825e-10 1.04417e-07 
0 0 0 -0.00553411 0.00124862 0.0100153 0 776 18 8.65972e-06 4.57196e-05 -6.38706e-06 1.60883e-09 3.20131e-07 
0 0 0 -0.00169841 0.00211037 0.00225271 0 776 4938 -7.86281e-09 -3.46117e-06 2.53384e-08 5.14217e-10 1.02307e-07 
0 0 0 -0.00846818 -2.35347e-12 0.0187544 0 776 9715 1.15207e-18 1.05196e-05 -2.3958e-18 5.24825e-10 1.04417e-07 
0 0 0 -0.0218147 -2.71877e-06 0.0174204 0 776 4095 1.65477e-11 1.05235e-05 -1.32146e-11 5.24367e-10 1.04326e-07 
0 0 0 -0.000894789 -6.34547e-05 0.00919983 0 776 1367 -6.7128e-08 4.06082e-06 1.19284e-06 2.6216e-10 5.21567e-08 
0 0 0 -0.00322776 -1.59966e-07 0.00635926 0 776 1036 1.78446e-12 1.05318e-05 5.04663e-13 5.25197e-10 1.04492e-07 
0 0 0 -0.0111369 3.81732e-06 0.00636032 0 776 12691 -1.20441e-11 1.04905e-05 6.67093e-12 5.24684e-10 1.04389e-07 
0 0 0 0.000222704 6.3577e-08 0.00794694 0 776 9639 3.07632e-15 1.05357e-05 1.09688e-13 5.25374e-10 1.04527e-07 
0 0 0 0.00314828 -0.0019798 0.00659282 0 776 7185 -3.74521e-06 1.95959e-05 -9.05389e-06 4.16469e-10 8.28581e-08 
0 0 0 -0.00234459 -0.000489523 0.00544619 0 776 4532 7.27052e-06 1.02596e-05 -3.61689e-05 4.10044e-10 8.15798e-08 
0 0 0 -0.00968277 8.10052e-07 0.00697983 0 776 8603 -2.20894e-12 1.05092e-05 1.59303e-12 5.24655e-10 1.04384e-07 
0 0 0 -0.00158286 5.13625e-05 0.00715769 0 776 3427 -2.03415e-07 9.1579e-06 -4.08087e-08 4.89876e-10 9.74637e-08 
0 0 0 0.0224957 -0.00013733 0.0162084 0 776 10496 1.68517e-06 9.58429e-06 1.06452e-05 4.63058e-10 9.21278e-08 
0 0 0 0.000360256 0.000141606 0.00859457 0 776 14724 -1.10009e-07 1.07581e-05 -9.66188e-06 5.63256e-10 1.12064e-07 
0 0 0 -0.00809504 8.26911e-05 0.00483597 0 776 3983 2.97555e-07 1.00259e-05 -4.39585e-07 5.26316e-10 1.04714e-07 
0 0 0 0.00156691 -0.000396604 0.00442362 0 776 1118 5.44929e-08 8.03453e-06 3.65671e-08 3.48986e-10 6.94315e-08 
0 0 0 -0.0127891 -8.95897e-05 0.0255514 0 776 9160 1.84586e-05 3.81441e-05 -4.79806e-06 1.22295e-09 2.43336e-07 
0 0 0 -3.1231e-05 -6.31961e-05 0.00876909 0 776 9279 1.69441e-06 1.16088e-05 -2.83584e-07 5.46997e-10 1.08829e-07 
0 0 0 0.00195972 -9.23725e-05 0.00118381 0 776 1366 -1.87367e-06 1.20192e-05 -1.31207e-06 5.54033e-10 1.10229e-07 
0 0 0 0.00134975 -0.000442631 0.0275569 0 776 7286 -2.40076e-06 8.34541e-06 3.41289e-06 3.50516e-10 6.9736e-08 
0 0 0 0.0126166 -0.000507581 0.00101576 0 776 1887 -3.61095e-05 4.69188e-06 -2.24338e-05 1.82427e-10 3.62935e-08 
0 0 0 0.00554629 0.000615116 0.00135741 0 776 4164 -1.78425e-05 2.12282e-05 2.76024e-05 9.56368e-10 1.90286e-07 
0 0 0 -0.00573882 -9.12382e-06 0.00334253 0 776 215 4.03645e-07 8.21897e-06 1.21031e-07 4.43153e-10 8.81673e-08 
0 0 0 0.0305411 0.000586361 0.00380182 0 777 16330 -1.092e-05 5.38755e-05 -7.20281e-06 1.65576e-09 3.29472e-07 
0 0 0 0.00106417 -4.98931e-06 -0.00191171 0 775 2116 -6.64719e-08 -5.74418e-07 4.27476e-07 9.68807e-11 1.9274e-08 
0 0 0 -0.00589282 0.00129198 0.00979177 0 775 4248 3.47805e-06 -1.39292e-06 -1.34273e-05 5.21971e-12 1.03843e-09 
0 0 0 -0.00243306 0.00241619 0.0137338 0 775 6544 3.79479e-08 1.4038e-05 -2.08797e-06 6.09916e-10 1.21348e-07 
0 0 0 0.000184265 0.00151565 0.00682276 0 775 9210 -8.0752e-08 7.07466e-06 -4.13221e-07 4.55792e-10 9.06821e-08 
0 0 0 -0.0013639 0.000895143 0.00432731 0 775 1890 -1.54836e-07 9.92593e-06 -1.44775e-06 5.26667e-10 1.04784e-07 
0 0 0 0.00510959 0.000794746 0.00338471 0 775 6574 1.40816e-07 3.25823e-05 -2.46888e-05 1.23216e-09 2.45167e-07 
0 0 0 0.00859126 0.000418651 0.00223963 0 775 1749 -2.12883e-14 1.02663e-05 -1.35722e-06 5.18864e-10 1.03231e-07 
0 0 0 0.000238375 -0.000500332 -0.000965277 0 839 5113 3.60211e-06 3.09151e-06 7.84686e-07 3.18419e-10 6.335e-08 
0 0 0 0.0015365 -4.79496e-08 -0.00164699 0 838 3129 1.58142e-05 -5.28095e-06 -7.90596e-07 9.97185e-10 1.98408e-07 
0 0 0 0.00112931 0.000394859 -0.00111647 0 838 7649 3.15507e-05 6.63437e-06 -8.67034e-06 1.2946e-09 2.57595e-07 
0 0 0 -0.000355044 0.000163288 -0.000663064 0 832 1972 1.15471e-05 5.6454e-07 -3.84296e-06 4.82889e-10 9.60736e-08 
0 0 0 0.00025455 -0.000188035 -0.00106144 0 774 2641 8.60977e-10 7.2189e-06 -2.28399e-07 4.0762e-10 8.10976e-08 
0 0 0 0.000238375 -0.000500332 -0.000965277 0 774 5113 -6.98237e-07 6.84979e-06 1.88925e-06 3.02501e-10 6.0183e-08 
0 0 0 0.00104429 0.000179968 -0.000677986 0 774 10425 4.92514e-08 1.11282e-05 -1.12262e-06 6.10008e-10 1.21366e-07 
0 0 0 0.000808073 -0.000140679 -0.00141009 0 774 210 3.77158e-07 8.07815e-06 -1.43444e-06 4.71927e-10 9.38923e-08 
0 0 0 -0.000585521 -0.000370013 -0.00121625 0 774 3865 -3.29997e-08 1.22875e-05 -8.90983e-07 5.51063e-10 1.09638e-07 
0 0 0 0.000638133 2.30998e-05 -0.00124403 0 774 4325 5.72601e-07 1.58095e-05 2.28866e-08 7.31566e-10 1.45554e-07 
0 0 0 -0.00207349 -0.00055834 -0.00308146 0 774 3869 2.05993e-11 9.99822e-06 -1.30645e-06 5.13488e-10 1.02162e-07 
0 0 0 -0.000392274 -0.000512244 -0.00265292 0 774 1165 -4.22203e-09 1.0501e-05 -1.40665e-06 5.23384e-10 1.04131e-07 
0 0 0 0.00129645 -0.000880939 -0.000697891 0 774 9441 -5.38279e-06 3.86257e-06 -5.52147e-06 1.3594e-10 2.70448e-08 
0 0 0 0.000639306 -0.000818481 -0.00383679 0 774 8682 5.24062e-07 1.2212e-05 -1.42116e-06 5.60387e-10 1.11493e-07 
0 0 0 -0.00848998 -0.00142921 -0.00758949 0 774 6076 -5.09906e-08 9.9086e-06 -1.29635e-06 5.04407e-10 1.00355e-07 
0 0 0 0.0040747 -0.00043521 -0.00407337 0 774 4050 -8.98906e-07 8.94012e-06 -1.89048e-06 5.48697e-10 1.09167e-07 
0 0 0 0.0015254 -0.0016094 -0.00571753 0 774 13823 5.42635e-06 1.30108e-05 4.98135e-06 4.56524e-10 9.08277e-08 
0 0 0 0.00437228 0.00052049 0.00172551 0 774 5875 -1.04773e-06 1.08415e-05 -1.32222e-06 5.79247e-10 1.15246e-07 
0 0 0 -0.00128461 8.43539e-05 0.00275531 0 774 3081 8.86175e-06 6.89135e-06 -1.28575e-05 3.8418e-10 7.64338e-08 
0 0 0 -0.00613811 0.00188635 0.00998461 0 774 1541 -4.48232e-11 1.04379e-05 -1.39175e-06 5.28939e-10 1.05236e-07 
0 0 0 0.00455738 0.00177456 0.00969229 0 774 3877 -1.45119e-06 1.09283e-05 -1.24811e-06 5.31886e-10 1.05822e-07 
0 0 0 -0.00104135 0.00269019 0.014381 0 774 3998 -4.80337e-13 1.02714e-05 -1.35832e-06 5.1945e-10 1.03348e-07 
0 0 0 -0.00832701 0.000751659 0.0040078 0 774 12874 -5.5968e-12 1.0258e-05 -1.35572e-06 5.19109e-10 1.0328e-07 
0 0 0 0.00247177 0.00212841 0.0113854 0 774 9650 7.33594e-14 1.02654e-05 -1.35705e-06 5.18859e-10 1.0323e-07 
0 0 0 -0.00266808 -0.000833254 -0.00445751 0 774 3491 5.71174e-19 1.02659e-05 -1.35713e-06 5.18851e-10 1.03229e-07 
0 0 0 -0.0034294 0.0012653 0.00675187 0 774 5900 -1.46529e-11 1.01843e-05 -1.34139e-06 5.16744e-10 1.0281e-07 
0 0 0 0.001868 0.000373138 0.003959 0 774 11656 6.72309e-06 2.89288e-06 -2.54071e-05 3.36942e-10 6.70352e-08 
0 0 0 0.00980452 0.00179857 0.00961523 0 774 7843 3.10385e-12 1.02812e-05 -1.3602e-06 5.19624e-10 1.03383e-07 
0 0 0 -2.68789 16.6875 7.09859 0 873 14002 0.150162 -0.0609099 -0.0438991 1.87507e-07 3.82161e-05 
0 0 0 2.02634 10.3629 1.70698 0 952 3786 0.0084218 0.00174588 -0.0167584 2.69343e-08 5.37647e-06 
0 0 0 -0.00025048 -0.000111808 0.000104872 0 774 7315 3.02534e-06 1.5059e-05 1.53139e-06 6.24152e-10 1.24181e-07 
0 0 0 -0.000546998 0.00080709 -0.000146978 0 774 2953 1.66474e-07 1.28732e-05 -1.83172e-06 7.74938e-10 1.54184e-07 
0 0 0 0.00238829 -0.000476354 -0.00340347 0 774 15754 6.41943e-07 7.6204e-06 -8.97355e-07 4.60473e-10 9.16135e-08 
0 0 0 0.00444239 0.000302549 0.00161849 0 774 8237 -5.99769e-19 1.02659e-05 -1.35713e-06 5.18851e-10 1.03229e-07 
0 0 0 -0.00160912 0.000322301 0.00171316 0 774 3999 -3.73138e-09 1.00882e-05 -1.32536e-06 5.13235e-10 1.02111e-07 
0 0 0 -0.0758455 -0.00246575 -0.0131906 0 774 9854 1.64722e-17 1.02659e-05 -1.35713e-06 5.18851e-10 1.03229e-07 
0 0 0 -0.00155622 -0.00103724 -0.00554874 0 774 13272 2.15492e-19 1.02659e-05 -1.35713e-06 5.18851e-10 1.03229e-07 
0 0 0 0.00444059 0.00111317 0.00595491 0 774 5294 3.35991e-19 1.02659e-05 -1.35713e-06 5.18851e-10 1.03229e-07 
0 0 0 0.00625702 -0.00189117 -0.0112991 0 774 11158 7.37258e-07 6.13326e-06 -6.75621e-07 4.18438e-10 8.32498e-08 
0 0 0 0.0094399 -0.00221434 -0.0118458 0 774 13605 8.16472e-14 1.02651e-05 -1.35698e-06 5.1883e-10 1.03225e-07 
0 0 0 -0.00120202 0.00454826 0.024331 0 774 8267 -2.08366e-19 1.02659e-05 -1.35713e-06 5.18851e-10 1.03229e-07 
0 0 0 0.0167873 0.00376402 0.0062064 0 774 3484 -3.92582e-06 1.74325e-05 4.05924e-06 1.21202e-09 2.4116e-07 
0 0 0 0.00752734 0.0050033 0.0267653 0 774 7002 3.15499e-19 1.02659e-05 -1.35713e-06 5.18851e-10 1.03229e-07 
0 0 0 0.00638349 0.00817116 0.0437118 0 774 2150 2.86385e-19 1.02659e-05 -1.35713e-06 5.18851e-10 1.03229e-07 
0 0 0 -0.0141692 0.00236865 0.0125931 0 774 13214 -5.68792e-11 1.00323e-05 -1.31234e-06 5.13988e-10 1.02261e-07 
0 0 0 0.0101227 0.000438781 0.00234582 0 774 14998 7.5054e-13 1.02657e-05 -1.35711e-06 5.18902e-10 1.03239e-07 
0 0 0 0.00492437 -0.00167198 -0.008958 0 774 16108 3.51117e-12 1.02254e-05 -1.34939e-06 5.1802e-10 1.03063e-07 
0 0 0 0.00535912 -0.000183629 -0.000979334 0 774 6053 -6.08093e-13 1.0275e-05 -1.35889e-06 5.19044e-10 1.03267e-07 
0 0 0 0.0358746 -0.00446238 -0.0238719 0 774 10569 5.72994e-13 1.02669e-05 -1.35734e-06 5.18898e-10 1.03238e-07 
0 0 0 0.00561416 0.00141781 0.00758461 0 774 6493 9.62779e-19 1.02659e-05 -1.35713e-06 5.18851e-10 1.03229e-07 
0 0 0 -0.0639446 -0.0463706 -0.119696 0 772 13147 1.60817e-18 9.53905e-06 -2.53098e-06 5.00925e-10 9.96621e-08 
0 0 0 0.0944712 -0.197103 -0.318135 0 770 235 -9.37295e-09 1.54746e-05 -1.00381e-05 7.42447e-10 1.47719e-07 
0 0 0 -0.0133106 0.204739 -0.0247479 0 884 8808 3.6753e-06 -0.000162568 0.00032522 2.25068e-09 4.47885e-07 
0 0 0 0.00571636 0.00178628 -0.00678811 0 884 10557 -1.64879e-06 -8.06419e-05 0.000449344 5.62441e-09 1.11972e-06 
0 0 0 0.00689411 0.00226824 0.000672473 0 884 14529 2.33802e-05 -2.26485e-05 6.51026e-05 1.87617e-09 3.73339e-07 
0 0 0 -2.18151e-06 -1.53735e-06 -1.45028e-06 0 884 5230 2.93071e-08 5.23889e-06 -1.62002 1.22522e-06 0.0003 
0 0 0 -0.0860493 0.270285 0.000991259 0 884 12817 2.15613e-05 -0.000187999 0.000378462 5.8338e-09 1.16144e-06 
0 0 0 0.0667491 0.0299909 0.0331195 0 884 10185 -0.000556306 -0.000887193 0.00270642 2.39994e-08 4.78887e-06 
0 0 0 -0.00501415 0.00312487 -0.00675528 0 884 15744 6.4217e-05 3.19118e-05 3.93406e-05 2.38931e-10 4.75353e-08 
0 0 0 -0.00301638 -8.60672e-05 0.000385069 0 884 9048 1.52858e-06 2.31766e-06 2.05498e-05 8.94613e-10 1.77997e-07 
0 0 0 0.0144985 0.000886647 -4.58724e-05 0 884 9245 -1.76649e-05 4.05286e-06 2.47512e-05 9.19771e-10 1.83004e-07 
0 0 0 0.126726 -0.023917 0.0316451 0 884 1691 0.000529172 8.9493e-05 0.00649212 4.01896e-08 8.03583e-06 
0 0 0 0.00822364 0.00312537 0.00245849 0 884 12014 1.38352e-05 9.83778e-06 0.000113296 2.91641e-09 5.80412e-07 
0 0 0 -0.00816188 -0.00763779 0.0101606 0 884 15489 -5.69666e-05 2.18571e-05 6.78827e-05 3.39751e-09 6.76198e-07 
0 0 0 -0.00653176 -0.00094912 -0.00395859 0 884 3289 3.93593e-05 9.06094e-05 0.00038872 5.34996e-09 1.06505e-06 
0 0 0 -0.00173404 0.021783 -0.00318381 0 884 630 -2.03888e-05 -0.000156596 0.000422961 5.78353e-09 1.15143e-06 
0 0 0 -0.0136323 0.0206254 0.00019236 0 884 2268 0.000220387 -0.000257537 3.84788e-05 1.27936e-09 2.54561e-07 
0 0 0 -1.0699e-248 7.55346e-20 5.89795e-12 0 884 3064 5.15095e-251 5.25978e-06 -1.62002 1.22522e-06 0.0003 
0 0 0 -3.01399e-302 -9.47866e-21 2.3606e-12 0 884 871 -1.19718e-307 5.25978e-06 -1.62002 1.22522e-06 0.0003 
0 0 0 -1.09896e-69 -8.47415e-20 4.72348e-12 0 884 1962 -2.16873e-70 5.25978e-06 -1.62002 1.22522e-06 0.0003 
0 0 0 0.057507 0.106389 -0.431048 0 884 9162 -0.00897441 -0.00513018 0.00661863 9.56995e-09 1.90615e-06 
0 0 0 0.120859 0.118673 0.0392969 0 884 17949 -0.000602483 1.96038e-05 0.00553522 3.7029e-08 7.40092e-06 
0 0 0 0.109875 -0.0267885 0.00148243 0 884 6287 -7.17688e-06 -1.90851e-06 1.48526e-05 9.61196e-10 1.91247e-07 
0 0 0 0.0103049 -0.0033222 -0.0135959 0 884 9552 -0.000195316 0.000163237 0.000509096 5.42985e-09 1.08097e-06 
0 0 0 -0.502138 0.537808 -0.279532 0 884 8097 -0.0016902 0.00259204 0.00977297 3.07162e-08 6.13432e-06 
0 0 0 -0.00509842 0.0232518 -0.000947977 0 884 6826 -1.80612e-05 4.39147e-06 7.31575e-05 1.76342e-09 3.50897e-07 
0 0 0 1.99493e-302 2.83456e-20 -1.18144e-12 0 884 2565 -5.59658e-307 5.25978e-06 -1.62002 1.22522e-06 0.0003 
0 0 0 8.10536e-05 -0.000305756 -7.70446e-05 0 884 2145 -4.35118e-06 2.75472e-05 -1.62003 1.22523e-06 0.000300002 
0 0 0 -0.0122124 0.0320011 -0.00283628 0 884 5627 0.000184124 4.228e-06 0.000638957 7.79289e-09 1.55185e-06 
0 0 0 -0.00438227 0.0114338 -0.00125999 0 884 10308 -6.51457e-06 -4.33319e-05 0.000382848 5.61033e-09 1.11692e-06 
0 0 0 -3.73321e-303 3.77649e-20 -2.36056e-12 0 884 7394 -8.51137e-307 5.25978e-06 -1.62002 1.22522e-06 0.0003 
0 0 0 -0.213476 0.224136 -0.391077 0 884 16781 -0.00384697 -0.00880906 0.0109809 2.7917e-08 5.57332e-06 
0 0 0 0.0026801 0.00854128 -3.42484e-05 0 884 10074 -0.000145209 -1.85202e-05 0.000567571 7.4834e-09 1.49016e-06 
0 0 0 -5.48003e-55 1.4097e-22 2.36058e-12 0 884 3089 -3.11155e-56 5.25978e-06 -1.62002 1.22522e-06 0.0003 
0 0 0 -9.2065e-141 4.7203e-20 -2.36054e-12 0 884 1269 -2.62691e-142 5.25978e-06 -1.62002 1.22522e-06 0.0003 
0 0 0 -0.0129655 -0.18194 0.0787174 0 884 3062 0.00397262 0.000701832 0.0271828 1.02103e-07 2.05774e-05 
0 0 0 0.00266809 0.10068 -0.0494915 0 884 9111 0.00158991 0.000855308 0.00381588 2.26257e-08 4.51398e-06 
0 0 0 0.00726585 0.028338 -0.00658166 0 884 9477 -0.000169936 -0.000587523 0.000446433 5.61971e-09 1.11879e-06 
0 0 0 0.00563479 -0.0174898 0.00696285 0 884 12850 5.8593e-06 8.65911e-06 -3.2643e-05 1.82682e-10 3.63442e-08 
0 0 0 -0.00833988 -0.00181383 0.00092067 0 884 9778 2.51102e-05 -6.35033e-06 0.000159167 3.33612e-09 6.63976e-07 
0 0 0 -0.000446317 -0.0151841 -0.00786318 0 884 10778 4.01303e-05 -8.99829e-06 0.000401912 5.02466e-09 1.00025e-06 
0 0 0 -0.0109613 0.0175425 -0.00202841 0 884 1651 -6.4877e-05 3.10203e-05 0.000353166 5.21434e-09 1.03803e-06 
0 0 0 0.00236417 0.0028 0.000850509 0 884 4057 7.24117e-06 -3.21969e-05 6.75234e-05 1.94732e-09 3.87501e-07 
0 0 0 -0.00987655 -0.0117657 -0.0026667 0 884 6876 -8.47069e-05 -1.42609e-05 0.000259141 4.10323e-09 8.16728e-07 
0 0 0 -1.62004e-302 4.71211e-20 -5.89793e-12 0 884 7839 -5.56556e-307 5.25978e-06 -1.62002 1.22522e-06 0.0003 
0 0 0 -0.0209734 -0.00460582 -0.000750788 0 884 14638 0.000166873 -4.17054e-06 0.000536332 7.12589e-09 1.41891e-06 
0 0 0 -0.0088603 -0.00748068 0.00170251 0 884 1828 -3.21276e-05 -7.89977e-05 0.000728351 9.0216e-09 1.79681e-06 
0 0 0 -0.0217828 -0.0124829 -0.0104927 0 884 4860 0.000122785 -1.43826e-05 0.000434353 5.04821e-09 1.00494e-06 
0 0 0 -0.0064029 -0.0104811 0.00432881 0 884 6770 1.91635e-05 5.37744e-06 3.98075e-05 2.01649e-09 4.01269e-07 
0 0 0 0.127933 -0.0398872 -0.0303269 0 884 14064 -9.94735e-05 0.000604911 0.000777268 6.06199e-09 1.2069e-06 
0 0 0 0.0245356 -0.0500716 0.00368768 0 884 2425 2.32883e-06 7.85637e-06 -1.63885e-05 2.01717e-10 4.01312e-08 
0 0 0 0.174053 0.010858 -0.134545 0 884 11285 -0.00125247 -0.00124732 0.00353525 1.4476e-08 2.88511e-06 
0 0 0 0.00862447 -0.0138854 -0.00128593 0 884 8118 0.000101186 -2.57712e-05 0.00083511 9.5492e-09 1.90201e-06 
0 0 0 0.143916 0.00897224 -0.0330351 0 884 6171 -1.91541e-05 -1.93338e-05 0.00194888 1.40432e-08 2.79871e-06 
0 0 0 2.05795e-78 -7.55664e-20 3.53506e-12 0 884 5274 -1.1445e-78 5.25978e-06 -1.62002 1.22522e-06 0.0003 
0 0 0 -0.0165386 -0.000142416 -0.000431382 0 884 372 7.92152e-05 2.79227e-05 0.00121469 1.23843e-08 2.46759e-06 
0 0 0 -0.0217524 -0.00919792 -0.00449696 0 884 65 7.68923e-05 6.2183e-05 0.000197779 3.11387e-09 6.19725e-07 
0 0 0 -0.00241652 -0.00512569 0.00270007 0 884 5901 -6.34115e-06 3.49599e-05 0.000275113 4.96044e-09 9.87457e-07 
0 0 0 0.000854877 -0.00977064 0.00416306 0 884 6198 -1.08224e-05 1.496e-05 -4.13758e-06 1.00065e-09 1.99097e-07 
0 0 0 -0.0239048 -0.0180458 0.00194055 0 884 10526 5.07368e-07 2.695e-06 -5.48468e-06 1.97434e-11 3.92783e-09 
0 0 0 -2.68363e-16 5.25942e-17 -3.53979e-12 0 884 2130 0.0555375 0.00300569 -1.61666 1.22392e-06 0.000299585 
0 0 0 0.149275 -0.100815 -0.104104 0 884 12936 -0.00203309 0.00168717 0.000936023 1.52185e-09 3.0282e-07 
0 0 0 0.157399 0.0547594 -0.224671 0 884 7673 -0.00553388 -0.00513934 0.00314854 6.2466e-09 1.24369e-06 
0 0 0 0.0199134 -0.0460683 0.000478377 0 884 2270 -0.000432788 0.000370331 0.000248555 4.38049e-09 8.71946e-07 
0 0 0 -0.0177616 -0.0143044 0.00086521 0 884 2189 2.7753e-06 1.19329e-06 6.04193e-06 5.65932e-10 1.12597e-07 
0 0 0 -0.0207246 -0.0167272 0.000574124 0 884 10062 7.43852e-07 1.77921e-08 -1.48813e-06 1.51372e-11 3.01145e-09 
0 0 0 2.6187e-16 -4.3535e-17 -3.54028e-12 0 884 4708 -0.0632238 -0.00341043 -1.62338 1.22652e-06 0.000300415 
0 0 0 0.246971 0.0229157 0.0123168 0 884 18140 -0.00051947 9.17929e-05 0.00105503 1.25463e-08 2.49992e-06 
0 0 0 -0.0118359 -0.00468411 -0.00727895 0 884 13942 6.1451e-05 5.38381e-05 0.000163398 2.27608e-09 4.5294e-07 
0 0 0 6.98259e-15 9.6009e-17 1.42618e-17 0 863 2723 -1.62241 0.0141158 3.27953e-05 1.22615e-06 0.000300295 
0 0 0 7.07018e-15 1.91597e-17 -1.21921e-17 0 863 4560 -1.61763 -0.00844602 -1.90086e-05 1.22429e-06 0.000299705 
0 0 0 2.33011e-15 4.62991e-20 -2.06418e-302 0 862 444 -1.62002 5.25978e-06 2.62452e-307 1.22522e-06 0.0003 
0 0 0 6.98405e-15 -1.09699e-18 -2.4562e-18 0 862 927 -1.62002 9.37924e-05 -8.5853e-07 1.22522e-06 0.0003 
0 0 0 0.249017 -0.0184819 -0.204182 0 854 2118 -0.00257661 8.45605e-05 -9.76235e-05 7.95116e-09 1.5834e-06 
0 0 0 0.0417484 0.0447953 -0.166544 0 854 9225 -8.12338e-05 -0.00268177 -0.00180018 6.139e-09 1.22225e-06 
0 0 0 -0.0133106 0.204739 -0.0247479 0 854 8808 0.000627475 -0.0031157 0.000449495 6.55273e-09 1.30469e-06 
0 0 0 0.000904891 -0.00603123 -0.0138671 0 854 16149 0.000189738 -3.30648e-05 8.66601e-05 3.72899e-09 7.42204e-07 
0 0 0 0.0123863 -0.0283521 -0.0155864 0 854 15678 0.000586102 -0.000109478 5.97686e-07 9.01625e-09 1.79574e-06 
0 0 0 0.00921949 -0.0693048 -0.0425461 0 854 17252 0.000510473 0.000127176 0.000221296 8.01859e-09 1.59684e-06 
0 0 0 0.0402212 -0.0055874 -0.0556409 0 854 14257 -0.000287603 0.00012938 -6.27678e-05 1.98719e-09 3.95437e-07 
0 0 0 0.0291957 -0.0366382 0.0878295 0 854 11000 0.000178741 5.75598e-05 -1.55079e-05 7.2933e-09 1.45227e-06 
0 0 0 0.00434533 -0.00236667 -0.0852566 0 854 6806 0.000615046 -0.000103014 0.000289756 8.37507e-09 1.66791e-06 
0 0 0 -0.0121025 0.0266559 -0.0211481 0 854 5216 0.000432833 -6.27778e-05 2.17259e-05 4.84735e-09 9.64931e-07 
0 0 0 -0.000189183 0.053984 0.0211982 0 854 10887 1.26431e-05 -0.000223855 -0.000107555 5.53565e-10 1.10136e-07 
0 0 0 0.00441956 -0.0254661 -0.0055062 0 854 5287 1.67463e-06 8.37115e-07 -1.82235e-08 1.2174e-09 2.4223e-07 
0 0 0 -0.00316565 0.000987473 -0.00273628 0 854 6410 0.00112484 0.00017056 0.000139207 1.14932e-08 2.28978e-06 
0 0 0 0.00782334 0.0155639 0.0184393 0 854 5245 2.31688e-05 7.9815e-05 -9.45834e-05 2.30532e-09 4.58761e-07 
0 0 0 -0.0751999 -0.0487713 0.0506517 0 854 7178 0.00333815 -0.00155401 0.00060898 1.81722e-08 3.62344e-06 
0 0 0 0.000271161 0.0156495 0.00197557 0 854 1196 -3.66196e-07 -1.81764e-07 2.20635e-08 9.23759e-11 1.83778e-08 
0 0 0 0.00036169 -0.0210687 -0.0512975 0 854 7902 0.000128191 -2.76275e-05 5.78354e-05 2.83e-09 5.63208e-07 
0 0 0 -5.13632e-05 -0.00457699 0.016907 0 854 4220 0.000740595 -2.81889e-05 7.55393e-05 8.93338e-09 1.77922e-06 
0 0 0 0.000206962 -0.00267065 -0.0363811 0 854 14370 0.000239894 4.0389e-05 0.000112943 4.24512e-09 8.44986e-07 
0 0 0 0.0104001 0.0238404 -0.00218605 0 854 4109 0.000123413 7.10155e-05 -0.00013459 4.18651e-09 8.33314e-07 
0 0 0 -0.00697568 -0.000755144 0.110709 0 854 1943 8.91515e-05 0.000134383 -3.73664e-05 1.14638e-09 2.28098e-07 
0 0 0 -0.0239931 -0.0024436 0.00646036 0 854 11259 0.000411068 3.63888e-05 0.000157528 3.27719e-09 6.52242e-07 
0 0 0 0.00161105 0.00609134 -0.0397244 0 854 14688 0.000925492 -0.000305605 9.45167e-05 1.05338e-08 2.09838e-06 
0 0 0 0.0159259 0.00784802 0.0324719 0 854 5546 0.00193241 0.000438739 0.000279795 1.83639e-08 3.66177e-06 
0 0 0 0.00713649 -0.0104688 0.0311322 0 854 16643 0.00103235 0.000110353 -0.00015933 1.18683e-08 2.36462e-06 
0 0 0 0.00325449 0.0239322 0.0392049 0 854 9841 0.000221419 -5.93098e-05 1.31192e-05 4.42246e-09 8.80305e-07 
0 0 0 0.00681311 0.0059195 0.0212636 0 854 81 8.04223e-06 3.96785e-06 6.52343e-07 1.8325e-09 3.64647e-07 
0 0 0 0.00366965 0.0233138 -0.0385173 0 854 11931 0.000272049 -6.67806e-05 7.2176e-05 5.04847e-09 1.00499e-06 
0 0 0 -0.0160412 0.00172179 0.0449994 0 854 15504 0.000263058 0.000183192 4.67561e-05 2.49288e-09 4.96096e-07 
0 0 0 0.0202084 0.0107263 0.0548567 0 854 11884 0.00106044 -2.94179e-07 -0.000264359 1.33709e-08 2.6645e-06 
0 0 0 -0.000948974 0.0205999 0.0737493 0 854 8021 0.00150074 -4.28388e-05 4.35387e-05 1.4215e-08 2.833e-06 
0 0 0 0.000772879 0.0296073 0.0767977 0 854 7317 0.00197885 0.000107559 -0.000245179 1.7264e-08 3.44197e-06 
0 0 0 0.00271741 0.00499637 0.0123274 0 854 11938 3.39342e-05 1.7354e-05 -5.15857e-05 1.62637e-09 3.23621e-07 
0 0 0 0.00269281 0.0211791 0.0104602 0 854 14540 0.000716738 -0.000104791 -0.000153322 9.0338e-09 1.79924e-06 
0 0 0 0.00389659 -0.00789742 0.0140934 0 854 11220 -1.15806e-05 2.39825e-06 -1.57497e-06 6.78272e-10 1.34949e-07 
0 0 0 -0.00603939 0.0182953 -0.00339371 0 854 7779 0.00027451 -2.77561e-05 0.000134419 3.85797e-09 7.67888e-07 
0 0 0 0.00934434 0.0264187 0.000681574 0 854 5370 -4.92596e-05 9.7711e-06 4.56718e-06 6.89648e-10 1.37213e-07 
0 0 0 0.00303666 0.0135046 -0.0217466 0 854 1014 0.00091211 -0.000138967 5.75573e-05 1.05804e-08 2.10768e-06 
0 0 0 -0.000121835 0.0217082 -0.0237301 0 854 3989 6.97795e-05 -1.33082e-05 3.22519e-05 1.83329e-09 3.64804e-07 
0 0 0 -0.00140995 -0.00510817 -0.00447873 0 854 11410 4.1345e-05 1.77372e-05 -1.06181e-05 1.0646e-09 2.11824e-07 
0 0 0 0.0101418 -0.00519762 0.038258 0 854 2522 0.000297621 2.18076e-05 -4.59066e-05 6.12277e-09 1.21902e-06 