ITEM: TIMESTEP
9150000
ITEM: NUMBER OF ENTRIES
318
ITEM: BOX BOUNDS ff ff ff
-0.01 0.45
-0.15 0.15
-0.08 0.1
ITEM: ENTRIES c_pwc[1] c_pwc[2] c_pwc[3] 
0 882 525 
0 956 1139 
0 850 41 
0 885 41 
0 894 1000 
0 894 638 
0 854 554 
0 854 183 
0 854 505 
0 852 1071 
0 852 1024 
0 894 131 
0 894 540 
0 894 1046 
0 894 519 
0 894 1065 
0 894 928 
0 852 508 
0 852 359 
0 855 522 
0 855 427 
0 855 540 
0 855 1021 
0 855 895 
0 855 625 
0 854 455 
0 950 568 
1 2706 752 
1 2705 752 
1 2704 752 
1 2722 752 
1 2698 752 
1 2717 752 
0 885 270 
0 885 969 
0 885 48 
0 885 127 
0 885 52 
0 885 908 
0 885 276 
0 885 6 
0 885 79 
0 885 351 
0 885 45 
0 885 39 
0 885 393 
0 850 270 
0 850 969 
0 850 48 
0 850 127 
0 850 52 
0 850 908 
0 850 276 
0 850 6 
0 850 79 
0 850 351 
0 850 45 
0 851 39 
0 851 393 
1 529 146 
1 530 146 
1 1861 146 
1 1874 146 
1 1873 146 
1 1883 146 
1 1889 146 
1 1828 146 
1 1842 146 
1 1827 146 
1 1830 146 
1 1831 146 
1 526 146 
1 527 146 
1 541 146 
1 1871 146 
1 1869 146 
1 1868 146 
1 1892 146 
1 1893 146 
1 1885 146 
0 895 717 
0 853 355 
0 853 482 
0 853 1140 
0 853 995 
0 853 467 
0 884 942 
0 894 1059 
0 894 1089 
0 894 193 
0 894 635 
0 894 708 
0 894 844 
0 895 606 
0 895 1017 
0 895 607 
0 895 633 
0 937 1144 
0 947 559 
0 917 795 
0 961 1029 
0 961 40 
0 753 1029 
0 753 40 
0 886 15 
0 885 15 
0 850 15 
0 893 582 
0 893 1042 
0 888 151 
0 853 108 
0 891 715 
0 891 4 
0 888 980 
0 381 138 
0 393 209 
0 389 914 
0 373 791 
0 401 115 
0 407 1079 
0 421 371 
0 417 1085 
0 382 134 
0 378 202 
0 376 170 
0 394 435 
0 373 479 
0 367 622 
0 402 443 
0 400 614 
0 396 1109 
0 396 615 
0 399 614 
0 395 3 
0 395 282 
0 434 447 
0 365 982 
0 431 228 
0 408 171 
0 404 733 
0 426 389 
0 424 609 
0 420 320 
0 429 894 
0 425 498 
0 423 925 
0 537 328 
0 535 1097 
0 533 935 
0 380 298 
0 376 191 
0 394 782 
0 388 1030 
0 521 398 
0 519 612 
0 402 284 
0 396 822 
0 589 168 
0 587 91 
0 439 600 
0 432 1087 
0 555 478 
0 410 226 
0 408 542 
0 404 994 
0 581 35 
0 579 454 
0 577 1072 
0 575 1128 
0 426 217 
0 422 64 
0 432 936 
0 569 812 
0 569 843 
0 537 255 
0 535 247 
0 533 520 
0 531 136 
0 529 346 
0 532 477 
0 530 190 
0 541 804 
0 539 1007 
0 523 155 
0 519 236 
0 519 870 
0 522 611 
0 520 85 
0 551 158 
0 549 637 
0 585 269 
0 559 556 
0 555 59 
0 555 875 
0 555 98 
0 560 88 
0 583 148 
0 583 880 
0 581 694 
0 579 943 
0 575 106 
0 573 470 
0 573 656 
0 573 330 
0 571 412 
0 580 413 
0 569 532 
0 565 302 
0 563 950 
0 570 46 
0 534 376 
0 534 388 
0 534 921 
0 532 418 
0 528 267 
0 528 135 
0 537 307 
0 552 1102 
0 590 780 
0 588 737 
0 586 725 
0 584 585 
0 587 28 
0 560 424 
0 561 605 
0 582 689 
0 582 743 
0 576 220 
0 575 838 
0 564 770 
0 563 38 
0 1063 83 
0 1059 816 
0 1059 537 
0 1055 31 
0 1055 643 
0 528 853 
0 1067 75 
0 1067 1010 
0 1051 129 
0 1051 372 
0 1051 646 
0 1049 558 
0 1047 319 
0 1047 1048 
0 1045 327 
0 520 485 
1 1366 327 
0 1115 71 
0 1113 212 
0 1111 280 
0 584 746 
0 1085 341 
0 1109 793 
0 1107 697 
0 1103 939 
0 1103 429 
0 1103 565 
0 1101 5 
0 1099 251 
0 574 219 
0 1095 335 
0 1091 630 
0 1089 409 
0 1061 248 
0 1069 13 
0 1066 848 
0 1050 649 
0 1047 147 
0 1046 109 
0 1052 670 
0 1077 66 
0 1076 487 
0 1075 487 
0 1087 421 
0 1087 374 
0 1086 153 
0 1081 223 
0 1108 120 
0 1107 50 
0 1105 817 
0 1101 771 
0 1090 177 
0 1060 315 
0 1059 518 
0 1056 422 
0 1056 37 
0 1055 162 
0 1054 99 
0 1052 613 
0 1070 599 
0 1261 166 
0 1277 530 
0 1275 166 
0 1050 428 
0 1050 241 
0 1044 119 
0 1042 672 
0 1078 201 
0 1076 81 
0 1074 500 
0 1106 445 
0 1102 143 
0 1110 36 
0 1092 24 
0 1275 142 
0 1268 379 
0 1304 761 
0 1343 275 
0 1269 32 
0 1309 82 
0 1330 304 
0 1329 461 
0 1322 160 
0 1319 667 
0 1318 279 
0 1317 281 
0 1332 246 
