ITEM: TIMESTEP
10100000
ITEM: NUMBER OF ENTRIES
298
ITEM: BOX BOUNDS ff ff ff
-0.01 0.45
-0.15 0.15
-0.08 0.1
ITEM: ENTRIES c_pwc[1] c_pwc[2] c_pwc[3] 
0 930 598 
0 942 567 
0 952 1259 
0 850 41 
0 885 41 
0 884 517 
0 852 1063 
0 894 1071 
0 894 1073 
0 894 369 
0 894 741 
0 894 490 
0 894 416 
0 894 835 
0 894 102 
0 852 765 
0 852 303 
0 855 493 
0 855 1115 
0 855 531 
0 855 690 
0 854 1223 
0 854 419 
1 529 146 
1 530 146 
1 1842 146 
1 1828 146 
1 1827 146 
1 1831 146 
1 1830 146 
1 1861 146 
1 1874 146 
1 1873 146 
1 1883 146 
1 1889 146 
1 526 146 
1 541 146 
1 527 146 
1 1868 146 
1 1871 146 
1 1869 146 
1 1892 146 
1 1885 146 
1 1893 146 
0 885 270 
0 885 969 
0 885 48 
0 885 127 
0 885 52 
0 885 908 
0 885 276 
0 885 6 
0 885 79 
0 885 351 
0 885 45 
0 885 39 
0 885 393 
0 850 270 
0 850 969 
0 850 48 
0 850 127 
0 850 52 
0 850 908 
0 850 276 
0 850 6 
0 850 79 
0 850 351 
0 850 45 
0 851 39 
0 851 393 
0 895 108 
0 895 1061 
0 895 829 
1 2698 752 
1 2717 752 
0 853 911 
0 894 958 
0 894 813 
0 894 274 
0 894 1059 
0 894 1110 
0 894 12 
0 894 841 
0 894 68 
0 895 1003 
0 895 962 
0 895 981 
0 895 714 
0 951 1239 
0 949 1021 
0 961 1029 
0 961 40 
0 753 1029 
0 753 40 
0 911 34 
0 886 15 
0 885 15 
0 850 15 
0 899 1214 
0 893 222 
0 892 224 
0 892 210 
0 891 249 
0 893 1138 
0 892 900 
0 895 1138 
0 385 175 
0 383 1213 
0 381 612 
0 379 1182 
0 393 1067 
0 401 707 
0 365 810 
0 438 1262 
0 431 1038 
0 407 1171 
0 405 541 
0 403 138 
0 410 501 
0 408 475 
0 406 541 
0 417 1195 
0 417 413 
0 417 708 
0 416 708 
0 419 313 
0 378 1128 
0 383 3 
0 383 1083 
0 379 134 
0 377 320 
0 394 401 
0 392 443 
0 392 1246 
0 373 746 
0 398 1207 
0 438 870 
0 438 117 
0 434 489 
0 365 316 
0 410 327 
0 409 885 
0 428 1097 
0 426 687 
0 426 439 
0 427 851 
0 427 202 
0 416 1013 
0 412 319 
0 417 180 
0 529 733 
0 527 1209 
0 527 388 
0 386 559 
0 543 209 
0 394 600 
0 394 943 
0 519 994 
0 370 470 
0 364 152 
0 551 558 
0 589 218 
0 585 82 
0 438 365 
0 438 609 
0 583 171 
0 406 615 
0 573 89 
0 426 22 
0 420 398 
0 567 1151 
0 416 1072 
0 416 1069 
0 412 1165 
0 529 549 
0 527 28 
0 541 387 
0 539 913 
0 525 358 
0 547 31 
0 554 208 
0 550 1194 
0 546 932 
0 587 1217 
0 517 447 
0 559 367 
0 579 409 
0 579 81 
0 579 565 
0 577 737 
0 573 148 
0 572 867 
0 569 106 
0 569 1149 
0 569 1079 
0 565 500 
0 568 389 
1 2628 611 
0 530 605 
0 528 569 
0 528 346 
0 546 247 
0 540 371 
0 541 656 
0 522 936 
0 520 614 
0 523 689 
0 526 115 
0 550 219 
0 547 71 
0 588 509 
0 586 1010 
0 585 1109 
0 562 284 
0 580 312 
0 578 155 
0 574 780 
0 574 266 
0 574 135 
0 579 124 
0 575 795 
0 571 664 
0 570 804 
0 566 1 
0 569 177 
0 1061 530 
0 1055 98 
0 1069 817 
0 1069 925 
0 1069 97 
0 1045 50 
0 1075 88 
0 1043 242 
0 586 585 
0 1109 200 
0 1085 335 
0 1103 1190 
0 1097 187 
0 572 374 
0 1095 528 
0 1095 793 
0 1093 770 
0 570 556 
1 2572 848 
1 2568 205 
1 2567 578 
0 1055 376 
0 1053 853 
0 1071 85 
0 1067 840 
0 1051 197 
0 1050 197 
0 1048 119 
0 1079 80 
0 1077 494 
0 1074 292 
0 1113 62 
0 1043 939 
0 1109 277 
0 1087 487 
0 1109 637 
0 1106 11 
0 1092 129 
0 1090 643 
0 1289 646 
0 1062 19 
0 1060 32 
0 1056 428 
0 1291 198 
0 1070 476 
0 1048 91 
0 1074 672 
0 1269 100 
0 1117 950 
0 1114 315 
0 1112 93 
0 1086 363 
0 1086 78 
0 1084 109 
0 1082 46 
0 1331 83 
0 1108 858 
0 1106 215 
0 1102 67 
0 1096 372 
0 1094 169 
0 1090 246 
0 1283 5 
0 1281 697 
0 1279 445 
0 1271 267 
0 1309 418 
0 1333 248 
0 1331 94 
0 1325 178 
0 76 153 
0 125 24 
0 112 174 
