ITEM: TIMESTEP
9500000
ITEM: NUMBER OF ENTRIES
292
ITEM: BOX BOUNDS ff ff ff
-0.01 0.45
-0.15 0.15
-0.08 0.1
ITEM: ENTRIES c_pwc[1] c_pwc[2] c_pwc[3] 
0 850 41 
0 885 41 
0 855 928 
0 855 540 
0 855 510 
0 854 629 
0 894 499 
0 894 1046 
0 894 268 
0 894 352 
0 894 291 
0 894 104 
0 894 359 
0 894 404 
0 894 734 
0 855 904 
0 855 953 
0 854 554 
0 936 529 
0 928 1091 
0 937 678 
1 2706 752 
1 2684 752 
1 2698 752 
1 2717 752 
1 2704 752 
1 2705 752 
1 2722 752 
0 944 290 
0 926 1076 
0 948 632 
1 529 146 
1 530 146 
1 1842 146 
1 1828 146 
1 1827 146 
1 1831 146 
1 1830 146 
1 1861 146 
1 1874 146 
1 1883 146 
1 1873 146 
1 1889 146 
1 526 146 
1 541 146 
1 527 146 
1 1869 146 
1 1871 146 
1 1868 146 
1 1893 146 
1 1892 146 
1 1885 146 
0 885 270 
0 885 969 
0 885 48 
0 885 127 
0 885 52 
0 885 908 
0 885 276 
0 885 6 
0 885 79 
0 885 351 
0 885 45 
0 885 39 
0 885 393 
0 850 270 
0 850 969 
0 850 48 
0 850 127 
0 850 52 
0 850 908 
0 850 276 
0 850 6 
0 850 79 
0 850 351 
0 850 45 
0 851 39 
0 851 393 
0 895 44 
0 894 1068 
0 894 775 
0 894 776 
0 894 581 
0 894 434 
0 894 196 
0 894 586 
0 894 772 
0 895 523 
0 895 1070 
0 895 829 
0 919 1073 
0 961 1029 
0 961 40 
0 753 1029 
0 753 40 
0 886 15 
0 885 15 
0 850 15 
0 965 1090 
0 891 383 
0 891 623 
0 892 113 
0 895 1112 
0 895 980 
0 888 872 
0 888 222 
0 888 420 
0 385 656 
0 381 914 
0 377 1038 
0 390 1079 
0 369 1030 
0 401 1182 
0 395 783 
0 403 115 
0 425 1106 
0 425 791 
0 423 22 
0 419 1171 
0 411 1164 
0 384 454 
0 379 700 
0 392 327 
0 391 243 
0 364 365 
0 367 894 
0 367 687 
0 400 609 
0 399 330 
0 397 1069 
0 432 994 
0 435 170 
0 406 236 
0 406 509 
0 405 134 
0 426 256 
0 424 232 
0 422 470 
0 420 3 
0 427 256 
0 425 1145 
0 421 470 
0 416 1177 
0 414 542 
0 414 443 
0 417 64 
0 413 295 
0 529 571 
0 378 464 
0 539 89 
0 525 935 
0 370 812 
0 547 284 
0 402 435 
0 398 413 
0 589 1128 
0 432 851 
0 408 187 
0 424 401 
0 420 612 
0 418 226 
0 412 31 
0 535 35 
0 535 218 
0 536 411 
0 532 1 
0 542 936 
0 523 424 
0 519 537 
0 519 804 
0 547 398 
0 554 875 
0 550 605 
0 589 600 
0 585 614 
0 590 282 
0 588 227 
0 586 346 
0 584 190 
0 583 190 
0 555 870 
0 555 1083 
0 562 319 
0 583 242 
0 581 209 
0 579 136 
0 569 1072 
0 565 689 
0 564 691 
0 564 630 
0 534 950 
0 534 596 
0 537 302 
0 544 1085 
0 542 219 
0 540 558 
0 543 312 
0 526 85 
0 526 608 
0 554 837 
0 551 376 
0 588 532 
0 562 341 
0 560 259 
0 558 565 
0 578 637 
0 574 335 
0 574 328 
0 572 444 
0 1063 223 
0 1063 124 
0 1061 409 
0 1061 646 
0 1057 200 
0 1057 585 
0 1069 13 
0 1065 101 
0 1051 100 
0 526 169 
0 1075 279 
0 1073 50 
0 552 75 
0 1111 617 
0 1111 201 
0 1043 817 
0 1083 864 
0 1083 429 
0 1081 152 
0 1107 478 
0 1103 46 
0 1103 494 
0 1103 97 
0 1101 587 
0 1097 408 
0 580 5 
0 572 374 
1 1366 408 
0 1093 87 
0 1091 28 
0 1089 683 
0 1059 485 
0 1059 670 
0 1055 1102 
0 1053 220 
0 1068 848 
0 1065 649 
0 1065 349 
0 1045 178 
0 1080 147 
0 1075 248 
0 1112 461 
0 1111 83 
0 1109 251 
0 1099 129 
0 1098 939 
0 1098 379 
0 1093 422 
0 1093 162 
0 1092 822 
0 1090 25 
0 1089 847 
0 1279 363 
0 1058 599 
0 1056 484 
0 1295 265 
0 1072 90 
0 1070 428 
0 1048 153 
0 1305 672 
0 1337 487 
0 1114 785 
0 1088 774 
0 1206 212 
0 1331 212 
0 1105 267 
0 1100 109 
0 1098 697 
0 1096 643 
0 1094 99 
0 1090 160 
0 1297 530 
0 1273 506 
0 1310 32 
0 1330 94 
0 1319 10 
0 159 174 
0 115 37 
0 129 78 
0 1322 120 
0 79 11 
0 118 27 
0 118 24 
