ITEM: TIMESTEP
9300000
ITEM: NUMBER OF ENTRIES
297
ITEM: BOX BOUNDS ff ff ff
-0.01 0.45
-0.15 0.15
-0.08 0.1
ITEM: ENTRIES c_pwc[1] c_pwc[2] c_pwc[3] 
0 922 1151 
0 850 41 
0 885 41 
0 894 360 
0 894 131 
0 894 796 
0 894 1021 
0 894 1066 
0 894 961 
0 894 882 
0 894 104 
0 894 989 
0 894 775 
0 855 510 
0 855 123 
0 855 1098 
0 855 199 
0 855 625 
0 938 738 
0 931 464 
1 2705 752 
1 2704 752 
1 2706 752 
1 2722 752 
1 2698 752 
1 2717 752 
1 962 141 
1 530 146 
1 1883 146 
1 529 146 
1 1889 146 
1 1842 146 
1 1828 146 
1 1831 146 
1 1830 146 
1 1827 146 
1 526 146 
1 527 146 
1 541 146 
1 1871 146 
1 1869 146 
1 1868 146 
1 1892 146 
1 1893 146 
1 1885 146 
1 1861 146 
1 1874 146 
1 1873 146 
0 885 270 
0 885 969 
0 885 48 
0 885 127 
0 885 52 
0 885 908 
0 885 276 
0 885 6 
0 885 79 
0 885 351 
0 885 45 
0 885 39 
0 885 393 
0 850 270 
0 850 969 
0 850 48 
0 850 127 
0 850 52 
0 850 908 
0 850 276 
0 850 6 
0 850 79 
0 850 351 
0 850 45 
0 851 39 
0 851 393 
0 895 606 
0 895 1074 
0 895 846 
0 895 538 
0 963 521 
0 853 942 
0 894 14 
0 894 8 
0 894 857 
0 852 573 
0 895 588 
0 895 832 
0 895 959 
0 938 855 
0 939 1162 
0 961 1029 
0 961 40 
0 753 1029 
0 753 40 
0 886 15 
0 885 15 
0 850 15 
0 885 991 
0 891 113 
0 895 203 
0 895 980 
0 385 371 
0 389 1079 
0 371 115 
0 397 1157 
0 437 665 
0 409 256 
0 411 686 
0 429 187 
0 378 1091 
0 376 88 
0 376 298 
0 390 1123 
0 390 884 
0 389 1030 
0 386 791 
0 371 1054 
0 398 236 
0 401 1106 
0 436 226 
0 432 170 
0 435 443 
0 365 479 
0 365 559 
0 404 609 
0 428 498 
0 420 977 
0 420 1007 
0 429 228 
0 419 885 
0 535 59 
0 529 1 
0 529 234 
0 384 413 
0 378 1097 
0 378 838 
0 539 542 
0 394 22 
0 388 358 
0 518 398 
0 372 330 
0 370 269 
0 368 622 
0 374 812 
0 551 232 
0 549 365 
0 400 454 
0 585 600 
0 517 412 
0 438 215 
1 1322 284 
0 559 171 
0 410 914 
0 579 612 
0 577 227 
0 577 944 
0 573 17 
0 428 477 
0 426 47 
0 424 325 
0 412 295 
0 420 209 
0 535 656 
0 535 935 
0 535 101 
0 533 38 
0 529 733 
0 527 302 
0 543 155 
0 539 571 
0 546 637 
0 538 950 
0 525 687 
0 526 608 
0 589 401 
0 585 664 
0 517 319 
0 590 85 
0 583 255 
0 559 875 
0 559 691 
0 557 158 
0 555 520 
0 558 691 
0 583 31 
0 579 136 
0 582 936 
0 569 1072 
0 567 870 
0 567 569 
0 565 200 
0 563 837 
0 563 725 
0 537 615 
0 542 386 
0 542 238 
0 522 117 
0 547 98 
0 586 168 
0 584 148 
0 562 587 
0 561 91 
0 580 509 
0 578 689 
0 568 578 
0 564 335 
0 564 478 
0 1063 90 
0 1061 307 
0 1057 737 
0 1057 1048 
0 1055 87 
0 1055 858 
0 1053 1102 
0 1071 847 
0 1071 220 
0 1071 793 
0 1065 327 
0 1051 218 
0 1047 152 
0 524 418 
0 1079 494 
0 1075 372 
0 1075 50 
0 1073 5 
0 1073 864 
0 1073 205 
0 548 736 
0 1113 83 
0 1111 921 
0 1109 485 
0 556 683 
0 1103 565 
0 582 780 
0 1091 129 
0 1089 549 
0 1089 770 
0 1063 853 
0 1060 280 
0 1056 441 
0 1055 201 
0 1053 643 
0 1071 10 
0 1069 556 
0 1065 251 
0 1051 178 
0 1116 99 
0 1111 62 
0 1110 649 
0 1086 421 
0 1103 848 
0 1100 408 
0 1098 461 
0 1097 162 
0 1095 100 
0 1090 617 
0 1089 1010 
0 1097 78 
0 1253 265 
0 1061 349 
0 1060 109 
0 1060 518 
0 1058 265 
0 1057 177 
0 1056 428 
0 1054 613 
0 1295 36 
0 1293 198 
0 1072 166 
0 1070 422 
0 1277 248 
0 1045 487 
0 1042 120 
0 1042 487 
0 1305 682 
0 1112 124 
0 1307 379 
0 1210 19 
0 1208 445 
0 1327 19 
0 1104 445 
0 1102 119 
0 1098 67 
0 1092 82 
0 1283 163 
0 1297 599 
0 1295 23 
0 1273 304 
0 1299 279 
0 1338 363 
0 1313 27 
0 1334 530 
0 1331 761 
0 1319 500 
0 1340 672 
0 1330 774 
0 129 174 
0 151 275 
