ITEM: TIMESTEP
9450000
ITEM: NUMBER OF ENTRIES
2736
ITEM: BOX BOUNDS ff ff ff
-0.01 0.45
-0.15 0.15
-0.08 0.1
ITEM: ENTRIES c_pwc[1] c_pwc[2] c_pwc[3] c_pwc[4] c_pwc[5] c_pwc[6] c_pwc[7] c_pwc[8] c_pwc[9] c_pwc[10] c_pwc[11] c_pwc[12] c_pwc[13] c_pwc[14] 
0 0 0 -0.00074861 -0.264871 0.13189 0 788 17424 -1.10346e-11 4.18876e-06 3.15237e-06 3.06252e-10 6.09293e-08 
0 0 0 0.00022066 -6.92364e-05 2.37419e-05 0 778 3129 1.23629e-07 1.13579e-05 1.54115e-06 5.41664e-10 1.07768e-07 
0 0 0 0.000210684 -0.0069894 0.03739 0 778 14170 5.57587e-20 1.02659e-05 1.35713e-06 5.18851e-10 1.03229e-07 
0 0 0 -0.00663982 -0.00707283 0.0378363 0 778 12757 1.71752e-18 1.02659e-05 1.35713e-06 5.18851e-10 1.03229e-07 
0 0 0 -0.0160367 0.0071632 -0.0383198 0 778 13923 -2.12549e-07 1.03166e-05 1.08647e-06 5.18853e-10 1.03229e-07 
0 0 0 0.00146199 -0.000146496 0.000613681 0 778 8040 -2.46199e-10 1.0276e-05 1.32508e-06 5.12208e-10 1.01907e-07 
0 0 0 0.00401302 -0.0015961 0.00853835 0 778 15555 -6.07284e-19 1.02659e-05 1.35713e-06 5.18851e-10 1.03229e-07 
0 0 0 0.0148611 -0.00224452 0.0120071 0 778 7654 2.3888e-18 1.02659e-05 1.35713e-06 5.18851e-10 1.03229e-07 
0 0 0 -0.00276876 -0.000305543 0.00156678 0 778 14580 -4.91572e-08 9.73282e-06 1.13532e-06 4.97058e-10 9.88926e-08 
0 0 0 0.0144106 -0.00189278 0.0101254 0 778 17336 1.86094e-18 1.02659e-05 1.35713e-06 5.18851e-10 1.03229e-07 
0 0 0 0.00156096 -0.000403854 0.00223838 0 778 14360 -1.02162e-07 1.00223e-05 1.29793e-06 5.13567e-10 1.02177e-07 
0 0 0 -0.0220763 -0.00140162 0.00749801 0 778 5338 -1.4581e-18 1.02659e-05 1.35713e-06 5.18851e-10 1.03229e-07 
0 0 0 0.00980658 -0.00258861 0.0138169 0 778 12332 -5.49143e-09 1.02357e-05 1.3616e-06 5.1665e-10 1.02791e-07 
0 0 0 0.0101937 -0.00205288 0.0109802 0 778 17589 -9.42153e-13 1.02749e-05 1.35888e-06 5.19089e-10 1.03276e-07 
0 0 0 0.0101418 -0.0029923 0.0160074 0 778 16821 -3.13272e-16 1.02658e-05 1.35713e-06 5.1885e-10 1.03229e-07 
0 0 0 0.00566697 -0.0027081 0.0144868 0 778 4306 -5.56313e-14 1.02661e-05 1.35717e-06 5.1885e-10 1.03229e-07 
0 0 0 0.00327579 0.000454254 -0.00242996 0 778 15785 1.24915e-14 1.02672e-05 1.35739e-06 5.189e-10 1.03238e-07 
0 0 0 0.0423757 0.0113265 -0.0605915 0 778 13645 -1.19352e-18 1.02659e-05 1.35713e-06 5.18851e-10 1.03229e-07 
0 0 0 0.0787814 0.00768965 -0.041136 0 778 13193 1.21622e-17 1.02659e-05 1.35713e-06 5.18851e-10 1.03229e-07 
0 0 0 -0.0238148 -0.00430421 0.0230255 0 778 16369 4.17356e-18 1.02659e-05 1.35713e-06 5.18851e-10 1.03229e-07 
0 0 0 -0.0142866 -0.00358155 0.0191645 0 778 1637 -2.0779e-09 1.02644e-05 1.35553e-06 5.18991e-10 1.03257e-07 
0 0 0 0.133505 0.0254569 -0.136182 0 778 5801 1.7883e-17 1.02659e-05 1.35713e-06 5.18851e-10 1.03229e-07 
0 0 0 -0.0105698 -0.00106015 0.00428875 0 778 13175 4.05954e-06 1.24544e-05 3.36419e-06 5.46899e-10 1.08809e-07 
0 0 0 -0.00955316 -0.00142565 0.00356743 0 778 17147 7.55596e-06 2.0559e-05 -2.60876e-06 6.5309e-10 1.29939e-07 
0 0 0 0.000289965 2.33176e-06 0.000668537 0 776 7649 -3.57752e-09 1.17902e-05 4.62632e-08 5.6677e-10 1.12763e-07 
0 0 0 0.000371877 4.30499e-05 0.00197314 0 776 7937 -7.20244e-10 1.05386e-05 -4.06187e-09 5.34771e-10 1.06396e-07 
0 0 0 8.4025e-05 7.56626e-07 -0.000214285 0 776 5540 6.53454e-10 1.05912e-05 6.38059e-10 5.27368e-10 1.04923e-07 
0 0 0 0.000186971 -5.554e-06 0.000100721 0 776 1200 -5.41275e-10 1.0764e-05 -9.70639e-10 5.31726e-10 1.0579e-07 
0 0 0 0.000119136 5.192e-05 0.000379312 0 776 1871 1.56748e-08 1.02983e-05 9.43407e-08 5.28718e-10 1.05192e-07 
0 0 0 0.000341342 1.55701e-05 -0.00295055 0 776 1972 9.5715e-11 1.0297e-05 7.85873e-12 5.20779e-10 1.03612e-07 
0 0 0 -0.000265157 -3.02243e-06 -0.00321587 0 776 733 -3.82316e-13 1.05335e-05 2.50365e-12 5.24634e-10 1.0438e-07 
0 0 0 0.00077296 2.94939e-05 0.000758913 0 776 10595 3.36624e-08 9.42192e-06 -4.69392e-07 4.94154e-10 9.8315e-08 
0 0 0 0.00076405 1.57985e-05 0.00082199 0 776 894 -2.50394e-08 1.08991e-05 -3.57751e-07 5.40773e-10 1.07591e-07 
0 0 0 0.00022844 -5.44231e-07 0.000670569 0 776 9680 -1.23092e-07 1.02732e-05 1.23687e-07 5.16479e-10 1.02757e-07 
0 0 0 0.000164628 -4.25895e-07 0.000732935 0 776 414 1.23476e-07 1.0832e-05 -4.08733e-07 5.35075e-10 1.06457e-07 
0 0 0 0.00242182 1.08678e-05 -0.00152639 0 776 206 -3.35642e-08 1.05588e-05 -1.15956e-07 5.2848e-10 1.05145e-07 
0 0 0 7.54284e-05 -8.62141e-06 -0.00325461 0 776 1894 5.12748e-11 1.06194e-05 2.92882e-11 5.26275e-10 1.04706e-07 
0 0 0 0.000889991 -5.07867e-07 0.00108921 0 776 9977 4.69482e-13 1.04497e-05 -3.90384e-14 5.22387e-10 1.03932e-07 
0 0 0 0.00127526 -1.54499e-05 0.00206882 0 776 1225 -1.49393e-07 1.07545e-05 -1.04013e-07 5.29278e-10 1.05303e-07 
0 0 0 -0.000930456 4.64533e-07 -0.000387627 0 776 3512 -1.23133e-13 1.0512e-05 -5.17653e-14 5.24675e-10 1.04388e-07 
0 0 0 0.00235995 6.9246e-10 -0.000836522 0 776 690 4.50521e-16 1.05196e-05 -1.59694e-16 5.24825e-10 1.04417e-07 
0 0 0 0.00406349 -8.74776e-08 -0.0035662 0 776 280 -1.01266e-13 1.05209e-05 8.83335e-14 5.24851e-10 1.04423e-07 
0 0 0 -0.000538612 7.65835e-05 -0.00149511 0 776 2352 -4.08313e-06 1.06078e-05 2.05563e-06 5.44306e-10 1.08294e-07 
0 0 0 0.00156727 -6.25419e-08 -0.00146528 0 776 101 -1.79157e-14 1.05052e-05 5.50642e-15 5.24333e-10 1.0432e-07 
0 0 0 0.00328399 -1.18399e-05 -0.000770887 0 776 317 1.81091e-11 1.04041e-05 -5.19812e-11 5.18411e-10 1.03141e-07 
0 0 0 -0.000194278 3.75027e-05 -0.00120686 0 776 1705 -1.52754e-06 1.27979e-05 1.6848e-06 6.05953e-10 1.2056e-07 
0 0 0 0.00174279 -8.09196e-05 0.00187751 0 776 5611 1.61142e-07 1.11396e-05 -6.86452e-07 5.27902e-10 1.0503e-07 
0 0 0 0.002791 -6.64006e-07 0.00163015 0 776 9269 -5.21392e-13 1.05277e-05 -3.27144e-13 5.24951e-10 1.04442e-07 
0 0 0 0.00151681 1.68463e-05 0.00219725 0 776 6408 9.44115e-08 1.02474e-05 7.40637e-08 5.19394e-10 1.03337e-07 
0 0 0 0.00445287 -7.12843e-13 0.0118818 0 776 8455 5.17461e-19 1.05196e-05 1.19808e-18 5.24825e-10 1.04417e-07 
0 0 0 -0.000814099 -0.00248396 0.00188248 0 776 11208 4.335e-06 8.19681e-06 1.84124e-05 3.20879e-11 6.38372e-09 
0 0 0 0.0106786 6.53567e-12 -0.0023404 0 776 553 -1.19798e-18 1.05196e-05 2.99473e-19 5.24825e-10 1.04417e-07 
0 0 0 0.00203529 2.77054e-07 -0.00377735 0 776 585 1.55611e-13 1.05226e-05 -2.89123e-13 5.24985e-10 1.04449e-07 
0 0 0 -0.00156017 3.18702e-06 -0.00205378 0 776 2069 1.38962e-12 1.0479e-05 -3.21983e-12 5.24165e-10 1.04286e-07 
0 0 0 0.00214029 -5.71055e-06 -0.0023664 0 776 531 -3.33753e-07 1.09336e-05 3.59755e-07 5.37278e-10 1.06895e-07 
0 0 0 0.00494708 -0.00062075 0.00160902 0 776 6702 -5.27945e-06 1.5656e-05 -5.7797e-06 5.58651e-10 1.11148e-07 
0 0 0 -0.00803604 0.000165303 -0.00284487 0 776 1002 -4.27512e-06 8.7951e-06 -1.67833e-06 5.02628e-10 1.00001e-07 
0 0 0 -0.000685218 -5.78774e-06 -0.00166885 0 776 1470 1.29542e-12 1.05792e-05 3.3261e-12 5.25556e-10 1.04563e-07 
0 0 0 -0.00153016 6.99129e-06 -0.000779516 0 776 154 5.57828e-12 1.05359e-05 -1.80378e-11 5.26881e-10 1.04826e-07 
0 0 0 -0.00046859 0.000171382 -0.000937806 0 776 1045 3.72079e-07 1.02141e-05 -3.26401e-07 5.51882e-10 1.09801e-07 
0 0 0 0.0148333 -7.14036e-08 -0.0424455 0 776 2611 -1.81678e-11 1.05201e-05 -4.6341e-11 5.24827e-10 1.04418e-07 
0 0 0 -0.0111216 7.80409e-07 -0.0184985 0 776 10613 -1.23672e-06 1.0544e-05 -9.94921e-07 5.25805e-10 1.04612e-07 
0 0 0 0.001377 -1.32184e-06 -0.0199701 0 776 12304 -5.02821e-11 1.05043e-05 9.92996e-11 5.2403e-10 1.04259e-07 
0 0 0 -0.00126326 -3.14934e-05 -0.0172747 0 776 4634 -1.63065e-07 1.06927e-05 5.34389e-06 5.23771e-10 1.04208e-07 
0 0 0 -0.00248669 1.54189e-05 -0.00861665 0 776 4165 -6.71636e-09 1.0759e-05 9.36296e-10 5.36082e-10 1.06657e-07 
0 0 0 -0.00689974 -7.20913e-07 -0.00296206 0 776 1920 1.69166e-12 1.05246e-05 6.59556e-13 5.24835e-10 1.04419e-07 
0 0 0 -0.00110261 9.59155e-10 -0.000651118 0 776 3087 -2.93389e-16 1.05196e-05 -1.73248e-16 5.24825e-10 1.04417e-07 
0 0 0 0.00936464 3.17708e-06 -0.0200034 0 776 1063 8.59503e-09 1.09532e-05 5.51796e-09 5.39832e-10 1.07403e-07 
0 0 0 -0.00345237 -1.09248e-05 -0.0173151 0 776 4185 2.76251e-09 9.43288e-06 -7.1984e-11 4.85623e-10 9.66175e-08 
0 0 0 -0.0241165 0.000205887 -0.018152 0 776 18 1.45073e-08 1.3463e-05 -2.2019e-08 6.61394e-10 1.31591e-07 
0 0 0 0.0054535 2.81686e-06 -0.0134747 0 776 12917 6.49944e-12 1.05353e-05 -8.71779e-12 5.25957e-10 1.04643e-07 
0 0 0 -0.00711877 -0.000211826 -0.0137633 0 776 4938 -3.02419e-08 9.7848e-06 6.09089e-08 4.53715e-10 9.02688e-08 
0 0 0 -0.00042862 -7.15407e-13 -0.00273139 0 776 10360 1.16444e-20 1.05196e-05 2.99481e-19 5.24825e-10 1.04417e-07 
0 0 0 0.00636035 -1.50913e-05 -0.0132023 0 776 9715 -6.96876e-07 4.5377e-06 3.02581e-06 2.95872e-10 5.8864e-08 
0 0 0 -0.00253387 0.000116248 -0.0150157 0 776 4095 1.74827e-07 9.08871e-06 2.5246e-07 5.01864e-10 9.98488e-08 
0 0 0 -0.0047298 3.75889e-05 -0.009026 0 776 1367 3.16993e-06 1.39819e-05 3.10292e-06 6.42194e-10 1.27771e-07 
0 0 0 -0.0100858 -7.00541e-05 -0.0096428 0 776 1036 -1.14822e-06 3.66559e-06 3.26577e-06 2.41821e-10 4.81103e-08 
0 0 0 0.00605617 -1.84242e-05 -0.0145511 0 776 12691 -4.44893e-06 1.76558e-05 2.93815e-06 7.37532e-10 1.46741e-07 
0 0 0 -0.00682789 -6.00394e-05 -0.0118597 0 776 9639 -2.96691e-08 1.06732e-05 2.86929e-08 5.16961e-10 1.02853e-07 
0 0 0 -0.00329568 0.000409326 -0.00727796 0 776 7185 6.84429e-06 1.03787e-05 -5.52219e-06 6.08804e-10 1.21127e-07 
0 0 0 0.00968397 2.18502e-12 -0.00748323 0 776 12116 -1.20856e-18 1.05196e-05 1.20326e-18 5.24825e-10 1.04417e-07 
0 0 0 -0.0126359 -0.000271201 -0.00331311 0 776 14724 2.85348e-05 4.32025e-06 3.23187e-05 2.22146e-10 4.41958e-08 
0 0 0 0.00234758 -2.88108e-05 -0.0119407 0 776 8603 -2.38512e-08 1.26543e-05 -2.88054e-08 5.87569e-10 1.16902e-07 
0 0 0 -0.00132796 -0.00346275 -0.00631529 0 776 3427 -2.0619e-05 2.11422e-05 1.10534e-05 2.23893e-10 4.45433e-08 
0 0 0 0.00130465 -0.00158551 -0.00623477 0 776 3983 -5.97273e-06 3.63874e-05 1.71854e-05 9.22282e-10 1.83503e-07 
0 0 0 0.00149975 -2.17332e-06 -0.0219871 0 776 1118 -4.68232e-13 1.0456e-05 1.03785e-11 5.22237e-10 1.03902e-07 
0 0 0 0.00799089 -1.09024e-06 -0.0100787 0 776 10496 -2.6008e-12 1.05459e-05 2.43644e-12 5.25464e-10 1.04545e-07 
0 0 0 0.00153189 1.72028e-05 -0.0047927 0 776 9160 2.09359e-10 1.04423e-05 1.95422e-10 5.2598e-10 1.04647e-07 
0 0 0 0.00164866 -0.000332119 -0.0261807 0 776 7431 3.72635e-06 1.48215e-05 3.35064e-06 5.91738e-10 1.17731e-07 
0 0 0 0.0108798 -4.79031e-07 -0.0256601 0 776 1366 -3.24539e-14 1.05185e-05 7.89707e-12 5.24685e-10 1.0439e-07 
0 0 0 -0.00264471 -0.000501897 0.000135826 0 776 7286 2.22656e-06 2.86709e-05 1.31934e-05 9.32104e-10 1.85458e-07 
0 0 0 0.00421898 -5.69216e-05 -0.0185906 0 776 4164 -7.37879e-11 1.1111e-05 3.14626e-10 5.32108e-10 1.05866e-07 
0 0 0 0.00147063 2.8411e-07 -0.00545179 0 776 7764 3.12357e-09 1.04797e-05 1.93078e-09 5.23559e-10 1.04166e-07 
0 0 0 0.0157281 1.36028e-05 -0.00999132 0 776 215 3.51612e-06 1.38808e-05 5.9838e-06 6.34184e-10 1.26177e-07 
0 0 0 -0.0515143 -0.0132507 0.0708849 0 779 14539 0.000134439 -1.3573e-05 0.000128883 5.18847e-10 1.03228e-07 
0 0 0 0.00144952 9.29205e-05 0.00165572 0 777 4413 4.38481e-08 1.07942e-05 -1.21005e-06 5.53943e-10 1.10211e-07 
0 0 0 0.00969335 3.91654e-05 0.0220086 0 777 3837 -1.88409e-09 1.0367e-05 1.12286e-09 5.28235e-10 1.05096e-07 
0 0 0 -0.00513019 1.78503e-10 -0.0513544 0 777 255 -2.56984e-16 1.05196e-05 -2.57289e-15 5.24825e-10 1.04417e-07 
0 0 0 0.0300011 -7.15407e-13 0.00386764 0 777 4848 1.45198e-18 1.05196e-05 1.76712e-19 5.24825e-10 1.04417e-07 
0 0 0 -0.0121766 -8.82831e-13 -0.00681513 0 777 2015 1.07559e-18 1.05196e-05 -1.02231e-18 5.24825e-10 1.04417e-07 
0 0 0 -0.0136745 -5.75533e-09 -0.0101078 0 777 15272 2.36026e-14 1.052e-05 1.744e-14 5.2484e-10 1.0442e-07 
0 0 0 -0.0128092 -7.56682e-07 -0.010854 0 777 14749 2.58688e-12 1.05134e-05 2.4651e-12 5.24457e-10 1.04344e-07 
0 0 0 -0.00363948 4.22388e-05 0.00710313 0 777 5892 9.51804e-09 8.03225e-06 -6.24933e-08 4.48004e-10 8.91325e-08 
0 0 0 -0.00906796 -1.1331e-06 -0.00133493 0 777 16330 3.16201e-12 1.05052e-05 1.66179e-12 5.24103e-10 1.04274e-07 
0 0 0 0.000848125 -0.000675904 -0.00367151 0 775 2116 -3.88452e-08 9.86033e-06 -1.26305e-06 5.07082e-10 1.00887e-07 
0 0 0 0.000417615 -0.000432567 -0.0023146 0 775 12 5.08998e-10 1.02656e-05 -1.35697e-06 5.18864e-10 1.03231e-07 
0 0 0 -0.00435545 -0.00215079 -0.0116158 0 775 4248 -1.43923e-07 1.01443e-05 -1.3336e-06 5.19103e-10 1.03279e-07 
0 0 0 -0.00223105 -0.00226204 -0.0057399 0 775 6544 -3.89014e-06 1.59297e-05 3.54929e-06 4.28997e-10 8.53507e-08 
0 0 0 -0.00501179 -0.000709493 -0.00470706 0 775 9210 -1.00615e-06 1.00323e-05 -2.09712e-06 5.52117e-10 1.09848e-07 
0 0 0 0.0127768 -0.00352944 -0.0188589 0 775 1890 -1.39207e-11 1.01976e-05 -1.34352e-06 5.15643e-10 1.02591e-07 
0 0 0 -0.00319673 -7.11356e-05 -0.000381946 0 775 6574 -2.38961e-13 1.02614e-05 -1.35628e-06 5.18755e-10 1.0321e-07 
0 0 0 -0.00791342 -0.00243207 -0.0111799 0 775 10907 1.03934e-05 2.44743e-05 1.3339e-06 8.4125e-10 1.67379e-07 
0 0 0 -0.000683722 -0.00167506 -0.016982 0 775 1749 3.75237e-06 1.74701e-05 4.1567e-06 1.00019e-09 1.99007e-07 
0 0 0 -0.000421519 -5.38975e-05 -0.00200451 0 839 2641 1.98407e-05 5.59317e-06 -2.52204e-06 7.19116e-10 1.43076e-07 
0 0 0 -0.000421519 -5.38975e-05 -0.00200451 0 774 2641 1.92765e-07 1.52081e-06 5.30815e-06 1.78516e-10 3.55155e-08 
0 0 0 -0.000611962 -0.000312592 -0.00276556 0 774 5113 -2.31558e-07 8.84611e-06 -2.77794e-07 5.08882e-10 1.01245e-07 
0 0 0 0.00010191 -0.000586322 -0.00258329 0 774 10425 1.41827e-09 9.82027e-06 -1.2177e-06 4.80992e-10 9.56961e-08 
0 0 0 -0.00104684 -0.000198142 -0.00182624 0 774 210 -7.30883e-06 1.79494e-05 -1.23043e-07 7.69433e-10 1.53089e-07 
0 0 0 0.000690519 -0.000289536 -0.00163489 0 774 3865 -8.95813e-10 1.02635e-05 -1.35688e-06 5.222e-10 1.03895e-07 
0 0 0 0.000227172 -0.000623177 -0.00333184 0 774 4325 -7.43625e-14 1.02737e-05 -1.35865e-06 5.19044e-10 1.03267e-07 
0 0 0 0.000765812 -0.000258071 -0.000645702 0 774 3869 1.02152e-07 9.63166e-06 -1.0643e-06 4.66309e-10 9.27745e-08 
0 0 0 0.00120332 -0.000739975 -0.0039748 0 774 1165 1.04555e-12 1.03092e-05 -1.36578e-06 5.20977e-10 1.03652e-07 
0 0 0 0.000227516 -0.000238321 -0.00127381 0 774 9441 -1.28507e-14 1.02734e-05 -1.35859e-06 5.19063e-10 1.03271e-07 
0 0 0 -0.00321995 0.000372506 0.00200622 0 774 8682 7.68167e-11 1.01593e-05 -1.33619e-06 5.14674e-10 1.02398e-07 
0 0 0 0.000941353 9.57639e-05 0.0011963 0 774 6076 -1.97327e-08 9.7686e-06 -1.23441e-06 4.74095e-10 9.43238e-08 
0 0 0 -0.00325898 0.00089175 0.00477229 0 774 4050 3.10837e-13 1.0267e-05 -1.35733e-06 5.18815e-10 1.03222e-07 
0 0 0 -0.00379197 0.000781015 0.00419504 0 774 13823 -2.2093e-09 1.03654e-05 -1.37801e-06 5.21568e-10 1.03769e-07 
0 0 0 0.000267204 -0.000615605 -0.00329207 0 774 5875 -1.268e-14 1.02592e-05 -1.35582e-06 5.1858e-10 1.03175e-07 
0 0 0 -0.00452455 -0.00105025 -0.00561829 0 774 3081 9.77138e-15 1.02689e-05 -1.35772e-06 5.18952e-10 1.03249e-07 
0 0 0 -0.00346608 -0.00185996 -0.00994992 0 774 1541 6.46486e-16 1.02659e-05 -1.35713e-06 5.1885e-10 1.03229e-07 
0 0 0 0.00495905 -0.000911346 -0.030194 0 774 3877 -4.29479e-06 5.42263e-05 1.51832e-05 2.26165e-09 4.50067e-07 
0 0 0 -0.000757795 -0.000626249 -0.00336838 0 774 12874 -7.02351e-13 1.03023e-05 -1.36444e-06 5.20819e-10 1.0362e-07 
0 0 0 -0.00688681 -0.000865953 -0.00471605 0 774 3998 2.42775e-07 1.00264e-05 -1.3701e-06 5.14375e-10 1.02338e-07 
0 0 0 -0.00550442 -0.00101806 -0.00544614 0 774 9650 -6.43648e-15 1.0266e-05 -1.35716e-06 5.18856e-10 1.0323e-07 
0 0 0 0.0177589 -0.00681229 -0.0363609 0 774 5900 -2.08239e-06 1.1138e-05 2.78559e-06 5.18809e-10 1.0322e-07 
0 0 0 0.0141742 0.0062531 0.0335112 0 774 11656 -9.59787e-06 -5.75107e-07 -5.25326e-05 4.73597e-10 9.42247e-08 
0 0 0 -1.82901 14.1874 3.6039 0 950 948 0.000875259 0.00214431 -0.00229894 5.52841e-08 1.10751e-05 
0 0 0 -0.00165247 -0.000546315 -0.00293213 0 774 7315 2.12903e-13 1.02561e-05 -1.35533e-06 5.18902e-10 1.03239e-07 
0 0 0 0.000170359 -0.000443355 -0.00236956 0 774 2953 7.79631e-14 1.02657e-05 -1.35707e-06 5.18757e-10 1.0321e-07 
0 0 0 -0.00654973 0.000690749 0.00297098 0 774 15754 -3.32506e-07 9.07579e-06 -9.49784e-07 5.05836e-10 1.00639e-07 
0 0 0 0.00558717 0.000708576 0.00379114 0 774 8237 -5.12419e-13 1.02666e-05 -1.35726e-06 5.1885e-10 1.03229e-07 
0 0 0 -0.0752095 -0.00211297 -0.0113034 0 774 9854 -1.70221e-18 1.02659e-05 -1.35713e-06 5.18851e-10 1.03229e-07 
0 0 0 -0.00152133 0.000816943 0.0043701 0 774 2858 -1.58437e-14 1.02644e-05 -1.35685e-06 5.18808e-10 1.0322e-07 
0 0 0 -0.00264906 0.00148505 0.00887164 0 774 5016 4.6434e-07 1.13804e-05 -1.8146e-06 5.21279e-10 1.03712e-07 
0 0 0 0.00508213 0.00206948 0.011079 0 774 3999 -2.16364e-12 1.02769e-05 -1.3592e-06 5.18896e-10 1.03238e-07 
0 0 0 -0.00262689 0.00142912 0.00764505 0 774 13272 -1.07829e-14 1.02644e-05 -1.35685e-06 5.18804e-10 1.03219e-07 
0 0 0 0.00444059 -0.00480133 -0.0256848 0 774 5294 -4.04356e-19 1.02659e-05 -1.35713e-06 5.18851e-10 1.03229e-07 
0 0 0 -0.00118282 0.00033714 0.00178948 0 774 11158 -1.0008e-09 1.03435e-05 -1.37315e-06 5.22058e-10 1.03867e-07 
0 0 0 0.0119197 -0.000367394 -0.0019631 0 774 13605 -1.41254e-12 1.0248e-05 -1.35361e-06 5.18149e-10 1.03089e-07 
0 0 0 0.0939239 -6.83293e-05 -0.00036553 0 774 17159 2.20127e-15 1.02659e-05 -1.35713e-06 5.18851e-10 1.03229e-07 
0 0 0 0.00638349 0.00225666 0.012072 0 774 2150 -3.9573e-19 1.02659e-05 -1.35713e-06 5.18851e-10 1.03229e-07 
0 0 0 0.0529826 0.00484728 0.0283184 0 774 6053 -5.7639e-06 1.3196e-05 -6.68386e-06 5.50781e-10 1.09582e-07 
0 0 0 -0.0779803 -0.0113755 -0.0608533 0 774 6026 1.04685e-17 1.02659e-05 -1.35713e-06 5.18851e-10 1.03229e-07 
0 0 0 0.00212979 -0.0549985 -0.141967 0 772 13147 -1.90269e-17 9.53905e-06 -2.53098e-06 5.00925e-10 9.96621e-08 
0 0 0 0.0454488 -0.0488465 -0.0817714 0 884 8127 -0.00160809 -0.00245835 0.00587518 2.93312e-08 5.85669e-06 
0 0 0 -0.0375542 -0.0213265 -0.0266881 0 884 13793 0.000480837 -0.000224569 0.00106139 8.69835e-09 1.73236e-06 
0 0 0 -0.00131825 0.0427937 4.23719e-05 0 884 5564 -2.17994e-05 -2.22689e-05 6.23255e-05 1.72497e-09 3.43245e-07 
0 0 0 -0.00335896 0.0557533 0.000650763 0 884 12057 2.81524e-05 0.000101879 0.000331586 5.31304e-09 1.0577e-06 
0 0 0 0.000954117 -0.0133062 -6.36101e-05 0 884 1196 -4.12393e-05 3.39701e-05 0.000106858 2.45167e-09 4.87893e-07 
0 0 0 -0.000644051 -0.0116411 0.000486377 0 884 3353 1.24807e-06 -7.17839e-06 1.45722e-05 7.51758e-10 1.49572e-07 
0 0 0 -0.000782751 -0.00957155 -0.00219412 0 884 11395 3.40381e-06 5.65159e-06 1.31949e-05 1.84746e-10 3.67549e-08 
0 0 0 2.49192e-191 9.44166e-21 -1.18141e-12 0 884 5230 -1.9405e-193 5.25978e-06 -1.62002 1.22522e-06 0.0003 
0 0 0 -0.0546071 -0.0596893 0.0285562 0 884 12817 6.34275e-05 -0.000288558 0.000590894 1.08229e-08 2.15606e-06 
0 0 0 -0.0403179 -0.144453 0.0626797 0 884 5200 -0.00032851 -0.000453923 0.00112065 1.79291e-08 3.57486e-06 
0 0 0 -0.0642904 0.0121339 -0.00865353 0 884 10185 0.0010035 -0.00128988 0.00136965 1.26312e-08 2.51686e-06 
0 0 0 -0.00777852 0.000218478 0.0032164 0 884 15744 6.49069e-06 -2.47141e-05 3.78527e-07 9.21383e-10 1.83324e-07 
0 0 0 -0.0269174 0.00760194 0.0102252 0 884 12014 -0.000139493 0.000183012 0.000494968 7.99604e-09 1.59235e-06 
0 0 0 0.00700891 0.00629276 -0.00812004 0 884 15489 9.56372e-05 -8.00171e-05 0.000269763 3.54253e-09 7.05074e-07 
0 0 0 0.00359007 -0.00870977 0.00170107 0 884 1137 -4.02918e-05 -2.72149e-05 6.45508e-05 2.03051e-09 4.04059e-07 
0 0 0 -0.000657599 -0.0121679 0.00129732 0 884 2268 1.79714e-06 5.08711e-06 1.17414e-05 8.38159e-10 1.66764e-07 
0 0 0 1.5291e-14 1.73578e-13 3.54314e-12 0 884 3064 4.3989e-17 5.25978e-06 -1.62002 1.22522e-06 0.0003 
0 0 0 -5.65408e-243 9.24641e-21 5.89793e-12 0 884 871 -1.86073e-243 5.25978e-06 -1.62002 1.22522e-06 0.0003 
0 0 0 3.11098e-302 -8.47415e-20 4.72348e-12 0 884 1962 -3.22125e-307 5.25978e-06 -1.62002 1.22522e-06 0.0003 
0 0 0 0.0200061 -0.0390937 -0.00446813 0 884 6287 1.21165e-05 3.54858e-05 0.000499591 6.37003e-09 1.26828e-06 
0 0 0 -0.00123897 0.0403268 -0.0166671 0 884 12592 -5.09408e-05 0.000231444 0.000914327 8.57824e-09 1.70841e-06 
0 0 0 0.0289862 0.0107349 -0.0013821 0 884 8097 3.92437e-05 4.97716e-06 0.000153383 2.94009e-09 5.85127e-07 
0 0 0 0.00909073 0.00603014 -0.000517809 0 884 12293 -3.67655e-05 -6.60178e-05 7.65555e-05 1.89009e-09 3.76109e-07 
0 0 0 0.0118047 -0.00424066 -0.000674274 0 884 9794 9.42426e-06 1.81758e-05 1.68999e-05 5.85341e-10 1.16458e-07 
0 0 0 1.99493e-302 2.83456e-20 -1.18144e-12 0 884 2565 -5.59658e-307 5.25978e-06 -1.62002 1.22522e-06 0.0003 
0 0 0 -4.42388e-32 8.48699e-20 -3.53506e-12 0 884 2145 2.93788e-32 5.25978e-06 -1.62002 1.22522e-06 0.0003 
0 0 0 -9.86697e-16 -1.88144e-16 4.09683e-13 0 884 7394 0.211134 0.0136851 -1.66358 1.24195e-06 0.000305354 
0 0 0 0.0192384 0.0145795 -0.033237 0 884 3360 -0.000585125 1.48464e-05 0.00351508 2.24812e-08 4.48507e-06 
0 0 0 0.00775196 -0.0213259 0.000741997 0 884 9111 -4.46984e-06 2.25848e-06 2.33315e-05 1.03299e-09 2.05532e-07 
0 0 0 0.0192682 -0.0146173 0.000372875 0 884 10074 -2.85391e-07 2.41076e-07 -7.47169e-07 9.79035e-11 1.94775e-08 
0 0 0 1.45052e-15 -1.45802e-16 4.12655e-13 0 884 3654 -0.0949635 0.0864363 -1.56678 1.20432e-06 0.00029339 
0 0 0 -3.10143e-16 1.50596e-16 4.12852e-13 0 884 3089 -0.0306281 -0.115398 -1.6302 1.22916e-06 0.000301256 
0 0 0 -3.99981e-151 -8.47195e-20 1.18145e-12 0 884 1269 1.71812e-152 5.25978e-06 -1.62002 1.22522e-06 0.0003 
0 0 0 0.0229137 0.165887 -0.115946 0 884 3062 -7.52133e-05 0.000394623 0.00480421 2.20757e-08 4.40394e-06 
0 0 0 0.012404 -0.00816063 -0.000187713 0 884 1651 4.02419e-06 3.71913e-05 2.62494e-05 9.30593e-10 1.85157e-07 
0 0 0 0.0130727 -0.0184887 -0.0022495 0 884 13204 -2.60533e-05 7.14775e-06 5.40321e-05 1.193e-09 2.37375e-07 
0 0 0 0.0189669 -0.00885221 -0.00298868 0 884 11619 -5.47141e-05 4.28932e-05 6.5151e-05 1.2949e-09 2.57654e-07 
0 0 0 0.0127059 -0.00155268 0.00182756 0 884 6876 -1.612e-06 6.18563e-06 7.85855e-06 8.38048e-10 1.66742e-07 
0 0 0 -1.62004e-302 4.71211e-20 -5.89793e-12 0 884 7839 -5.56556e-307 5.25978e-06 -1.62002 1.22522e-06 0.0003 
0 0 0 0.00600086 -0.0264067 -0.000578338 0 884 14638 2.93508e-06 3.70188e-05 7.427e-05 1.84082e-09 3.66303e-07 
0 0 0 0.00986508 -0.0213621 -0.00353049 0 884 10053 -3.39109e-05 3.03733e-05 9.10491e-05 1.68097e-09 3.34488e-07 
0 0 0 -0.0522497 -0.0848966 -0.0652073 0 884 3782 -0.000590116 -0.000674161 0.00188547 1.07842e-08 2.14834e-06 
0 0 0 2.55675e-97 8.48674e-20 4.72351e-12 0 884 5274 1.14305e-97 5.25978e-06 -1.62002 1.22522e-06 0.0003 
0 0 0 -6.56435e-16 4.32717e-17 -6.66747e-17 0 884 2130 0.0555136 0.0030094 -1.61663 1.22391e-06 0.000299582 
0 0 0 6.5699e-16 -5.21423e-17 5.56435e-17 0 884 4708 -0.0632593 -0.00341804 -1.62341 1.22653e-06 0.000300418 
0 0 0 2.33426e-15 9.69908e-17 -5.06801e-19 0 863 2723 -1.62241 0.0141093 3.28733e-05 1.22615e-06 0.000300295 
0 0 0 2.30093e-15 3.82453e-17 -5.76205e-19 0 863 4560 -1.61763 -0.00844409 -1.906e-05 1.2243e-06 0.000299705 
0 0 0 2.33011e-15 4.62991e-20 -2.06418e-302 0 862 444 -1.62002 5.25978e-06 2.62452e-307 1.22522e-06 0.0003 
0 0 0 2.32549e-15 2.97226e-19 2.49868e-20 0 862 927 -1.62002 9.37238e-05 -8.57865e-07 1.22522e-06 0.0003 
0 0 0 -0.0441564 -0.0135606 -0.180195 0 854 10063 0.00263775 0.000184549 0.0013059 1.70361e-08 3.39643e-06 
0 0 0 -0.0375542 -0.0213265 -0.0266881 0 854 13793 0.00167079 0.00075677 0.000353814 1.18943e-08 2.3698e-06 
0 0 0 -0.118454 0.349587 0.285031 0 854 3824 0.0029556 -0.000826033 -0.00122538 1.26462e-08 2.51985e-06 
0 0 0 0.0401004 0.231083 -0.0929541 0 854 9071 0.0041614 -0.00091024 -0.000246453 3.13623e-08 6.26384e-06 
0 0 0 -0.0531125 0.0638919 -0.166201 0 854 2099 0.000777873 -0.00289613 0.00097713 3.84877e-09 7.66055e-07 
0 0 0 -0.00335896 0.0557533 0.000650763 0 854 12057 0.00014795 -0.000448058 -8.03818e-05 2.58998e-09 5.15427e-07 
0 0 0 -0.0321154 -0.0126228 0.00352928 0 854 17449 0.00112891 0.000206347 -7.14612e-05 8.67044e-09 1.72679e-06 
0 0 0 -0.00281282 -0.016925 0.000957282 0 854 12317 1.52657e-05 4.83445e-05 3.56785e-06 1.57197e-10 3.1274e-08 
0 0 0 0.0104763 -0.00733258 0.00804895 0 854 17252 9.3086e-05 3.23756e-05 -3.34376e-05 3.798e-09 7.55946e-07 
0 0 0 -0.138652 0.0929782 0.0416455 0 854 14257 0.00536353 -0.00103429 -0.000675939 2.2892e-08 4.56725e-06 
0 0 0 0.0133068 -0.0169179 -0.00106413 0 854 14531 0.000355982 2.71296e-05 0.000100508 7.08104e-09 1.40997e-06 
0 0 0 -0.00188101 -0.012398 -0.00920921 0 854 5864 0.000314359 -5.95796e-05 6.18742e-06 4.82031e-09 9.59546e-07 
0 0 0 -0.0161521 0.048508 -0.0216776 0 854 13331 0.00198332 -0.0002692 0.000108624 1.57668e-08 3.14288e-06 
0 0 0 0.00548449 -0.0257166 0.0207048 0 854 6806 0.000445398 -0.000147036 -0.000167258 7.0054e-09 1.3949e-06 
0 0 0 -0.000585974 -0.0140211 -0.00222564 0 854 14529 1.3367e-05 6.682e-06 1.42329e-07 4.94147e-10 9.83135e-08 
0 0 0 -0.0184166 0.025373 0.0127585 0 854 5216 0.000325149 -0.00106865 -4.89858e-05 2.95402e-09 5.879e-07 
0 0 0 0.00104778 -0.0045757 0.0259036 0 854 5245 2.82696e-05 5.78294e-06 -1.26719e-05 1.20638e-09 2.40037e-07 
0 0 0 0.000954117 -0.0133062 -6.36101e-05 0 854 1196 0.000136551 2.43134e-06 -6.65501e-05 3.03251e-09 6.03526e-07 
0 0 0 0.00130976 -0.0269979 0.0297724 0 854 9600 5.88691e-05 2.67034e-05 -1.23823e-05 1.86656e-09 3.71426e-07 
0 0 0 0.00057645 -0.0378073 0.0660563 0 854 12690 0.000127404 2.92495e-05 5.13976e-05 2.84932e-09 5.67055e-07 
0 0 0 0.000528796 0.00069541 -0.00212164 0 854 10435 8.50539e-05 3.77714e-05 -4.01334e-07 2.19452e-09 4.36706e-07 
0 0 0 -0.00154091 -0.01048 -0.00535223 0 854 4220 0.000194161 -2.31578e-05 2.33756e-05 3.45903e-09 6.88448e-07 
0 0 0 0.00842296 0.0312429 -0.00234991 0 854 4109 0.000809512 -0.000119585 0.000151311 1.03659e-08 2.0649e-06 
0 0 0 0.006175 -0.0173342 0.0790085 0 854 1265 2.14216e-05 -2.01231e-05 -7.96695e-05 1.98625e-09 3.95249e-07 
0 0 0 -0.000644051 -0.0116411 0.000486377 0 854 3353 0.000165145 -3.64392e-05 -3.68739e-06 3.20132e-09 6.37137e-07 
0 0 0 -0.00199869 -0.000895803 0.0635419 0 854 11718 0.000173143 0.000309607 -0.00047162 3.12372e-09 6.21687e-07 
0 0 0 -0.00591975 -0.0103837 0.00554525 0 854 12907 0.000106199 4.384e-05 2.90318e-05 1.58819e-09 3.16023e-07 
0 0 0 0.00392184 0.02542 0.0375538 0 854 15504 0.000579494 -0.000263991 -0.000119424 8.02588e-09 1.59829e-06 
0 0 0 0.00135496 0.0131112 0.0637777 0 854 8633 4.17068e-05 -4.42515e-06 8.37979e-06 1.54728e-09 3.0788e-07 
0 0 0 -0.00104121 -0.0114807 -0.000600592 0 854 81 0.000129648 6.23038e-05 1.78986e-05 2.65126e-09 5.27626e-07 
0 0 0 0.000846858 -0.00779846 -0.0166229 0 854 8265 2.98567e-05 1.63206e-06 -1.48389e-05 1.20586e-09 2.39934e-07 
0 0 0 -0.0073593 -0.00538624 -0.000529552 0 854 11931 0.000106512 1.33668e-05 2.67563e-05 1.39111e-09 2.768e-07 
0 0 0 -0.00596153 0.000953375 0.0481268 0 854 14366 0.00034463 -8.52768e-06 -0.000172104 4.65048e-09 9.25718e-07 
0 0 0 0.00536006 0.0267191 0.0750673 0 854 11075 0.000204198 6.81013e-07 -3.08842e-06 4.49506e-09 8.94764e-07 
0 0 0 -0.000186969 0.0396267 0.106553 0 854 473 8.55748e-06 -1.51965e-06 -3.99979e-06 4.15489e-10 8.26632e-08 
0 0 0 -0.00456065 0.0117386 0.0608435 0 854 11676 0.000486608 -2.16066e-05 -0.000107303 6.23767e-09 1.24191e-06 
0 0 0 -0.00119884 0.00236141 -0.0221305 0 854 2163 8.19825e-05 -1.56095e-05 -9.8282e-06 1.87847e-09 3.73798e-07 
0 0 0 0.00104823 -0.0079144 0.0403708 0 854 3386 5.11817e-05 1.82053e-05 -1.79849e-05 1.68087e-09 3.34468e-07 
0 0 0 0.000401587 -0.0292101 0.0413394 0 854 13971 0.000635274 7.19486e-05 -0.000146592 8.11457e-09 1.61597e-06 
0 0 0 0.000310929 -0.00934215 -0.00612058 0 854 7203 5.52187e-06 3.17133e-06 -1.32855e-07 4.16295e-10 8.28236e-08 
0 0 0 -0.00293718 0.000679901 0.0120135 0 854 12013 0.000182679 5.7019e-05 3.27698e-05 3.12368e-09 6.21677e-07 
0 0 0 -0.0156632 0.00783761 0.02111 0 854 3206 0.00023937 -0.000135388 0.000141101 2.24088e-09 4.45934e-07 
0 0 0 2.49192e-191 9.44166e-21 -1.18141e-12 0 850 5230 -1.9405e-193 5.25978e-06 1.62002 1.22522e-06 0.0003 
0 0 0 1.5291e-14 1.73578e-13 3.54314e-12 0 850 3064 4.39892e-17 5.25978e-06 1.62002 1.22522e-06 0.0003 
0 0 0 -4.2383e-302 4.72846e-20 -4.7235e-12 0 850 478 -1.07394e-307 5.25978e-06 1.62002 1.22522e-06 0.0003 
0 0 0 -5.65408e-243 9.24641e-21 5.89793e-12 0 850 871 -1.86073e-243 5.25978e-06 1.62002 1.22522e-06 0.0003 
0 0 0 3.11098e-302 -8.47415e-20 4.72348e-12 0 850 1962 2.30465e-307 5.25978e-06 1.62002 1.22522e-06 0.0003 
0 0 0 -3.67268e-303 -8.49362e-20 -2.36061e-12 0 850 283 2.72355e-307 5.25978e-06 1.62002 1.22522e-06 0.0003 
0 0 0 -1.9927e-302 4.69477e-20 -2.25063e-15 0 850 6540 1.81122e-303 5.25978e-06 1.62002 1.22522e-06 0.0003 
0 0 0 1.99493e-302 2.83456e-20 -1.18144e-12 0 850 2565 6.52643e-307 5.25978e-06 1.62002 1.22522e-06 0.0003 
0 0 0 -4.42388e-32 8.48699e-20 -3.53506e-12 0 850 2145 2.93788e-32 5.25978e-06 1.62002 1.22522e-06 0.0003 
0 0 0 3.1454e-302 -4.73165e-20 1.18147e-12 0 850 5520 2.44357e-307 5.25978e-06 1.62002 1.22522e-06 0.0003 
0 0 0 -1.40259e-16 -7.19721e-18 -4.71825e-12 0 850 10198 0.0100552 0.000645449 1.62117 1.22567e-06 0.000300142 
0 0 0 -9.86697e-16 -1.88144e-16 4.09683e-13 0 850 7394 0.120125 0.00778839 1.57685 1.20831e-06 0.000294646 
0 0 0 -2.19884e-302 -8.48406e-20 4.72346e-12 0 850 2321 -5.68752e-307 5.25978e-06 1.62002 1.22522e-06 0.0003 
0 0 0 1.83919e-193 -7.55682e-20 5.89796e-12 0 850 7581 -2.34336e-195 5.25978e-06 1.62002 1.22522e-06 0.0003 
0 0 0 1.45052e-15 -1.45802e-16 4.12655e-13 0 850 3654 -0.180551 0.102151 1.67385 1.24585e-06 0.00030661 
0 0 0 -3.10143e-16 1.50596e-16 4.12852e-13 0 850 3089 -0.0251166 -0.0946312 1.60986 1.22127e-06 0.000298744 
0 0 0 -3.99981e-151 -8.47195e-20 1.18145e-12 0 850 1269 1.71812e-152 5.25978e-06 1.62002 1.22522e-06 0.0003 
0 0 0 1.29282e-16 9.95525e-18 -4.718e-12 0 850 5323 -0.00728717 -0.000458697 1.61887 1.22478e-06 0.000299858 
0 0 0 4.30311e-302 8.48055e-20 2.3606e-12 0 850 392 1.85725e-307 5.25978e-06 1.62002 1.22522e-06 0.0003 
0 0 0 3.43594e-302 -2.8249e-20 3.53501e-12 0 850 13677 6.11009e-307 5.25978e-06 1.62002 1.22522e-06 0.0003 