ITEM: TIMESTEP
9750000
ITEM: NUMBER OF ENTRIES
308
ITEM: BOX BOUNDS ff ff ff
-0.01 0.45
-0.15 0.15
-0.08 0.1
ITEM: ENTRIES c_pwc[1] c_pwc[2] c_pwc[3] 
0 948 1196 
0 896 1210 
0 850 41 
0 885 41 
0 962 1220 
0 895 121 
0 854 620 
0 854 329 
0 853 1199 
0 852 1201 
0 894 499 
0 894 314 
0 894 1081 
0 894 1008 
0 894 883 
0 894 352 
0 894 1122 
0 894 1159 
0 894 1080 
0 855 65 
0 855 1104 
0 932 1200 
1 1861 146 
1 1874 146 
1 1873 146 
1 1883 146 
1 1889 146 
1 529 146 
1 530 146 
1 1831 146 
1 1828 146 
1 1842 146 
1 1830 146 
1 1827 146 
1 1871 146 
1 1869 146 
1 1868 146 
1 1893 146 
1 1892 146 
1 1885 146 
1 526 146 
1 527 146 
1 541 146 
1 2698 752 
1 2717 752 
1 2703 752 
1 2723 752 
1 2724 752 
1 2725 752 
0 953 243 
0 951 189 
0 885 270 
0 885 969 
0 885 48 
0 885 127 
0 885 52 
0 885 908 
0 885 276 
0 885 6 
0 885 79 
0 885 351 
0 885 45 
0 885 39 
0 885 393 
0 850 270 
0 850 969 
0 850 48 
0 850 127 
0 850 52 
0 850 908 
0 850 276 
0 850 6 
0 850 79 
0 850 351 
0 850 45 
0 851 39 
0 851 393 
0 884 77 
0 884 49 
0 885 185 
0 894 434 
0 894 778 
0 894 581 
0 894 151 
0 894 1020 
0 894 482 
0 894 357 
0 894 962 
0 895 766 
0 895 1061 
0 895 373 
0 381 1209 
0 934 339 
0 921 481 
0 915 592 
0 961 1029 
0 961 40 
0 959 44 
0 753 1029 
0 753 40 
0 886 15 
0 885 15 
0 850 15 
0 888 1175 
0 891 818 
0 887 68 
0 892 502 
0 892 544 
0 892 655 
0 895 655 
0 383 386 
0 367 783 
0 399 1117 
0 433 31 
0 407 1137 
0 407 431 
0 405 612 
0 429 175 
0 429 298 
0 413 691 
0 411 1204 
0 380 571 
0 376 867 
0 383 1194 
0 381 1007 
0 390 470 
0 389 325 
0 372 1072 
0 370 791 
0 364 1182 
0 400 136 
0 437 389 
0 433 656 
0 408 143 
0 428 1151 
0 426 1038 
0 426 1149 
0 424 409 
0 424 914 
0 425 371 
0 421 191 
0 529 1079 
0 527 256 
0 527 88 
0 382 664 
0 382 411 
0 380 187 
0 545 893 
0 539 327 
0 388 1097 
0 525 217 
0 519 148 
0 372 398 
0 368 443 
0 364 542 
0 551 464 
0 400 687 
0 400 1083 
0 400 880 
0 398 559 
0 587 870 
0 430 1190 
0 428 743 
0 426 795 
0 420 106 
0 567 115 
0 567 982 
0 565 1030 
0 416 439 
0 537 401 
0 537 366 
0 535 614 
0 535 312 
0 533 201 
0 531 498 
0 531 132 
0 529 444 
0 527 171 
0 528 38 
0 526 804 
0 525 804 
0 545 509 
0 541 35 
0 522 387 
0 547 1128 
0 585 520 
0 517 925 
0 557 689 
0 555 616 
0 555 1 
0 555 587 
0 560 117 
0 579 266 
0 577 977 
0 575 521 
0 573 89 
0 580 725 
0 569 134 
0 538 412 
0 534 376 
0 534 565 
0 530 578 
0 528 454 
0 535 936 
0 529 280 
0 529 87 
0 546 81 
0 544 447 
0 542 943 
0 542 817 
0 524 822 
0 520 1010 
0 550 234 
0 548 816 
0 553 500 
0 549 746 
0 562 57 
0 558 549 
0 556 485 
0 580 770 
0 576 585 
0 572 374 
0 579 558 
0 577 47 
0 573 158 
0 568 611 
0 564 1087 
0 563 388 
0 1057 36 
0 1053 837 
0 1051 608 
0 1069 5 
0 1065 98 
0 1065 736 
0 542 223 
0 1044 205 
0 526 605 
0 1075 405 
0 548 135 
0 1111 617 
0 590 177 
0 588 921 
0 1081 190 
0 558 840 
0 1107 341 
0 1107 637 
0 1107 596 
0 1101 478 
0 1093 147 
0 1091 169 
0 1097 279 
0 1063 349 
0 1060 408 
0 1059 935 
0 1059 75 
0 1056 785 
0 1070 23 
0 1066 418 
0 1045 97 
0 1080 212 
0 1078 530 
0 1073 242 
0 1114 445 
0 1113 25 
0 1087 90 
0 1083 129 
0 1105 99 
0 1100 200 
0 1100 248 
0 1098 1048 
1 2200 200 
0 1095 281 
0 1093 532 
0 1093 93 
0 1092 124 
0 1091 307 
0 1090 11 
0 1089 429 
0 1097 13 
0 1072 83 
0 1070 697 
0 1046 153 
0 1052 215 
0 1078 646 
0 1076 506 
0 1341 94 
0 1116 421 
0 1112 119 
0 1307 62 
0 1088 78 
0 1212 178 
0 1104 683 
0 1100 939 
0 1100 178 
1 2219 178 
0 1096 461 
0 1090 19 
0 1280 86 
0 1279 315 
0 1270 267 
0 1305 858 
0 1341 292 
0 1309 484 
0 1329 476 
0 1319 37 
0 1293 518 
0 127 24 
0 151 174 
