ITEM: TIMESTEP
9050000
ITEM: NUMBER OF ENTRIES
288
ITEM: BOX BOUNDS ff ff ff
-0.01 0.45
-0.15 0.15
-0.08 0.1
ITEM: ENTRIES c_pwc[1] c_pwc[2] c_pwc[3] 
0 850 41 
0 885 41 
0 884 634 
0 854 654 
0 854 671 
0 852 680 
0 894 540 
0 894 438 
0 894 1000 
0 894 519 
0 894 1052 
0 855 902 
0 855 427 
0 855 131 
0 939 1023 
1 529 146 
1 530 146 
1 1842 146 
1 1831 146 
1 1828 146 
1 1830 146 
1 1827 146 
1 1861 146 
1 1874 146 
1 1873 146 
1 1883 146 
1 1889 146 
1 526 146 
1 541 146 
1 527 146 
1 1885 146 
1 1892 146 
1 1893 146 
1 1869 146 
1 1868 146 
1 1871 146 
1 2698 752 
1 2717 752 
1 2703 752 
1 2723 752 
1 2724 752 
1 2725 752 
0 885 270 
0 885 969 
0 885 48 
0 885 127 
0 885 52 
0 885 908 
0 885 276 
0 885 6 
0 885 79 
0 885 351 
0 885 45 
0 885 39 
0 885 393 
0 850 270 
0 850 969 
0 850 48 
0 850 127 
0 850 52 
0 850 908 
0 850 276 
0 850 6 
0 850 79 
0 850 351 
0 850 45 
0 851 39 
0 851 393 
0 962 175 
0 894 814 
0 894 555 
0 894 1022 
0 894 289 
0 894 462 
0 894 846 
0 894 959 
0 895 338 
0 921 1054 
0 961 1029 
0 961 40 
0 753 1029 
0 753 40 
0 886 15 
0 885 15 
0 850 15 
0 895 941 
0 383 791 
0 377 447 
0 375 479 
0 366 804 
0 400 1085 
0 365 885 
0 403 114 
0 423 435 
0 377 559 
0 390 1087 
0 391 215 
0 372 209 
0 373 1069 
0 402 733 
0 398 191 
0 436 925 
0 432 366 
0 432 266 
0 433 498 
0 409 180 
0 409 870 
0 430 148 
0 428 867 
0 426 982 
0 424 389 
0 427 1038 
0 425 622 
0 416 208 
0 416 243 
0 412 443 
0 412 1097 
0 537 782 
0 535 35 
0 529 412 
0 382 386 
0 378 226 
0 378 358 
0 376 994 
0 545 89 
0 545 236 
0 545 202 
0 523 227 
0 519 217 
0 368 200 
0 553 282 
0 400 851 
0 396 47 
0 587 478 
0 436 320 
0 434 616 
0 432 325 
0 583 170 
0 581 158 
0 428 1 
0 569 822 
0 569 1030 
0 565 935 
0 414 405 
0 535 298 
0 535 168 
0 531 944 
0 529 284 
0 532 90 
0 526 155 
0 526 556 
0 525 155 
0 525 22 
0 521 98 
0 519 612 
0 519 255 
0 519 413 
0 516 33 
0 517 33 
0 553 943 
0 585 424 
0 584 565 
0 583 470 
0 557 477 
0 560 219 
0 563 520 
0 583 532 
0 579 812 
0 579 691 
0 577 1072 
0 577 17 
0 575 837 
0 573 694 
0 576 190 
0 566 687 
0 571 875 
0 538 31 
0 536 780 
0 536 411 
0 536 689 
0 532 847 
0 537 509 
0 522 251 
0 520 100 
0 516 132 
0 554 88 
0 549 1102 
0 590 106 
0 590 1048 
0 590 630 
0 588 664 
0 588 785 
0 588 587 
0 562 656 
0 558 484 
0 556 153 
0 582 569 
0 578 307 
0 576 247 
0 570 365 
0 568 444 
0 568 939 
0 566 921 
0 566 218 
0 564 743 
0 1059 319 
0 1057 280 
0 1051 327 
0 1067 223 
0 1067 349 
0 1079 725 
0 1079 1010 
0 1077 816 
0 1113 335 
0 1113 476 
0 1111 372 
0 1111 75 
0 1109 117 
0 1087 571 
0 1087 770 
0 1085 585 
0 1085 864 
0 1081 238 
0 562 388 
1 2571 388 
0 1103 178 
0 1101 59 
0 1097 558 
0 1091 259 
0 570 418 
0 1062 817 
0 1069 494 
0 1068 374 
0 1046 682 
0 1045 248 
0 1042 277 
0 1052 793 
0 1079 162 
0 1078 201 
0 1073 341 
0 1116 50 
0 1116 774 
0 1081 428 
0 1089 147 
0 1107 177 
0 1103 86 
0 1102 441 
0 1098 212 
0 1091 649 
0 1057 197 
0 1053 124 
0 1070 241 
0 1068 174 
0 1066 13 
1 2220 241 
0 1271 19 
0 1046 166 
0 1042 613 
0 1052 27 
0 1078 142 
0 1074 275 
0 1116 163 
0 1111 500 
0 1110 363 
0 1088 10 
0 1082 119 
0 1331 379 
0 1104 408 
0 1104 37 
0 1092 461 
0 1090 596 
0 1281 518 
0 1281 265 
0 1280 315 
0 1279 82 
0 1295 11 
0 1277 23 
0 1273 422 
0 1273 670 
0 1271 24 
0 1305 281 
0 1301 205 
0 1299 279 
0 1313 81 
0 1309 32 
0 74 93 
0 1338 94 
0 1316 67 
