ITEM: TIMESTEP
9600000
ITEM: NUMBER OF ENTRIES
2839
ITEM: BOX BOUNDS ff ff ff
-0.01 0.45
-0.15 0.15
-0.08 0.1
ITEM: ENTRIES c_pwc[1] c_pwc[2] c_pwc[3] c_pwc[4] c_pwc[5] c_pwc[6] c_pwc[7] c_pwc[8] c_pwc[9] c_pwc[10] c_pwc[11] c_pwc[12] c_pwc[13] c_pwc[14] 
0 0 0 0.000302225 -2.38357e-05 5.7717e-05 0 776 7649 -1.26111e-07 1.45244e-05 3.4381e-07 6.45853e-10 1.28499e-07 
0 0 0 7.30091e-05 -1.61815e-05 6.97732e-05 0 776 7937 -6.28144e-07 8.23043e-06 9.53258e-07 4.41976e-10 8.79331e-08 
0 0 0 2.16957e-05 -1.85282e-05 3.8295e-05 0 776 5540 -8.8141e-08 1.08048e-05 -1.65163e-06 5.30276e-10 1.05502e-07 
0 0 0 5.94797e-06 -9.50323e-06 2.39701e-05 0 776 1200 -1.78199e-06 1.0743e-05 -1.16072e-06 5.30181e-10 1.05483e-07 
0 0 0 3.23552e-06 -2.48417e-07 2.07489e-05 0 776 1871 1.45773e-09 1.05197e-05 -5.05833e-09 5.24777e-10 1.04408e-07 
0 0 0 5.12723e-06 2.19506e-06 1.12866e-06 0 776 1972 1.90046e-07 1.1334e-05 4.51659e-06 5.52042e-10 1.09833e-07 
0 0 0 9.85654e-07 5.50221e-07 8.93147e-07 0 776 733 2.95472e-08 9.49062e-06 3.84722e-06 4.90142e-10 9.75165e-08 
0 0 0 0.00115434 -3.11629e-06 9.28969e-05 0 776 10595 -7.45093e-08 1.13831e-05 -1.24434e-06 5.52499e-10 1.09924e-07 
0 0 0 0.000298953 6.75153e-06 8.74886e-06 0 776 894 -1.16072e-09 1.06468e-05 -4.32035e-07 5.30507e-10 1.05548e-07 
0 0 0 0.000121713 2.57962e-06 -7.01693e-08 0 776 9680 -1.66312e-07 1.09307e-05 -3.12741e-07 5.38966e-10 1.07231e-07 
0 0 0 -2.47551e-05 -3.97394e-06 2.33286e-05 0 776 414 -1.94646e-06 1.02434e-05 -1.86972e-06 5.14737e-10 1.0241e-07 
0 0 0 3.64243e-05 -4.04647e-06 9.04019e-06 0 776 206 -1.62151e-06 1.17172e-05 1.55816e-06 5.63077e-10 1.12028e-07 
0 0 0 2.89374e-05 4.58516e-08 -3.77945e-05 0 776 1894 4.2187e-07 1.06762e-05 1.43426e-06 5.30033e-10 1.05454e-07 
0 0 0 0.00101245 -3.63433e-05 -5.72561e-05 0 776 9977 2.30075e-08 1.08948e-05 9.24958e-07 5.2941e-10 1.0533e-07 
0 0 0 -0.000198048 1.12672e-05 -6.1366e-05 0 776 1225 -4.98036e-08 9.64254e-06 7.31933e-08 4.9771e-10 9.90223e-08 
0 0 0 -7.27602e-06 8.47126e-06 -5.66992e-06 0 776 3512 -2.03576e-08 1.06168e-05 -6.54212e-07 5.29886e-10 1.05424e-07 
0 0 0 2.87927e-05 -1.44137e-06 -2.55043e-05 0 776 690 -2.14088e-06 1.20565e-05 -1.21815e-06 5.74464e-10 1.14294e-07 
0 0 0 6.55453e-05 4.69167e-06 -1.09383e-05 0 776 280 -3.35961e-07 1.09838e-05 3.9363e-07 5.41162e-10 1.07668e-07 
0 0 0 -7.07995e-06 -1.32859e-06 2.3477e-06 0 776 2352 9.49992e-07 1.12521e-05 7.67371e-07 5.48629e-10 1.09154e-07 
0 0 0 0.00026328 -0.000209057 0.00139516 0 776 5611 -6.42471e-06 2.23173e-05 -6.06833e-06 8.26572e-10 1.64458e-07 
0 0 0 0.000562878 -1.65673e-05 0.00132755 0 776 9269 5.2277e-08 1.07966e-05 -4.22409e-07 5.3043e-10 1.05533e-07 
0 0 0 -0.000419503 -3.33254e-09 -0.000318365 0 776 6408 3.82139e-16 1.05197e-05 2.76705e-16 5.24829e-10 1.04418e-07 
0 0 0 9.77842e-05 3.56767e-06 -8.3742e-05 0 776 101 -1.61744e-07 1.09866e-05 1.31473e-07 5.41013e-10 1.07638e-07 
0 0 0 4.72532e-05 -4.7347e-06 -7.975e-05 0 776 317 -7.98947e-07 1.05968e-05 -1.66182e-07 5.26365e-10 1.04724e-07 
0 0 0 8.6971e-05 -7.5936e-08 1.54938e-05 0 776 1705 6.29245e-14 1.05199e-05 2.93972e-14 5.24819e-10 1.04416e-07 
0 0 0 0.000370457 -9.10099e-06 0.000201294 0 776 8455 -1.01134e-07 1.08177e-05 -4.27765e-07 5.32734e-10 1.05991e-07 
0 0 0 1.6754e-05 -2.16139e-07 0.000719476 0 776 11208 1.37647e-12 1.05368e-05 1.23808e-12 5.25351e-10 1.04522e-07 
0 0 0 0.000235675 3.23718e-09 0.000555993 0 776 553 2.42414e-16 1.05194e-05 5.5069e-16 5.24821e-10 1.04417e-07 
0 0 0 -1.73723e-05 1.43868e-07 0.00011588 0 776 585 -5.44598e-08 1.05167e-05 -1.04085e-08 5.24761e-10 1.04405e-07 
0 0 0 4.51996e-05 2.75593e-06 -8.20793e-05 0 776 2069 -2.22392e-07 1.1432e-05 5.37203e-07 5.55335e-10 1.10488e-07 
0 0 0 -8.88054e-05 -7.24993e-06 -7.90291e-05 0 776 531 1.33958e-06 1.2902e-05 2.38299e-06 5.9982e-10 1.19339e-07 
0 0 0 0.0020299 -1.70873e-07 0.00220963 0 776 10613 1.43042e-11 1.05287e-05 -4.04368e-12 5.25093e-10 1.04471e-07 
0 0 0 0.00105029 -1.81109e-07 -0.000244886 0 776 6702 -4.90865e-13 1.05113e-05 -1.50893e-13 5.24512e-10 1.04355e-07 
0 0 0 -0.0010005 1.66358e-10 -0.000413535 0 776 1002 -4.58536e-17 1.05196e-05 -1.89469e-17 5.24825e-10 1.04417e-07 
0 0 0 7.68864e-05 -3.11928e-07 -3.35634e-05 0 776 1470 -6.36253e-08 1.05697e-05 -2.89376e-09 5.26424e-10 1.04736e-07 
0 0 0 5.24509e-05 2.02942e-09 6.65706e-05 0 776 154 2.98356e-17 1.05195e-05 3.78613e-17 5.24825e-10 1.04417e-07 
0 0 0 -4.54905e-05 -5.13456e-07 -0.000204648 0 776 1045 4.09371e-06 1.38659e-05 3.85094e-06 6.30816e-10 1.25507e-07 
0 0 0 -0.00212994 -7.23612e-05 0.00101634 0 776 12304 -2.42177e-08 1.1627e-05 2.05688e-08 5.45637e-10 1.08558e-07 
0 0 0 0.00250095 3.31317e-12 0.0020369 0 776 4634 -3.0214e-19 1.05196e-05 -3.0214e-19 5.24825e-10 1.04417e-07 
0 0 0 0.00171636 2.34616e-12 0.00269378 0 776 72 6.85838e-20 1.05196e-05 1.65032e-19 5.24825e-10 1.04417e-07 
0 0 0 -0.000238581 1.99884e-07 -0.000895244 0 776 4165 -1.54334e-08 1.05599e-05 -2.46913e-10 5.2621e-10 1.04693e-07 
0 0 0 0.00057881 1.86147e-07 -0.00109977 0 776 1920 -9.69334e-10 1.04848e-05 -6.26406e-09 5.23708e-10 1.04195e-07 
0 0 0 0.00010959 -1.52438e-10 7.0736e-05 0 776 3087 -4.58722e-18 1.05196e-05 -2.96174e-18 5.24825e-10 1.04417e-07 
0 0 0 -0.00119449 0.000119642 0.000960883 0 776 12917 2.92724e-07 9.59027e-06 -3.18709e-07 5.19737e-10 1.03405e-07 
0 0 0 0.00102596 1.25282e-08 -0.000693563 0 776 1063 2.86551e-15 1.05195e-05 -2.87304e-15 5.24825e-10 1.04417e-07 
0 0 0 -0.00055956 -4.85997e-09 -0.0017174 0 776 4185 8.65606e-13 1.05199e-05 -2.32524e-13 5.24835e-10 1.04419e-07 
0 0 0 -0.00224236 -2.48789e-12 -0.00223156 0 776 4938 1.01425e-19 1.05196e-05 1.01776e-19 5.24825e-10 1.04417e-07 
0 0 0 -0.000135039 -2.09555e-06 -0.000157353 0 776 18 3.89652e-10 1.05255e-05 2.36665e-11 5.24569e-10 1.04367e-07 
0 0 0 -0.00390176 -3.45774e-06 0.00214122 0 776 10360 -2.97096e-09 1.05177e-05 -9.49578e-10 5.24013e-10 1.04256e-07 
0 0 0 -0.000231249 2.89085e-05 2.8329e-05 0 776 9715 1.2006e-06 1.29158e-05 -5.08159e-07 6.07809e-10 1.20929e-07 
0 0 0 -0.000399111 -2.5498e-05 -6.05458e-05 0 776 4095 4.66942e-07 1.07671e-05 7.25088e-09 5.27528e-10 1.04955e-07 
0 0 0 -0.000352755 -3.61929e-05 -0.000146634 0 776 1367 1.20969e-06 1.14457e-05 -5.42826e-07 5.47468e-10 1.08923e-07 
0 0 0 0.000136621 -6.89315e-07 -0.000127651 0 776 1036 -3.15117e-07 1.08691e-05 6.49951e-07 5.36238e-10 1.06688e-07 
0 0 0 -2.38318e-05 1.60235e-05 -0.000223838 0 776 6544 -1.69821e-06 1.20708e-05 1.10294e-06 5.78614e-10 1.1512e-07 
0 0 0 -0.00312493 -5.96345e-05 0.00053647 0 776 12116 7.70768e-11 1.22616e-05 -3.43253e-11 5.6869e-10 1.13145e-07 
0 0 0 -0.000250778 -4.02481e-05 -0.000490574 0 776 12691 1.12542e-07 8.35883e-06 -3.0564e-07 4.41195e-10 8.77778e-08 
0 0 0 -0.000301032 -8.6905e-05 0.000148527 0 776 8603 2.4156e-06 1.30147e-05 3.5068e-06 5.8668e-10 1.16725e-07 
0 0 0 0.000122057 5.14346e-05 0.00041417 0 776 9639 -5.52577e-08 9.59946e-06 -2.59231e-07 5.05062e-10 1.00485e-07 
0 0 0 5.60187e-05 -1.24222e-05 -0.000341043 0 776 7185 -2.23533e-07 1.09506e-05 6.72703e-07 5.36394e-10 1.06719e-07 
0 0 0 -0.00016984 -3.34457e-05 -0.000499396 0 776 4532 1.8193e-07 1.49741e-05 4.00682e-06 6.57278e-10 1.30772e-07 
0 0 0 -0.000276041 -1.79207e-07 -0.000262357 0 776 14724 4.54655e-13 1.0513e-05 -1.04972e-14 5.24568e-10 1.04366e-07 
0 0 0 -0.000296633 1.35091e-06 6.29854e-05 0 776 9279 5.54746e-08 1.04893e-05 -6.68685e-08 5.24109e-10 1.04275e-07 
0 0 0 -0.000692487 0.000106072 0.000146532 0 776 3983 -4.30681e-07 7.96488e-06 3.86187e-07 4.6003e-10 9.15254e-08 
0 0 0 6.2578e-05 -4.82759e-06 -0.000223535 0 776 3427 1.62631e-07 1.06799e-05 4.83775e-07 5.29101e-10 1.05268e-07 
0 0 0 0.000514785 -2.47359e-05 -0.000553202 0 776 1118 -2.89098e-07 1.21969e-05 2.41778e-06 5.73999e-10 1.14202e-07 
0 0 0 -0.000166638 8.4579e-07 -0.000340249 0 776 10496 -4.20553e-13 1.05084e-05 -2.01583e-13 5.24637e-10 1.0438e-07 
0 0 0 -0.0012158 -4.52623e-07 0.000565551 0 776 9160 1.65683e-12 1.05273e-05 -8.09248e-13 5.24984e-10 1.04449e-07 
0 0 0 -0.000523815 4.17267e-06 0.00267312 0 776 7431 -5.91352e-14 1.06143e-05 2.91822e-12 5.28873e-10 1.05223e-07 
0 0 0 -0.000145957 -2.44068e-08 0.000739811 0 776 1366 2.91601e-14 1.05197e-05 -3.88232e-15 5.24823e-10 1.04417e-07 
0 0 0 0.000122343 4.22472e-05 -0.000548123 0 776 10907 -6.44704e-07 1.12128e-05 5.03824e-07 5.5668e-10 1.10756e-07 
0 0 0 -0.00120304 2.58367e-11 -0.000792047 0 776 7764 -9.1001e-18 1.05196e-05 -6.00125e-18 5.24825e-10 1.04417e-07 
0 0 0 -0.00229425 2.44071e-08 0.00114975 0 776 7286 2.65545e-13 1.05247e-05 1.35217e-12 5.25e-10 1.04452e-07 
0 0 0 -0.000473227 -9.96862e-07 0.000128609 0 776 215 5.32013e-09 1.05273e-05 -1.0018e-08 5.24865e-10 1.04425e-07 
0 0 0 -0.000680237 -0.000154045 -0.000278378 0 776 1887 3.11976e-06 1.32702e-05 4.86819e-06 5.80652e-10 1.15525e-07 
0 0 0 0.00127533 2.61072e-08 0.000731419 0 776 4164 2.07176e-09 1.05461e-05 -2.22023e-09 5.25714e-10 1.04594e-07 
0 0 0 4.62348e-05 -0.000165194 2.03295e-07 0 776 3630 4.46542e-08 1.51573e-05 -1.8572e-07 6.35873e-10 1.26513e-07 
0 0 0 0.000461398 -9.79188e-06 0.000479603 0 776 5953 1.69149e-07 1.10591e-05 -5.60646e-07 5.40516e-10 1.07539e-07 
0 0 0 -0.000140777 1.08895e-06 0.000245685 0 776 5560 3.59179e-08 1.05709e-05 -8.60185e-08 5.26765e-10 1.04803e-07 
0 0 0 0.000209497 -1.00109e-05 -9.96351e-05 0 776 11531 5.70285e-08 1.0594e-05 3.03093e-07 5.25133e-10 1.04479e-07 
0 0 0 -0.00173963 -0.000241563 -0.0018264 0 776 12872 7.80948e-06 2.28305e-05 8.32584e-06 8.33774e-10 1.65891e-07 
0 0 0 -0.00205229 -2.57965e-05 -0.00082236 0 776 11571 6.88861e-06 1.59784e-05 4.04647e-06 6.88264e-10 1.36937e-07 
0 0 0 -0.00178291 0.000233236 -0.0015978 0 776 7844 8.91066e-06 3.88144e-06 1.0463e-05 3.29481e-10 6.55509e-08 
0 0 0 0.000920247 -3.78182e-05 -0.000112122 0 776 14434 -3.11089e-08 1.00485e-05 -2.74878e-08 5.00791e-10 9.96354e-08 
0 0 0 -8.7944e-05 6.89544e-07 -0.000334612 0 776 7893 1.18689e-12 1.05138e-05 9.86954e-12 5.24782e-10 1.04409e-07 
0 0 0 0.00145346 1.50481e-06 -0.00113336 0 776 7313 3.19195e-10 1.04884e-05 -7.4005e-09 5.24112e-10 1.04276e-07 
0 0 0 -0.00156764 0.000807104 -0.00307826 0 776 5950 1.31235e-05 1.10307e-06 1.34217e-05 3.55666e-10 7.07607e-08 
0 0 0 -0.0019268 -0.000323016 -0.00275761 0 776 4298 1.76369e-05 4.84163e-06 2.09366e-05 2.33648e-10 4.64842e-08 
0 0 0 0.000592991 4.0927e-05 0.000930038 0 776 5167 -2.64555e-07 1.09371e-05 -1.30585e-07 5.47422e-10 1.08913e-07 
0 0 0 1.3533e-05 -1.09051e-06 0.0004434 0 776 634 4.94115e-15 1.05314e-05 -1.32412e-13 5.24983e-10 1.04449e-07 
0 0 0 0.00140734 3.15624e-08 9.08517e-05 0 776 9271 1.5089e-14 1.05151e-05 3.51436e-15 5.24684e-10 1.04389e-07 
0 0 0 0.00159912 -1.38057e-06 -0.00131528 0 776 3509 -3.23031e-08 1.0554e-05 -2.59824e-08 5.2567e-10 1.04586e-07 
0 0 0 -0.00248347 9.4688e-05 0.00258094 0 776 14186 -2.34041e-06 1.11377e-05 -1.14057e-06 5.65485e-10 1.12508e-07 
0 0 0 -0.00232177 9.71077e-06 0.00420216 0 776 10156 -6.0526e-11 1.05432e-05 -6.8314e-11 5.2771e-10 1.04991e-07 
0 0 0 0.00188986 4.10606e-10 -0.000704841 0 776 8382 3.48803e-16 1.05193e-05 -1.30112e-16 5.24815e-10 1.04416e-07 
0 0 0 0.00172416 1.17275e-07 -0.00154463 0 776 2799 6.43639e-14 1.05145e-05 -4.95487e-14 5.24681e-10 1.04389e-07 
0 0 0 -0.00128508 -9.40953e-05 0.00193766 0 776 7053 -2.59508e-07 9.88227e-06 -1.07311e-07 4.82833e-10 9.60624e-08 
0 0 0 0.000884296 -8.97582e-06 0.00182759 0 776 209 -4.93422e-11 1.05108e-05 -2.69545e-11 5.22589e-10 1.03973e-07 
0 0 0 0.00203041 8.70013e-09 -0.00101194 0 776 7800 5.03119e-15 1.05193e-05 -2.50743e-15 5.24819e-10 1.04416e-07 
0 0 0 0.00212593 4.87346e-09 -0.000178597 0 776 9721 2.80503e-15 1.05197e-05 -2.35739e-16 5.24831e-10 1.04419e-07 
0 0 0 -0.00429095 0.000431148 -0.00515207 0 776 163 -1.2829e-06 4.35896e-06 -5.36733e-07 3.99234e-10 7.9429e-08 
0 0 0 -0.0011664 5.22376e-07 0.00111452 0 776 13004 -1.77731e-13 1.05128e-05 1.78708e-13 5.24713e-10 1.04395e-07 
0 0 0 0.00243977 -4.07307e-09 0.00160419 0 776 9809 4.83228e-16 1.05146e-05 9.17546e-16 5.2466e-10 1.04385e-07 
0 0 0 0.000890632 -6.62593e-08 0.00232502 0 776 5373 -1.67893e-14 1.05212e-05 -4.36212e-14 5.24864e-10 1.04425e-07 
0 0 0 -0.000942198 0.000124371 -0.00224477 0 776 7750 1.28974e-08 1.16232e-05 -5.1533e-09 5.87387e-10 1.16866e-07 
0 0 0 -0.00386696 2.13995e-06 0.00313673 0 776 7121 -2.30045e-12 1.05251e-05 1.86605e-12 5.25473e-10 1.04546e-07 
0 0 0 0.000426092 -4.09922e-12 0.00288902 0 776 1306 5.33287e-20 1.05196e-05 3.02136e-19 5.24825e-10 1.04417e-07 
0 0 0 -3.51847e-05 4.76318e-12 0.0031385 0 776 7072 2.71914e-21 1.05196e-05 -2.99488e-19 5.24825e-10 1.04417e-07 
0 0 0 -0.00130789 1.36269e-09 0.00818048 0 776 3631 -4.93423e-16 1.05196e-05 3.08604e-15 5.24825e-10 1.04417e-07 
0 0 0 -0.00455866 -8.80866e-05 0.00917168 0 776 6920 3.20932e-06 9.15283e-06 9.15131e-07 4.58813e-10 9.12832e-08 
0 0 0 -0.00458204 -2.31222e-05 0.00933313 0 776 9156 7.23812e-13 1.15314e-05 -6.13569e-11 5.53029e-10 1.10029e-07 
0 0 0 -0.00170709 5.72999e-12 0.00892285 0 776 4357 -2.20662e-19 1.05196e-05 -6.12694e-19 5.24825e-10 1.04417e-07 
0 0 0 -0.000810378 -1.38779e-09 0.00752172 0 776 7846 3.10431e-16 1.05195e-05 -2.88157e-15 5.24824e-10 1.04417e-07 
0 0 0 -0.00146207 -8.33966e-06 0.00911394 0 776 9654 6.32889e-09 1.05366e-05 -2.95883e-08 5.23587e-10 1.04171e-07 
0 0 0 -0.0025574 -0.000329822 0.012976 0 776 1374 -8.86664e-09 1.45096e-05 -3.3409e-09 5.82685e-10 1.1593e-07 
0 0 0 0.00247627 8.2847e-06 0.0050732 0 776 6792 5.45006e-12 1.05646e-05 8.77985e-12 5.28113e-10 1.05072e-07 
0 0 0 -0.00299313 1.0835e-06 0.00574854 0 776 7583 -9.27051e-13 1.04936e-05 1.90983e-12 5.24197e-10 1.04292e-07 
0 0 0 -0.00309552 5.67575e-06 0.00723495 0 776 1352 -4.73911e-10 1.0646e-05 -2.18147e-10 5.30248e-10 1.05496e-07 
0 0 0 -0.0014574 -2.35759e-13 0.00566733 0 776 221 1.31779e-19 1.05196e-05 -5.2527e-19 5.24825e-10 1.04417e-07 
0 0 0 -0.00365616 0.000263531 0.0185453 0 776 1969 -1.15125e-06 6.6584e-06 -5.59332e-07 4.48389e-10 8.92091e-08 
0 0 0 0.00380844 -0.000257673 0.0162811 0 776 6387 2.99707e-07 1.4611e-05 -8.3497e-06 6.00549e-10 1.19484e-07 
0 0 0 0.0034722 -2.37415e-06 0.0209242 0 776 570 -2.61687e-12 1.04331e-05 -1.28488e-11 5.21432e-10 1.03742e-07 
0 0 0 -0.00160921 5.40766e-08 0.0196677 0 776 8325 -2.47011e-08 1.03136e-05 3.29603e-08 5.17962e-10 1.03052e-07 
0 0 0 0.0133417 -0.00358224 0.0175021 0 776 6055 1.00758e-05 1.3332e-05 -4.98768e-07 5.09737e-11 1.0141e-08 
0 0 0 0.00616317 2.92731e-11 0.0260832 0 776 8088 5.0669e-17 1.05196e-05 2.14407e-16 5.24825e-10 1.04417e-07 
0 0 0 0.00601549 -3.61582e-12 0.0260449 0 776 7454 5.99052e-19 1.05196e-05 2.59942e-18 5.24825e-10 1.04417e-07 
0 0 0 0.000156427 2.9907e-12 0.0362789 0 776 3905 1.88843e-20 1.05196e-05 4.79203e-18 5.24825e-10 1.04417e-07 
0 0 0 0.00604789 0.00524305 0.0254576 0 776 5213 -2.40928e-08 7.18253e-05 2.75414e-08 2.70652e-09 5.38626e-07 
0 0 0 0.00558849 -5.71059e-12 0.0218817 0 776 7120 3.01168e-19 1.05196e-05 1.20563e-18 5.24825e-10 1.04417e-07 
0 0 0 0.0168796 -0.00178174 0.0241335 0 776 382 -3.82233e-06 3.36234e-05 -1.63714e-05 8.22754e-10 1.63699e-07 
0 0 0 0.0163621 1.07599e-09 0.0367838 0 776 4483 4.72348e-15 1.05196e-05 1.0619e-14 5.24826e-10 1.04418e-07 
0 0 0 0.0146033 6.97913e-07 0.031926 0 776 3641 2.8884e-12 1.05059e-05 6.31464e-12 5.24522e-10 1.04357e-07 
0 0 0 0.0094205 0.00153603 0.00757415 0 776 758 -4.03859e-06 -4.93316e-06 1.93078e-06 3.62435e-11 7.21046e-09 
0 0 0 0.00215242 0.000167037 -0.00236823 0 776 112 -4.2917e-07 1.14344e-05 -7.33942e-08 5.9047e-10 1.17479e-07 
0 0 0 0.011659 -0.00124067 -0.00722114 0 776 7706 -2.14249e-05 4.52739e-05 -7.30781e-06 1.17826e-09 2.34442e-07 
0 0 0 -0.000711746 0.000210104 0.00237487 0 776 3393 1.49933e-06 1.28124e-05 -6.22826e-06 6.42537e-10 1.27839e-07 
0 0 0 -0.000602165 7.22788e-05 0.00322426 0 776 7811 6.29192e-07 9.88151e-06 3.40945e-06 5.1919e-10 1.03296e-07 
0 0 0 -0.000604426 -1.12208e-05 0.00281447 0 776 9095 -2.29662e-06 1.46708e-05 -1.04311e-06 6.52808e-10 1.29883e-07 
0 0 0 -0.00273308 1.02316e-08 0.00171047 0 776 39 -7.80554e-15 1.05195e-05 4.88498e-15 5.24826e-10 1.04418e-07 
0 0 0 0.000230333 -7.40231e-05 0.00141404 0 776 5889 2.48556e-07 9.46983e-06 -1.79114e-07 4.73002e-10 9.41062e-08 
0 0 0 0.00119735 -5.31549e-05 0.000282451 0 778 14170 -1.01561e-06 9.64433e-06 3.1376e-06 5.09238e-10 1.01316e-07 
0 0 0 -0.000361595 3.62169e-05 0.000369551 0 778 12757 1.40066e-06 8.53996e-06 -7.4022e-07 4.69959e-10 9.35007e-08 
0 0 0 0.00283464 -7.01209e-05 3.55312e-05 0 778 3129 -6.09057e-07 1.19117e-05 -2.39797e-06 5.36089e-10 1.06659e-07 
0 0 0 -0.00097546 -0.000659954 0.00353044 0 778 15555 6.31338e-18 1.02659e-05 1.35713e-06 5.18851e-10 1.03229e-07 
0 0 0 8.0573e-05 -1.16748e-05 0.000109564 0 778 7654 5.728e-08 8.98614e-06 6.13375e-07 4.7301e-10 9.41079e-08 
0 0 0 0.000425017 -2.35921e-05 0.000131224 0 778 8040 -1.10094e-07 1.14206e-05 2.94677e-09 5.48284e-10 1.09085e-07 
0 0 0 0.000370441 -0.000122738 0.000640369 0 778 17336 -1.09946e-07 1.01782e-05 1.89864e-06 5.18649e-10 1.03189e-07 
0 0 0 0.00398521 -1.17674e-05 -5.41446e-05 0 778 14580 8.73753e-07 9.19715e-06 2.84285e-06 4.87774e-10 9.70455e-08 
0 0 0 0.0324082 -0.000231786 0.00123995 0 778 15381 2.36361e-19 1.02659e-05 1.35713e-06 5.18851e-10 1.03229e-07 
0 0 0 0.00021055 -3.17811e-05 0.000207858 0 778 5338 -3.10118e-07 9.76274e-06 1.20914e-06 5.0277e-10 1.00029e-07 
0 0 0 -0.000292572 -0.000108607 0.000419316 0 778 15828 -1.0967e-07 1.07498e-05 1.08107e-06 5.26566e-10 1.04764e-07 
0 0 0 0.00281725 -0.000225393 0.0014225 0 778 14360 -3.50136e-08 9.94155e-06 1.40939e-06 5.17145e-10 1.02889e-07 
0 0 0 0.0125845 -0.000378702 0.0022983 0 778 8467 -2.12068e-07 6.34561e-06 3.13493e-07 3.84504e-10 7.64984e-08 
0 0 0 0.0087802 -0.000503249 0.00275291 0 778 17589 7.30422e-08 1.36286e-05 -1.82424e-06 6.08606e-10 1.21087e-07 
0 0 0 -0.000108543 -0.000141185 0.000357834 0 778 12332 -3.60611e-08 1.18847e-05 -2.68047e-07 5.45691e-10 1.08569e-07 
0 0 0 0.0171929 -0.00137008 0.00737258 0 778 16821 3.85348e-11 1.02205e-05 1.34874e-06 5.19034e-10 1.03265e-07 
0 0 0 0.0272854 -0.00287211 0.0153646 0 778 752 2.56618e-13 1.02664e-05 1.35723e-06 5.18874e-10 1.03233e-07 
0 0 0 0.0354786 -0.00243638 0.0130735 0 778 15785 7.51708e-11 1.00288e-05 1.31134e-06 5.12347e-10 1.01935e-07 
0 0 0 0.0202663 -0.00603734 0.0322969 0 778 255 -2.97876e-19 1.02659e-05 1.35713e-06 5.18851e-10 1.03229e-07 
0 0 0 0.0423757 -0.00641699 0.0343278 0 778 13645 -4.85986e-19 1.02659e-05 1.35713e-06 5.18851e-10 1.03229e-07 
0 0 0 -0.00312769 -3.53528e-05 0.000477641 0 778 4848 3.2036e-08 1.00248e-05 1.06802e-06 5.20661e-10 1.03589e-07 
0 0 0 -0.00512534 -1.74438e-05 9.35708e-05 0 778 16369 -6.64e-14 1.02663e-05 1.35721e-06 5.18874e-10 1.03233e-07 
0 0 0 -0.0101413 0.00161782 -0.00690328 0 778 1637 8.90202e-09 2.28102e-05 4.9774e-06 9.53624e-10 1.8974e-07 
0 0 0 0.0375193 -0.00161285 0.00862798 0 778 13527 -3.44671e-18 1.02659e-05 1.35713e-06 5.18851e-10 1.03229e-07 
0 0 0 0.0787814 -0.0100538 0.0537833 0 778 13193 -4.81422e-18 1.02659e-05 1.35713e-06 5.18851e-10 1.03229e-07 
0 0 0 -0.00523512 -0.000345761 0.0040778 0 778 17147 -6.99036e-10 9.65542e-06 1.18281e-06 5.87161e-10 1.16821e-07 
0 0 0 -0.00386504 -0.00100389 0.00538366 0 778 13175 -4.33212e-11 1.04574e-05 1.39477e-06 5.25889e-10 1.04629e-07 
0 0 0 -0.000748233 -0.00022906 0.00119151 0 778 16168 6.74766e-08 9.07069e-06 1.02099e-06 4.75237e-10 9.4551e-08 
0 0 0 -0.00100925 -0.000206565 0.00121232 0 778 5399 5.46216e-07 1.11226e-05 4.19636e-07 5.45256e-10 1.08483e-07 
0 0 0 0.0152347 -0.00249234 0.0133044 0 778 15517 -1.85296e-10 1.03362e-05 1.37075e-06 5.20113e-10 1.0348e-07 
0 0 0 3.65664e-05 2.36725e-05 9.74333e-05 0 778 15806 -4.9565e-07 8.26984e-06 1.77094e-06 4.62914e-10 9.20992e-08 
0 0 0 0.0150054 -0.00046164 0.00250101 0 778 10441 -2.08773e-07 1.0364e-05 1.76031e-06 5.25791e-10 1.0461e-07 
0 0 0 -0.000181589 3.47427e-05 -0.000130291 0 778 9574 -1.06375e-06 1.12721e-05 3.32407e-06 5.65266e-10 1.12464e-07 
0 0 0 0.0204711 -0.00111937 0.00598793 0 778 12749 -1.58194e-13 1.02658e-05 1.35712e-06 5.18843e-10 1.03227e-07 
0 0 0 -0.000388613 -0.000903616 0.00513418 0 778 7627 -1.80918e-07 9.17671e-06 1.14014e-06 4.93211e-10 9.81272e-08 
0 0 0 0.00095774 -0.000142529 0.000797291 0 778 13149 -3.26779e-09 9.91394e-06 1.24103e-06 5.07889e-10 1.01048e-07 
0 0 0 0.000960597 -0.000503233 0.00238124 0 778 15618 -1.38031e-06 1.0817e-05 3.44521e-07 5.18353e-10 1.0313e-07 
0 0 0 -0.199278 -0.237733 0.290351 0 778 2010 -0.000168745 0.00447531 -0.00749346 8.3989e-09 1.67266e-06 
0 0 0 0.00128155 -0.000307102 0.00164406 0 778 658 -2.12736e-13 1.02645e-05 1.35687e-06 5.18851e-10 1.03229e-07 
0 0 0 0.00627538 -0.000749945 0.00401534 0 778 874 1.18866e-12 1.02261e-05 1.34941e-06 5.17635e-10 1.02987e-07 
0 0 0 0.000265604 -0.000961446 0.00514595 0 778 14576 2.65523e-13 1.02609e-05 1.35618e-06 5.18787e-10 1.03216e-07 
0 0 0 -0.0253105 0.00177702 -0.00950654 0 778 9557 1.76593e-06 9.29378e-06 6.6944e-06 5.19679e-10 1.03394e-07 
0 0 0 0.00858073 0.000586918 -0.00375169 0 778 16870 -1.95654e-07 1.05279e-05 6.90083e-07 4.99006e-10 9.92803e-08 
0 0 0 -0.0562997 0.0294085 -0.157321 0 778 1903 -5.87737e-19 1.02659e-05 1.35713e-06 5.18851e-10 1.03229e-07 
0 0 0 -0.0486884 0.0100863 -0.0539568 0 778 3551 4.01835e-18 1.02659e-05 1.35713e-06 5.18851e-10 1.03229e-07 
0 0 0 -0.000608816 -3.91495e-05 0.00189485 0 778 9751 3.97845e-06 1.59501e-06 2.11801e-06 2.58972e-10 5.15225e-08 
0 0 0 -0.160863 -0.00680159 0.0363852 0 778 17465 -3.28669e-17 1.02659e-05 1.35719e-06 5.18851e-10 1.03229e-07 
0 0 0 0.00209501 0.00165604 -0.00885397 0 778 6537 -2.17008e-07 1.02443e-05 1.5405e-06 5.19469e-10 1.03352e-07 
0 0 0 -0.00989846 0.00207193 -0.0106337 0 778 11428 1.61749e-08 1.3151e-05 1.91301e-06 6.30196e-10 1.25383e-07 
0 0 0 -0.0249977 0.00633648 -0.033969 0 778 10802 9.08976e-11 1.03401e-05 1.37097e-06 5.18509e-10 1.03161e-07 
0 0 0 0.0121881 0.00173656 -0.00928977 0 778 8496 -6.53373e-19 1.02659e-05 1.35713e-06 5.18851e-10 1.03229e-07 
0 0 0 0.00815154 0.00126742 -0.00693627 0 778 2102 -9.92203e-07 1.20636e-05 2.24291e-06 5.75492e-10 1.14499e-07 
0 0 0 -0.00970632 0.000500672 -0.00267835 0 778 8211 1.12202e-18 1.02659e-05 1.35713e-06 5.18851e-10 1.03229e-07 
0 0 0 0.0170044 0.0013763 -0.00736256 0 778 5232 5.27565e-19 1.02659e-05 1.35713e-06 5.18851e-10 1.03229e-07 
0 0 0 0.0235017 0.00380422 -0.0203508 0 778 4489 -5.87446e-19 1.02659e-05 1.35713e-06 5.18851e-10 1.03229e-07 
0 0 0 0.0197548 0.00254984 -0.0136405 0 778 7503 3.26854e-18 1.02659e-05 1.35713e-06 5.18851e-10 1.03229e-07 
0 0 0 0.0234088 0.00419709 -0.0241555 0 778 4777 1.78736e-09 1.26185e-05 1.81558e-06 5.30646e-10 1.05576e-07 
0 0 0 0.036069 0.0120607 -0.064519 0 778 9184 -3.65043e-20 1.02659e-05 1.35713e-06 5.18851e-10 1.03229e-07 
0 0 0 0.0236777 0.00468335 -0.0250537 0 778 10781 1.24813e-18 1.02659e-05 1.35713e-06 5.18851e-10 1.03229e-07 
0 0 0 0.0229599 0.00438386 -0.0234515 0 778 4160 2.55368e-19 1.02659e-05 1.35713e-06 5.18851e-10 1.03229e-07 
0 0 0 0.0536748 0.0124368 -0.0665307 0 778 1313 -2.76236e-18 1.02659e-05 1.35713e-06 5.18851e-10 1.03229e-07 
0 0 0 0.0326467 0.00910827 -0.0487249 0 778 11962 -6.14404e-19 1.02659e-05 1.35713e-06 5.18851e-10 1.03229e-07 
0 0 0 0.0448936 0.0085833 -0.0459165 0 778 12382 1.08308e-18 1.02659e-05 1.35713e-06 5.18851e-10 1.03229e-07 
0 0 0 0.0358577 0.0111078 -0.0594212 0 778 924 3.87456e-18 1.02659e-05 1.35713e-06 5.18851e-10 1.03229e-07 
0 0 0 0.0275884 0.00132726 -0.00710023 0 778 15188 8.0888e-18 1.02659e-05 1.35713e-06 5.18851e-10 1.03229e-07 
0 0 0 0.017803 0.00382166 -0.00852933 0 778 15673 1.57714e-08 -5.2802e-06 -2.16873e-06 4.38424e-10 8.72265e-08 
0 0 0 0.0184636 -0.00211716 0.0113017 0 778 8832 -2.03549e-08 1.02543e-05 1.76503e-06 5.20014e-10 1.0346e-07 
0 0 0 0.000544638 -0.00214609 0.00554086 0 780 14539 1.55811e-08 9.53598e-06 2.56536e-06 5.01342e-10 9.9745e-08 
0 0 0 -0.0112106 -0.00140135 0.0036173 0 780 13923 -1.39557e-15 9.53903e-06 2.53097e-06 5.00924e-10 9.96619e-08 
0 0 0 0.124575 -0.00688813 0.0177803 0 780 5801 -1.04701e-17 9.53905e-06 2.53098e-06 5.00925e-10 9.96621e-08 
0 0 0 -0.203224 0.00195363 -0.00315522 0 782 17453 -3.02054e-17 8.43728e-06 3.363e-06 4.71018e-10 9.37115e-08 
0 0 0 0.000818397 -0.354291 0.100804 0 790 702 4.7891e-11 2.1723e-06 2.37502e-06 2.21238e-10 4.40152e-08 
0 0 0 6.06524 2.9941 17.5206 0 938 7537 0.0110844 0.0883934 -0.0241965 2.03122e-07 4.14855e-05 
0 0 0 2.81959e-05 -6.45727e-06 -2.42521e-05 0 775 210 -6.34244e-09 9.8739e-06 -1.21897e-06 5.04608e-10 1.00395e-07 
0 0 0 -1.48703e-05 -2.16495e-06 -1.22581e-05 0 775 2116 4.28864e-07 9.42669e-06 -5.73156e-07 4.85939e-10 9.66804e-08 
0 0 0 -0.000110057 -2.43294e-05 -0.000167796 0 775 12 1.34801e-06 7.34909e-06 1.84831e-06 3.97214e-10 7.90271e-08 
0 0 0 -0.00010017 -9.97383e-05 -0.000332354 0 775 4248 -2.45437e-06 1.066e-05 -7.23764e-07 5.19889e-10 1.03435e-07 
0 0 0 -0.000227912 -0.000135618 -0.000481627 0 775 3998 5.7077e-07 1.26176e-05 -1.57679e-06 5.85409e-10 1.16472e-07 
0 0 0 -0.000629934 -0.00014111 -0.000669576 0 775 9210 6.60157e-06 1.53759e-05 7.26067e-07 6.611e-10 1.31533e-07 
0 0 0 -8.21585e-05 -0.000440113 -0.00224882 0 775 5900 7.24144e-06 3.75187e-06 6.74578e-06 1.93238e-10 3.84445e-08 
0 0 0 -3.65354e-05 -0.000251284 -0.00089118 0 775 1890 2.49198e-06 1.09197e-05 2.51109e-06 4.98481e-10 9.91757e-08 
0 0 0 0.00015156 -0.000194224 -0.0012833 0 775 6574 -1.22717e-05 8.03721e-06 5.53502e-06 4.05995e-10 8.07741e-08 
0 0 0 0.000513499 0.000120492 -0.000753866 0 775 1749 -1.52161e-06 1.21191e-05 2.03095e-06 6.1296e-10 1.21954e-07 
0 0 0 0.000755387 -0.000296422 -0.00146867 0 775 7843 -2.80359e-06 1.4546e-05 -3.67428e-07 6.41578e-10 1.27648e-07 
0 0 0 0.00140813 -0.000163988 -0.00149884 0 775 11044 4.48965e-07 6.57862e-06 -1.45674e-07 4.07269e-10 8.10276e-08 
0 0 0 -0.00016222 -0.000124177 -0.000395025 0 775 8128 -5.82578e-08 1.09321e-05 -1.37514e-06 5.30009e-10 1.05449e-07 
0 0 0 0.000633051 -0.000289568 -0.00167734 0 775 1039 2.2845e-09 1.03187e-05 -1.37362e-06 5.25798e-10 1.04611e-07 
0 0 0 0.000236679 -0.000327125 -0.00183651 0 775 10606 -1.57174e-07 1.00162e-05 -1.20366e-06 5.13124e-10 1.02089e-07 
0 0 0 -0.00291646 4.66279e-05 -0.000635414 0 775 5313 1.13789e-05 2.22727e-05 -5.31832e-06 9.11655e-10 1.81389e-07 
0 0 0 -0.000345589 -0.000706461 -0.0037782 0 775 8439 1.97703e-13 1.02658e-05 -1.35711e-06 5.18807e-10 1.0322e-07 
0 0 0 -0.000700132 -0.000364977 -0.00195305 0 775 6782 -2.14357e-14 1.02656e-05 -1.35709e-06 5.18866e-10 1.03232e-07 
0 0 0 0.00140561 -0.00113 -0.00430752 0 775 11423 1.69486e-06 2.62136e-05 7.39511e-06 8.59755e-10 1.71061e-07 
0 0 0 -0.00843228 0.0016716 0.00894226 0 775 9290 -2.07162e-18 1.02659e-05 -1.35713e-06 5.18851e-10 1.03229e-07 
0 0 0 -0.00795237 0.000220379 0.00485169 0 775 9120 8.58541e-06 1.80464e-05 -7.68833e-06 6.50547e-10 1.29433e-07 
0 0 0 -0.00252662 0.00076408 0.0022107 0 775 1937 -6.2772e-07 8.68187e-06 -1.91037e-06 5.45625e-10 1.08556e-07 
0 0 0 -0.0169034 0.00240295 0.0128546 0 775 398 -1.03754e-16 1.02659e-05 -1.35713e-06 5.18851e-10 1.03229e-07 
0 0 0 -0.00483794 0.00182592 0.00945017 0 775 2843 2.0862e-07 7.95303e-06 -6.16718e-07 4.47988e-10 8.91293e-08 
0 0 0 -0.0118757 0.00105725 0.00565576 0 775 8283 4.2542e-16 1.02659e-05 -1.35713e-06 5.18851e-10 1.03229e-07 
0 0 0 -0.0286555 0.00802245 0.040923 0 775 9988 -6.16197e-07 3.99474e-06 2.74339e-06 3.43344e-10 6.8309e-08 
0 0 0 -0.0173339 0.00139148 0.00744101 0 775 2951 -2.44166e-12 1.02638e-05 -1.35675e-06 5.18889e-10 1.03236e-07 
0 0 0 -0.0223312 0.0035796 0.0191492 0 775 3193 4.75443e-19 1.02659e-05 -1.35713e-06 5.18851e-10 1.03229e-07 
0 0 0 -0.0057894 0.00230679 0.0123812 0 775 10366 2.55833e-10 1.013e-05 -1.33006e-06 5.12572e-10 1.01979e-07 
0 0 0 -0.0230746 0.00321328 0.0171895 0 775 10479 -2.2307e-16 1.02659e-05 -1.35713e-06 5.18851e-10 1.03229e-07 
0 0 0 -0.0179186 0.00542382 0.0290148 0 775 316 -1.9417e-18 1.02659e-05 -1.35713e-06 5.18851e-10 1.03229e-07 
0 0 0 -0.0139564 0.00498098 0.0266459 0 775 9563 -1.66435e-18 1.02659e-05 -1.35713e-06 5.18851e-10 1.03229e-07 
0 0 0 -0.00385742 0.0041824 0.0223744 0 775 1223 -2.58883e-07 1.05099e-05 -1.63481e-06 5.28514e-10 1.05151e-07 
0 0 0 0.00937096 0.00787735 0.04214 0 775 5191 -2.47621e-18 1.02659e-05 -1.35713e-06 5.18851e-10 1.03229e-07 
0 0 0 0.00403538 0.00568738 0.0304248 0 775 12461 -5.2342e-16 1.02659e-05 -1.35713e-06 5.1885e-10 1.03229e-07 
0 0 0 0.0200367 0.00438332 0.0197767 0 775 6601 -2.45581e-06 3.67295e-05 -2.76671e-05 1.41988e-09 2.82525e-07 
0 0 0 0.00161517 0.00569096 0.0232195 0 775 12475 -2.441e-06 -5.14864e-06 -4.49375e-06 2.07472e-10 4.12764e-08 
0 0 0 0.00883328 0.00230621 0.0188933 0 775 9957 -5.55607e-06 2.29377e-05 -5.26362e-05 8.90975e-10 1.77274e-07 
0 0 0 0.0191229 0.00338114 0.0138916 0 775 5753 -5.00366e-06 2.68812e-05 -1.94049e-05 1.1951e-09 2.37794e-07 
0 0 0 0.0218243 0.00468685 0.0257571 0 775 4196 1.79684e-07 7.83994e-06 -4.8473e-07 4.01168e-10 7.98138e-08 
0 0 0 0.0199413 0.00439767 0.0224819 0 775 5618 2.94028e-06 1.63025e-05 -5.51774e-06 7.62108e-10 1.51631e-07 
0 0 0 0.0228084 0.00539116 0.0289029 0 775 10666 -5.63459e-11 9.95477e-06 -1.29588e-06 5.05675e-10 1.00607e-07 
0 0 0 0.0193201 0.00422762 0.0223187 0 775 12396 7.69773e-09 1.20959e-05 -1.71956e-06 5.91031e-10 1.17591e-07 
0 0 0 0.0304099 0.0051287 0.0274361 0 775 11745 -1.17722e-15 1.02659e-05 -1.35713e-06 5.18851e-10 1.03229e-07 
0 0 0 0.00805991 0.00141264 0.00771254 0 775 6486 -5.36511e-09 1.08119e-05 -1.46057e-06 5.31125e-10 1.05671e-07 
0 0 0 0.00159993 0.000289365 -0.000589886 0 777 4413 -1.15375e-06 2.58133e-06 -3.19679e-06 2.84439e-10 5.65893e-08 
0 0 0 -0.00033927 3.71587e-05 0.000287036 0 777 3837 -7.30246e-07 9.42979e-06 -8.71123e-07 4.96114e-10 9.87049e-08 
0 0 0 -0.00038974 1.66357e-05 0.000771256 0 777 4306 -3.72176e-07 1.09212e-05 -2.6642e-07 5.41676e-10 1.0777e-07 
0 0 0 0.000192433 2.64373e-06 0.000208536 0 777 2611 -6.09554e-08 1.05742e-05 -5.93108e-08 5.27211e-10 1.04892e-07 