ITEM: TIMESTEP
9800000
ITEM: NUMBER OF ENTRIES
303
ITEM: BOX BOUNDS ff ff ff
-0.01 0.45
-0.15 0.15
-0.08 0.1
ITEM: ENTRIES c_pwc[1] c_pwc[2] c_pwc[3] 
0 850 41 
0 885 41 
0 855 625 
0 866 430 
0 884 1093 
0 854 598 
0 853 638 
0 894 548 
0 894 29 
0 894 352 
0 894 291 
0 894 1074 
0 894 636 
0 894 845 
0 894 337 
0 852 1142 
0 852 1023 
0 852 324 
0 855 1036 
0 855 1077 
0 855 192 
0 854 892 
0 854 1115 
1 1861 146 
1 1874 146 
1 1873 146 
1 1883 146 
1 1889 146 
1 529 146 
1 530 146 
1 1828 146 
1 1831 146 
1 1842 146 
1 1830 146 
1 1827 146 
1 1871 146 
1 1869 146 
1 1868 146 
1 1892 146 
1 1893 146 
1 1885 146 
1 527 146 
1 526 146 
1 541 146 
0 946 796 
1 2705 752 
1 2704 752 
1 2722 752 
1 2706 752 
1 2698 752 
1 2717 752 
0 885 270 
0 885 969 
0 885 48 
0 885 127 
0 885 52 
0 885 908 
0 885 276 
0 885 6 
0 885 79 
0 885 351 
0 885 45 
0 885 39 
0 885 393 
0 850 270 
0 850 969 
0 850 48 
0 850 127 
0 850 52 
0 850 908 
0 850 276 
0 850 6 
0 850 79 
0 850 351 
0 850 45 
0 851 39 
0 851 393 
0 962 214 
0 895 196 
0 895 955 
0 853 1039 
0 853 823 
0 884 590 
0 894 929 
0 894 1059 
0 894 496 
0 894 482 
0 894 794 
0 894 357 
0 894 962 
0 852 1088 
0 895 8 
0 895 702 
0 895 60 
0 895 766 
0 895 919 
0 895 305 
0 853 514 
0 945 1095 
0 921 221 
0 924 1226 
0 947 136 
0 395 136 
0 961 1029 
0 961 40 
0 753 1029 
0 753 40 
0 886 15 
0 885 15 
0 850 15 
0 888 139 
0 853 466 
0 891 1015 
0 891 420 
0 892 502 
0 892 544 
0 888 607 
0 888 666 
0 378 64 
0 387 208 
0 369 443 
0 367 435 
0 367 31 
0 435 757 
0 435 1069 
0 365 783 
0 409 1145 
0 407 316 
0 403 431 
0 411 313 
0 385 600 
0 383 358 
0 379 1194 
0 379 791 
0 375 170 
0 392 687 
0 388 226 
0 393 138 
0 370 371 
0 370 686 
0 402 1137 
0 400 470 
0 399 191 
0 439 656 
0 432 615 
0 408 1164 
0 405 1207 
0 430 1013 
0 422 298 
0 429 1013 
0 423 115 
0 419 650 
0 537 22 
0 384 1022 
0 525 700 
0 523 664 
0 521 328 
0 372 795 
0 547 209 
0 402 1177 
0 398 143 
0 396 838 
0 434 616 
0 432 609 
0 583 1030 
0 406 464 
0 581 1190 
0 577 401 
0 571 1109 
0 430 327 
0 563 1007 
0 537 88 
0 535 725 
0 533 1079 
0 533 158 
0 531 201 
0 534 630 
0 545 812 
0 519 587 
0 553 17 
0 553 722 
0 551 925 
0 549 870 
0 549 236 
0 549 171 
0 589 101 
0 589 622 
0 561 312 
0 559 132 
0 559 944 
0 557 398 
0 557 950 
0 555 932 
0 555 89 
0 581 694 
0 575 556 
0 575 388 
0 537 780 
0 533 977 
0 542 57 
0 543 444 
0 543 822 
0 539 280 
0 539 1010 
0 520 754 
0 548 424 
0 591 816 
0 588 202 
0 558 376 
0 556 447 
0 561 880 
0 582 220 
0 580 259 
0 572 884 
0 570 614 
0 568 412 
0 568 346 
0 569 284 
0 1063 190 
0 1063 50 
0 1059 374 
0 1057 578 
0 538 335 
0 1071 97 
0 544 569 
0 542 227 
0 540 66 
0 1051 637 
0 1051 5 
0 1051 500 
0 1047 565 
0 1045 307 
0 1077 367 
0 1077 837 
0 1076 770 
0 1075 611 
0 552 177 
0 550 737 
0 1115 341 
0 1087 90 
0 1081 921 
0 560 81 
0 556 864 
0 1105 485 
0 1105 168 
0 1097 853 
0 1061 774 
0 1058 248 
0 1055 67 
0 1066 153 
0 1065 198 
0 1047 528 
0 1045 200 
0 1079 530 
0 1075 599 
0 1074 683 
0 1115 418 
0 1114 238 
0 1113 649 
0 1111 848 
0 1111 197 
1 2590 418 
0 1088 119 
0 1088 215 
0 1087 736 
0 1081 82 
0 1081 445 
0 1089 119 
0 1105 212 
0 1102 32 
0 1099 935 
0 1096 78 
0 1060 596 
0 1295 408 
0 1291 94 
0 1068 785 
0 1066 241 
0 1051 100 
0 1042 80 
0 1341 27 
0 1339 23 
0 1114 939 
0 1114 178 
0 1114 646 
0 1313 10 
0 1088 1102 
0 1108 163 
0 1106 363 
0 1104 429 
0 1104 91 
0 1092 428 
0 1281 484 
0 1297 315 
0 1270 441 
0 1301 847 
0 1337 292 
0 1311 166 
0 1307 476 
0 1307 37 
0 1333 109 
0 1331 120 
0 97 174 
0 1320 19 
