ITEM: TIMESTEP
9200000
ITEM: NUMBER OF ENTRIES
301
ITEM: BOX BOUNDS ff ff ff
-0.01 0.45
-0.15 0.15
-0.08 0.1
ITEM: ENTRIES c_pwc[1] c_pwc[2] c_pwc[3] 
0 850 41 
0 885 41 
0 855 631 
0 855 460 
0 855 427 
0 894 301 
0 894 860 
0 894 207 
0 894 814 
0 854 704 
0 852 634 
0 894 953 
0 894 1066 
0 894 29 
0 894 1012 
0 894 297 
0 894 552 
0 894 882 
0 855 522 
0 855 510 
0 855 639 
0 855 438 
0 854 669 
1 2686 752 
1 2725 752 
1 2703 752 
1 2724 752 
1 2723 752 
1 2698 752 
1 2717 752 
1 2685 752 
0 957 949 
0 885 270 
0 885 969 
0 885 48 
0 885 127 
0 885 52 
0 885 908 
0 885 276 
0 885 6 
0 885 79 
0 885 351 
0 885 45 
0 885 39 
0 885 393 
0 850 270 
0 850 969 
0 850 48 
0 850 127 
0 850 52 
0 850 908 
0 850 276 
0 850 6 
0 850 79 
0 850 351 
0 850 45 
0 851 39 
0 851 393 
1 529 146 
1 1861 146 
1 530 146 
1 1874 146 
1 1873 146 
1 1883 146 
1 1889 146 
1 1828 146 
1 1842 146 
1 1827 146 
1 1830 146 
1 1831 146 
1 526 146 
1 527 146 
1 541 146 
1 1871 146 
1 1869 146 
1 1868 146 
1 1892 146 
1 1893 146 
1 1885 146 
0 895 717 
0 894 181 
0 894 635 
0 894 1070 
0 895 159 
0 895 1074 
0 895 763 
0 895 1095 
0 895 688 
0 929 835 
0 927 1151 
0 961 1029 
0 961 40 
0 753 1029 
0 753 40 
0 886 15 
0 885 15 
0 850 15 
0 963 1143 
0 853 655 
0 891 879 
0 891 715 
0 887 336 
0 887 383 
0 892 273 
0 895 675 
0 895 980 
0 888 185 
0 888 749 
0 888 829 
0 853 829 
0 379 1137 
0 377 138 
0 399 1079 
0 437 1038 
0 435 1054 
0 435 885 
0 409 208 
0 407 320 
0 407 700 
0 405 791 
0 403 504 
0 429 884 
0 427 1085 
0 415 431 
0 386 479 
0 375 470 
0 394 925 
0 367 982 
0 400 435 
0 399 1106 
0 439 994 
0 436 413 
0 437 217 
0 433 615 
0 404 209 
0 409 325 
0 428 1030 
0 418 1123 
0 418 609 
0 414 1083 
0 417 498 
0 411 228 
0 419 358 
0 537 943 
0 533 302 
0 382 389 
0 388 944 
0 368 226 
0 400 64 
0 398 612 
0 432 812 
0 557 1097 
0 408 1087 
0 404 232 
0 424 616 
0 422 443 
0 569 950 
0 563 556 
0 418 3 
0 533 1072 
0 531 694 
0 529 870 
0 532 59 
0 530 405 
0 543 89 
0 541 656 
0 539 190 
0 546 376 
0 523 227 
0 520 101 
0 516 875 
0 553 838 
0 551 365 
0 549 1007 
0 589 571 
0 517 782 
0 591 247 
0 590 569 
0 584 804 
1 1346 569 
1 1348 569 
0 583 532 
0 581 542 
0 567 935 
0 563 600 
0 536 743 
0 528 219 
0 533 106 
0 542 485 
0 540 847 
0 540 259 
0 545 327 
0 522 585 
0 520 770 
0 516 725 
0 525 746 
0 521 936 
0 518 148 
0 554 307 
0 554 31 
0 549 837 
0 590 605 
0 584 528 
0 585 587 
0 562 46 
0 562 1010 
0 557 851 
0 555 816 
0 581 444 
0 577 17 
0 1061 71 
0 1055 335 
0 1053 484 
0 1053 205 
0 536 28 
0 532 565 
0 1071 608 
0 1071 429 
0 1071 341 
0 1067 280 
0 1065 178 
0 1065 771 
0 1045 578 
0 522 143 
0 516 736 
0 1073 643 
0 552 853 
1 2571 853 
0 1113 409 
0 1111 913 
0 1084 537 
0 1081 87 
0 556 840 
0 1109 374 
0 1105 630 
0 1105 50 
0 1101 312 
0 1101 75 
0 1101 251 
0 1101 858 
0 1095 129 
0 1095 132 
0 568 372 
0 566 549 
0 1068 177 
0 1065 120 
0 1050 428 
0 1047 939 
0 1047 487 
0 1079 80 
0 1079 441 
0 1115 642 
0 1114 277 
0 1113 124 
0 1111 793 
0 1111 238 
0 1083 147 
0 1081 1048 
0 1106 445 
0 1101 153 
0 1100 13 
0 1099 349 
0 1098 848 
0 1089 27 
0 1064 672 
0 1060 682 
0 1056 596 
0 1055 201 
0 1046 421 
0 1045 864 
0 1080 292 
0 1074 119 
0 1117 461 
0 1117 506 
0 1112 599 
0 1086 315 
0 1086 97 
0 1086 109 
0 1333 500 
0 1325 265 
0 1105 162 
0 1096 518 
0 1094 86 
0 1092 99 
0 1097 81 
0 1289 152 
0 1279 166 
0 1274 275 
0 1270 23 
0 1299 94 
0 1341 363 
0 1269 67 
0 1335 160 
1 1410 32 
1 1411 363 
0 1313 11 
0 1331 281 
0 1325 197 
0 1316 304 
0 1276 774 
0 119 93 
