ITEM: TIMESTEP
13050000
ITEM: NUMBER OF ATOMS
18225
ITEM: BOX BOUNDS ff ff ff
-0.01 0.45
-0.15 0.15
-0.08 0.1
ITEM: ATOMS id type x y z ix iy iz vx vy vz fx fy fz c_cc_1 c_cc_2 c_cc_3 c_cc_4 c_cc_5 c_cc_6 c_cc_7 c_cc_8 c_cc_9 c_cc_10 c_cc_11 c_cc_12 c_cc_13 c_cc_14 c_cc_15 c_cc_16 f_fppacc radius c_cc_17 
8073 14 0.00544497 -0.0118027 -0.0565854 0 0 0 0.303543 -9.40279 2.31047 0 -1.05196e-05 0 0 0 0 0 0 0 0 0 0 0 0 0 0 0 0 0 110 0.0008 0 
2638 4 0.0152048 -0.0203787 -0.0554585 0 0 0 0.314224 -10.3088 3.25985 0 -1.05196e-05 0 0 0 0 0 0 0 0 0 0 0 0 0 0 0 0 0 151 0.0008 0 
9717 7 0.0276944 -0.0444465 -0.038571 0 0 0 -9.49866 -32.949 40.2801 0 -1.05196e-05 0 0 0 0 0 0 0 0 0 0 0 0 0 0 0 0 0 132 0.0008 0 
7660 5 0.0361075 -0.0527479 -0.0136284 0 0 0 -0.0182534 -27.2073 105.523 2.65796e-08 0.22637 0.0582442 0 0 0 0 0 0 0 0 0 0 0 0 0 0 0 0 113 0.0008 0 
4939 8 0.0175775 -0.00539914 -0.0558558 0 0 0 0.416041 -6.40224 -7.75803 0 -1.05196e-05 0 0 0 0 0 0 0 0 0 0 0 0 0 0 0 0 0 89 0.0008 0 
16675 2 0.0249801 -0.0345043 -0.0503023 0 0 0 0.266574 0.00763078 -0.00576249 -2.05734e-17 -4.78501e-06 3.61347e-06 0 0 0 0 0 0 0 0 0 0 0 0 0 0 0 0 11 0.0008 0 
6309 5 0.0275818 -0.0314882 -0.0489261 0 0 0 1.0735 -3.24891 2.0329 0 -1.05196e-05 0 0 0 0 0 0 0 0 0 0 0 0 0 0 0 0 0 156 0.0008 0 
7348 12 0.0185386 -0.0284168 -0.0503832 0 0 0 0.77166 -4.56306 -0.809899 0 -1.05196e-05 0 0 0 0 0 0 0 0 0 0 0 0 0 0 0 0 0 107 0.0008 0 
19676 12 0.0334261 -0.0520701 -0.0110287 0 0 0 -0.106763 -21.3406 104.361 0.002116 0.758044 0.148002 0 0 0 0 0 0 0 0 0 0 0 1 0 0 0 0 12 0.0012 0 
12728 2 0.00563563 -0.0230456 -0.0473382 0 0 0 0.322342 -13.3497 7.07005 0 -1.05196e-05 0 0 0 0 0 0 0 0 0 0 0 0 0 0 0 0 0 70 0.0008 0 
4379 9 0.00814264 -0.0296509 -0.0470726 0 0 0 1.84309 -4.43735 3.04936 0 -1.05196e-05 0 0 0 0 0 0 0 0 0 0 0 0 0 0 0 0 0 151 0.0008 0 
20300 2 0.0343815 -0.0518204 -0.0114661 0 0 0 0.0472571 -23.5566 103.496 -0.00211583 0.747038 0.176305 0 0 0 0 0 0 0 0 0 0 0 1 0 0 0 0 8 0.0012 0 
19804 9 0.029362 -0.0517836 -0.00676151 0 0 0 -0.0298492 -13.6301 103.578 3.69803e-07 0.749802 0.099433 0 0 0 0 0 0 0 0 0 0 0 0 0 0 0 0 0 0.0012 0 
8832 3 0.0408404 -0.040592 -0.0457051 0 0 0 -0.286464 0.0717772 -0.0542061 1.63892e-10 -4.75935e-06 3.65069e-06 0 0 0 0 0 0 0 0 0 0 0 0 0 0 0 0 75 0.0008 0 
8135 2 0.0206252 -0.0343238 -0.0475074 0 0 0 -0.670911 -4.06842 7.79105 0 -1.05196e-05 0 0 0 0 0 0 0 0 0 0 0 0 0 0 0 0 0 117 0.0008 0 
12305 8 0.0182945 -0.014327 -0.0458412 0 0 0 0.979768 -2.74555 -0.500145 0 -1.05196e-05 0 0 0 0 0 0 0 0 0 0 0 0 0 0 0 0 0 89 0.0008 0 
8263 2 0.0028157 -0.0409532 -0.0407022 0 0 0 0.74234 -6.70843 6.93083 0 -1.05196e-05 0 0 0 0 0 0 0 0 0 0 0 0 0 0 0 0 0 126 0.0008 0 
10731 1 0.00580528 -0.0438112 -0.0386439 0 0 0 -3.10604 -4.17542 10.5068 0 -1.05196e-05 0 0 0 0 0 0 0 0 0 0 0 0 0 0 0 0 0 96 0.0008 0 
16883 3 0.0209077 -0.0515906 0.00196605 0 0 0 -0.0670385 4.08229 103.139 0.000174792 0.22157 -0.00918457 0 0 4 0 0 0 0 0 0 0 0 0 0 0 0 0 296 0.0008 0 
3382 4 0.0200841 -0.0533602 0.00229993 0 0 0 0.0139025 4.60737 106.719 0.000177391 0.229206 -0.00994224 0 0 0 2 0 0 0 0 0 0 0 0 0 0 0 0 870 0.0008 0 
11253 8 0.0201706 -0.0519662 0.00250773 0 0 0 0.0293722 5.02695 103.949 0.000422764 0.22341 -0.0107738 0 0 1 1 0 0 0 2 0 0 0 0 0 0 0 0 641 0.0008 0 
675 3 0.0207548 -0.0528645 0.00195583 0 0 0 0.0180028 3.93444 105.726 0.000211685 0.226707 -0.00846066 0 0 1 1 0 0 0 1 0 0 0 0 0 0 0 0 838 0.0008 0 
3488 2 0.0213714 -0.0521696 0.00135684 0 0 0 0.00527833 2.7145 104.328 -0.000617048 0.222934 -0.00550141 0 2 2 0 0 0 0 0 0 0 0 0 0 0 0 0 649 0.0008 0 
9248 8 0.022019 -0.0512058 0.000781275 0 0 0 -0.0663072 1.70521 102.356 -0.00304967 0.219024 -0.00215637 0 1 0 0 0 0 0 5 0 0 0 0 0 0 0 0 552 0.0008 0 
11468 7 0.0232803 -0.0505927 -0.000274498 0 0 0 -0.892076 -0.19962 100.522 0.194577 0.187881 0.187221 0 0 0 0 0 0 3 0 0 0 0 0 0 0 0 0 134 0.0008 0 
7916 7 0.0126014 -0.0163328 -0.0462892 0 0 0 0.334249 -9.43484 -5.50959 0 -1.05196e-05 0 0 0 0 0 0 0 0 0 0 0 0 0 0 0 0 0 99 0.0008 0 
17229 1 0.00791513 -0.0328357 -0.0357035 0 0 0 4.57814 -2.17214 10.8337 0 -1.05196e-05 0 0 0 0 0 0 0 0 0 0 0 0 0 0 0 0 0 66 0.0008 0 
5050 3 0.0203312 -0.0508954 0.00268206 0 0 0 0.0358502 5.35463 101.754 0.000408637 0.218632 -0.01177 0 0 1 0 0 0 0 1 0 0 0 0 0 0 0 0 809 0.0008 0 
9966 6 0.0216039 -0.0502017 0.00189231 0 0 0 0.0178183 3.53467 100.369 -0.00105495 0.215767 -0.00447697 0 0 1 0 0 4 0 1 0 0 0 0 0 0 0 0 683 0.0008 0 
16691 6 0.0216911 -0.0513475 0.00160158 0 0 0 0.125256 2.93579 102.559 -0.000439914 0.221406 -0.00159043 0 1 1 0 0 2 0 1 0 0 0 0 0 0 0 0 361 0.0008 0 
5538 5 0.0216396 -0.0499769 0.00116873 0 0 0 0.0189921 2.44679 100.034 -0.00625779 0.214682 -0.00111465 0 0 0 0 6 2 0 1 0 0 0 0 0 0 0 0 737 0.0008 0 
8427 2 0.0225875 -0.0505024 0.000938174 0 0 0 -0.220963 1.70902 100.669 0.00199168 0.205259 0.0080556 0 2 0 0 1 2 1 1 0 0 0 0 0 0 0 0 428 0.0008 0 
2095 7 0.022637 -0.0498631 0.000305245 0 0 0 -0.355844 0.72555 99.5012 0.00997102 0.192439 0.0320699 0 1 0 0 1 0 3 1 0 0 0 0 0 0 0 0 863 0.0008 0 
7079 5 0.0235718 -0.0491906 -0.000274852 0 0 0 -0.343525 -0.388723 98.0975 0.0252799 0.203117 0.0408961 0 0 0 0 4 0 2 0 0 0 0 0 0 0 0 0 577 0.0008 0 
14672 5 0.024858 -0.0487834 -0.00154072 0 0 0 0.521686 -3.08561 98.0385 0.00152428 0.208952 0.00182067 0 0 0 0 3 0 0 0 0 0 0 0 0 0 0 0 118 0.0008 0 
17736 2 0.0241589 -0.0495621 -0.00100998 0 0 0 -0.754448 -1.66008 98.435 0.173683 0.196703 0.186457 0 0 0 0 2 0 1 0 0 0 0 0 0 0 0 0 66 0.0008 0 
8968 1 0.0256434 -0.0479572 -0.00207308 0 0 0 4.39249 -5.17608 100.293 -0.527474 0.241537 -0.520587 2 0 0 0 1 0 0 0 0 0 0 0 0 0 0 0 166 0.0008 0 
5208 5 0.0264125 -0.0470138 -0.00278188 0 0 0 1.19793 -5.97086 94.9883 -1.05216 0.394544 -0.977366 1 0 0 0 1 0 0 0 0 0 0 0 0 0 0 0 129 0.0008 0 
13270 1 0.00762539 -0.0444595 -0.0376146 0 0 0 4.18416 -7.28135 9.80422 0 -1.05196e-05 0 0 0 0 0 0 0 0 0 0 0 0 0 0 0 0 0 96 0.0008 0 
9508 1 0.00963839 -0.0366559 -0.0384802 0 0 0 0.842724 -0.778078 2.46613 0 -1.05196e-05 0 0 0 0 0 0 0 0 0 0 0 0 0 0 0 0 0 87 0.0008 0 
7147 3 0.0207568 -0.0498427 0.00216978 0 0 0 -0.0317353 4.51756 99.7076 -4.97969e-05 0.213621 -0.0108911 0 0 4 0 1 1 0 0 0 0 0 0 0 0 0 0 784 0.0008 0 
11603 8 0.0203775 -0.0496637 0.00287391 0 0 0 -0.00407484 5.65161 99.3351 -0.000712749 0.215891 -0.0119053 0 0 2 0 0 0 0 2 0 0 0 0 0 0 0 0 241 0.0008 0 
4918 9 0.0214724 -0.0490415 0.00226144 0 0 0 -0.000266511 4.33267 98.0417 0.00138953 0.208983 -0.00908792 0 0 1 0 1 1 0 1 4 0 0 0 0 0 0 0 863 0.0008 0 
15848 6 0.0212774 -0.0484501 0.00180141 0 0 0 -0.0914551 3.77873 97.0194 5.63293e-05 0.20871 -0.00830411 0 0 1 0 0 5 0 0 1 0 0 0 0 0 0 0 113 0.0008 0 
6942 12 0.0221667 -0.0487622 0.000933141 0 0 0 -0.0914753 2.08569 97.6062 -0.000953077 0.209295 -0.00437745 0 0 0 0 1 1 1 0 1 0 0 4 0 0 0 0 597 0.0008 0 
7521 7 0.0225132 -0.0480565 0.00139267 0 0 0 -0.0473077 2.60321 96.0654 -0.000721152 0.204854 -0.00548795 0 0 0 0 0 1 7 0 0 0 0 1 0 0 0 0 775 0.0008 0 
123 1 0.022965 -0.0491666 0.000787903 0 0 0 -0.111742 1.31008 98.2064 0.00536998 0.205599 -0.00173696 1 1 0 0 2 0 2 0 0 0 0 1 0 0 0 0 971 0.0008 0 
370 1 0.0238519 -0.0479077 -0.000274448 0 0 0 -0.0454983 -0.567198 95.8126 -0.00418929 0.209968 0.00268385 4 0 0 0 1 0 0 0 0 0 0 0 0 0 0 0 844 0.0008 0 
14579 9 0.0234881 -0.0473314 0.000593519 0 0 0 0.0211458 1.00627 94.6522 -0.000179658 0.203049 -0.00118453 1 0 0 0 0 0 1 0 4 0 0 0 0 0 0 0 468 0.0008 0 
3831 9 0.0224148 -0.0473836 0.000824779 0 0 0 -0.0296904 1.84404 94.8517 9.87893e-05 0.203741 -0.00377485 0 0 0 0 0 0 1 0 5 0 0 1 0 0 0 0 859 0.0008 0 
34 8 0.0230771 -0.0480711 0.000122477 0 0 0 -0.073912 0.471729 96.2618 -0.00487949 0.206694 3.41891e-05 2 0 0 0 1 0 1 1 2 0 0 1 0 0 0 0 903 0.0008 0 
12243 4 0.0244068 -0.0477433 -0.000889816 0 0 0 -0.00113551 -1.82036 95.5754 0.0266497 0.207787 0.0183417 1 0 0 2 1 0 0 0 0 0 0 0 0 0 0 0 503 0.0008 0 
12650 2 0.025051 -0.046827 -0.00144672 0 0 0 0.576906 -2.87224 94.2455 -0.00553515 0.195427 -0.0257621 1 3 0 1 0 0 0 0 0 0 0 0 0 0 0 0 521 0.0008 0 
16015 1 0.0257396 -0.0464799 -0.00184383 0 0 0 0.59148 -3.81498 93.5378 -0.0388548 0.206147 -0.0358442 2 1 0 0 1 0 0 0 0 0 0 0 0 0 0 0 355 0.0008 0 
3056 7 0.0258919 -0.0454283 -0.0022031 0 0 0 0.0161243 -4.31833 90.8605 0.00189314 0.18786 0.0118015 1 0 0 0 0 0 2 0 0 0 0 0 0 0 0 0 869 0.0008 0 
19642 8 0.0291694 -0.0438828 -0.00497651 0 0 0 -11.7943 -7.46374 76.7816 1.9099 0.292386 2.28713 0 0 0 0 0 0 0 2 0 0 0 0 0 0 0 0 49 0.0012 0 
4900 4 0.0317867 -0.0428549 -0.00746326 0 0 0 -0.0163937 -14.9498 85.7209 -0.00117251 0.182178 0.0330709 0 0 0 1 0 0 0 0 0 0 0 0 0 0 0 0 120 0.0008 0 
4033 5 0.0205749 -0.047639 0.00263798 0 0 0 -0.0749414 5.4949 95.3395 -0.000400271 0.204262 -0.0120841 0 0 0 0 5 1 0 0 0 0 0 0 0 0 0 0 782 0.0008 0 
9359 3 0.0205566 -0.047468 0.00340742 0 0 0 -0.0109763 6.73357 94.9222 -0.000245371 0.203354 -0.0141058 0 0 4 0 1 0 0 0 0 0 0 0 0 0 0 0 467 0.0008 0 
500 6 0.020467 -0.0486158 0.00308457 0 0 0 -0.0262204 6.13546 97.1869 -0.000250138 0.20826 -0.0131731 0 0 2 0 1 0 0 1 1 0 0 0 0 0 0 0 867 0.0008 0 
2549 2 0.0217176 -0.0475644 0.00237894 0 0 0 0.0694016 4.60098 95.0926 5.8285e-05 0.203602 -0.00929938 0 4 1 0 1 1 1 0 1 0 0 0 0 0 0 0 890 0.0008 0 
15619 1 0.0215762 -0.0474474 0.00172433 0 0 0 -0.0282098 3.63825 94.9331 0.000164068 0.203034 -0.00804387 3 1 0 0 1 1 1 0 1 0 0 0 0 0 0 0 368 0.0008 0 
282 4 0.0226009 -0.0468206 0.00151157 0 0 0 0.0466558 2.84687 93.5615 -4.67614e-06 0.199949 -0.00587124 1 1 0 4 0 0 1 0 2 0 0 0 0 0 0 0 881 0.0008 0 
1252 1 0.0223824 -0.045913 0.00114483 0 0 0 0.022254 2.51524 91.8641 4.7346e-05 0.196727 -0.00581105 6 0 0 1 0 0 0 0 1 0 0 0 0 0 0 0 960 0.0008 0 
9524 3 0.0234098 -0.0458901 0.000924793 0 0 0 0.0281492 1.68537 91.7449 0.00040112 0.195626 -0.003319 1 0 3 1 0 0 0 0 1 0 0 0 0 0 0 0 398 0.0008 0 
12424 6 0.0232114 -0.0464818 0.000243165 0 0 0 0.00746995 0.607743 92.9998 -0.000570007 0.2003 -0.00221437 1 0 1 1 0 2 0 1 2 0 0 0 0 0 0 0 564 0.0008 0 
5227 9 0.0241761 -0.0465311 -0.000366026 0 0 0 -0.0511816 -0.74734 93.0791 -0.00199324 0.20087 -0.00113358 1 1 0 1 0 1 0 0 2 0 0 0 0 0 0 0 807 0.0008 0 
97 5 0.0241292 -0.0451115 -0.000116589 0 0 0 -0.0414556 -0.410904 90.3012 0.000203825 0.189788 0.00113506 0 0 1 0 3 0 0 0 1 0 0 0 0 0 0 0 952 0.0008 0 
258 1 0.024607 -0.0456325 -0.000791849 0 0 0 -0.00666711 -1.57118 91.313 -0.00401628 0.194492 0.000136997 2 1 0 0 1 0 0 0 1 0 0 0 0 0 0 0 859 0.0008 0 
10493 4 0.0254658 -0.0452184 -0.00132631 0 0 0 0.0150945 -2.71117 90.4091 0.0015775 0.193358 0.00844977 2 0 0 2 0 0 1 0 0 0 0 0 0 0 0 0 471 0.0008 0 
2800 3 0.0264879 -0.0446689 -0.00234438 0 0 0 0.104127 -4.81295 89.2727 -0.000125809 0.191903 0.0113059 0 0 2 1 0 0 1 0 0 0 0 0 0 0 0 0 693 0.0008 0 
2710 6 0.0275652 -0.0440854 -0.00341165 0 0 0 0.0232478 -6.78068 88.157 -0.000709242 0.189097 0.0146732 0 0 0 0 0 1 0 0 0 0 0 0 0 0 0 0 784 0.0008 0 
19073 1 0.0302893 -0.0425575 -0.00590812 0 0 0 7.84705 -12.822 93.5482 -0.237638 0.282905 -0.110135 1 0 0 0 0 0 0 1 0 0 0 0 0 0 0 0 91 0.0012 0 
100 2 0.0320664 -0.0417757 -0.00704018 0 0 0 0.0389443 -14.1098 83.4632 -0.00096928 0.181861 0.0295545 0 3 0 1 0 0 0 0 0 0 0 0 0 0 0 0 1001 0.0008 0 
7478 3 0.0311565 -0.0408511 -0.00854927 0 0 0 -0.00888486 -17.0519 81.6979 0.00150324 0.173657 0.0373877 0 0 3 0 0 0 0 0 0 0 0 0 0 0 0 0 797 0.0008 0 
3796 15 0.0324386 -0.0409067 -0.00863458 0 0 0 0.0172693 -17.1609 81.7604 -0.000276087 0.174483 0.0366157 0 0 1 0 0 0 0 0 0 0 0 0 0 0 2 0 610 0.0008 0 
11780 5 0.0332258 -0.0411704 -0.00760455 0 0 0 -0.00655708 -15.2145 82.3208 -0.000262656 0.175712 0.0319413 0 1 0 0 2 0 0 0 0 0 0 0 0 0 1 0 556 0.0008 0 
18057 7 0.0212356 -0.0422935 -0.0374588 0 0 0 0.807279 -0.368884 0.524249 0 -1.05196e-05 0 0 0 0 0 0 0 0 0 0 0 0 0 0 0 0 0 74 0.0008 0 
11658 5 0.0203607 -0.0463275 0.00318501 0 0 0 -0.00927547 6.50901 92.728 -5.70471e-05 0.198943 -0.014292 0 0 1 0 4 0 0 0 0 0 0 0 0 0 0 0 479 0.0008 0 
53 4 0.0213139 -0.0462019 0.00218198 0 0 0 -0.0570771 4.5805 92.4614 -2.85756e-05 0.1976 -0.0107382 2 1 0 3 1 0 0 0 0 0 0 0 0 0 0 0 1029 0.0008 0 
2302 4 0.0212925 -0.046565 0.00291962 0 0 0 0.0111996 5.65414 93.0939 2.19967e-05 0.198884 -0.0116906 1 1 1 2 2 0 0 0 0 0 0 0 0 0 0 0 918 0.0008 0 
16848 5 0.0221554 -0.0458516 0.00214383 0 0 0 0.0401609 4.07743 91.6206 -0.000136225 0.195091 -0.00877686 1 0 0 3 3 0 0 0 0 0 0 0 0 0 0 0 240 0.0008 0 
76 8 0.0216937 -0.044717 0.00213527 0 0 0 -0.00452614 4.41895 89.5337 6.96233e-05 0.191033 -0.00956961 0 0 0 1 1 0 0 6 0 0 0 0 0 0 0 0 857 0.0008 0 
7671 3 0.0227373 -0.0445691 0.0013908 0 0 0 0.089185 2.71543 89.1023 1.88867e-05 0.190458 -0.00561297 1 0 4 0 1 0 0 1 0 0 0 0 0 0 0 0 752 0.0008 0 
1300 2 0.0232874 -0.0450054 0.000514848 0 0 0 -0.0235484 1.24468 90.1024 0.000747848 0.193435 -0.00209237 1 2 2 0 1 1 0 0 0 0 0 0 0 0 0 0 581 0.0008 0 
15410 5 0.0241644 -0.0442482 0.00030362 0 0 0 0.0134241 0.474826 88.4082 -0.000842267 0.188598 -0.000337703 0 1 0 0 2 0 0 0 0 0 0 0 0 0 0 0 487 0.0008 0 
5630 1 0.0252631 -0.0433311 -0.00103331 0 0 0 -0.0153737 -1.95916 86.7316 9.83115e-05 0.185689 0.00404653 4 0 0 0 0 0 0 0 0 0 0 0 0 0 0 0 844 0.0008 0 
6228 2 0.0247464 -0.0442729 -0.000583463 0 0 0 -0.00490129 -1.2267 88.475 -0.000743324 0.188975 0.00267888 2 0 0 1 2 0 0 0 0 0 0 0 0 0 0 0 678 0.0008 0 
2399 5 0.0260498 -0.0436262 -0.00173087 0 0 0 -0.0385673 -3.51082 87.2294 -0.000457702 0.188224 0.00744024 1 0 1 0 1 0 0 0 0 0 0 0 0 0 0 0 914 0.0008 0 
17183 5 0.0269195 -0.0432355 -0.00262941 0 0 0 0.00341247 -5.1855 86.4985 -0.000386789 0.187465 0.0135129 0 0 1 0 2 1 0 0 0 0 0 0 0 0 0 0 203 0.0008 0 
83 6 0.0276344 -0.0422744 -0.00317526 0 0 0 0.086093 -6.28763 84.5495 0.000858727 0.184368 0.0300288 0 0 0 0 1 1 0 0 0 0 0 0 0 0 0 0 906 0.0008 0 
14906 2 0.0283345 -0.0426284 -0.00392542 0 0 0 -1.9873 -7.59176 83.4736 0.121246 0.180959 0.18616 0 0 0 0 0 1 0 1 0 0 0 0 0 0 0 0 251 0.0008 0 
16148 6 0.0306336 -0.0410934 -0.00596661 0 0 0 0.900262 -11.9663 83.0087 0.0939837 0.154647 0.095173 1 0 0 0 0 3 0 0 0 0 0 0 0 0 0 0 363 0.0008 0 
13155 7 0.0312899 -0.040214 -0.00556347 0 0 0 -0.0268811 -11.1787 80.291 0.0176487 0.200633 0.0447065 0 0 0 0 0 1 4 0 0 0 0 0 0 0 0 0 446 0.0008 0 
5066 2 0.0326267 -0.0400628 -0.00560999 0 0 0 -0.0511166 -11.3053 80.0787 0.00477389 0.170842 0.0245552 0 5 0 0 0 0 1 0 0 0 0 0 0 0 0 0 621 0.0008 0 
16766 3 0.0321713 -0.0412566 -0.00583847 0 0 0 0.0142567 -11.7779 82.3867 0.0195987 0.187232 0.0406192 0 2 1 0 0 1 1 0 0 0 0 0 0 0 0 0 206 0.0008 0 
760 7 0.0333664 -0.0409139 -0.0064047 0 0 0 -0.0010632 -12.8096 81.8138 0.00194654 0.173425 0.0261216 0 1 1 0 1 0 1 0 0 0 0 0 0 0 0 0 877 0.0008 0 
3694 10 0.00242411 -0.0167789 -0.0370148 0 0 0 0.244651 -2.39218 1.55295 0 -1.05196e-05 0 0 0 0 0 0 0 0 0 0 0 0 0 0 0 0 0 152 0.0008 0 
19122 5 0.0305625 -0.0403283 -0.00720517 0 0 0 -0.0485399 -14.3471 80.6404 0.0298392 0.558597 0.116152 0 0 1 0 3 1 1 0 0 0 0 0 0 0 0 0 189 0.0012 0 
19579 3 0.0323482 -0.0399724 -0.00727457 0 0 0 0.0195032 -14.5361 79.9064 -0.000129408 0.577672 0.105069 0 2 5 0 2 0 1 0 0 0 0 0 0 0 1 0 259 0.0012 0 
9772 4 0.0335457 -0.0388465 -0.0072814 0 0 0 0.0142827 -14.5099 77.7188 -0.000500192 0.167158 0.0319985 0 0 1 4 0 0 0 0 0 0 0 0 0 0 0 0 720 0.0008 0 
11851 5 0.0310663 -0.0392604 -0.00847794 0 0 0 0.00178492 -16.8814 78.5249 -0.00105191 0.167403 0.0357579 0 0 2 0 2 0 0 0 0 0 0 0 0 0 0 0 512 0.0008 0 
14143 1 0.0319942 -0.0382593 -0.00847011 0 0 0 0.05011 -16.951 76.529 -0.00310715 0.163855 0.0344711 3 0 0 0 1 0 0 0 0 0 0 0 0 0 0 0 388 0.0008 0 
3345 7 0.0330767 -0.0390088 -0.00846377 0 0 0 0.0618371 -16.7727 78.0496 -0.000307976 0.167951 0.0360022 1 0 1 1 0 0 1 0 0 0 0 0 0 0 0 0 298 0.0008 0 
17555 2 0.020686 -0.0446631 0.00305992 0 0 0 0.0416819 6.34614 89.3616 3.86489e-05 0.191864 -0.0140007 0 5 0 0 0 0 0 1 0 0 0 0 0 0 0 0 274 0.0008 0 
2651 9 0.0200586 -0.0440525 0.00388958 0 0 0 -0.0330466 7.97477 88.1479 0.000134695 0.188779 -0.0171514 0 1 0 0 0 0 0 0 2 0 0 0 0 0 0 0 924 0.0008 0 
579 4 0.0202908 -0.0456885 0.00371083 0 0 0 0.0129528 7.45811 91.3726 2.76519e-07 0.196106 -0.016232 0 1 0 1 1 0 0 0 0 0 0 0 0 0 0 0 559 0.0008 0 
617 3 0.021265 -0.0451929 0.00317828 0 0 0 -0.0375118 6.12612 90.3319 0.000440037 0.192932 -0.0126645 0 1 2 3 2 0 0 1 0 0 0 0 0 0 0 0 693 0.0008 0 
7518 5 0.0212713 -0.0437903 0.00279451 0 0 0 -0.0754662 5.77157 87.6781 -0.000375039 0.188684 -0.0131187 0 1 1 0 4 0 0 1 0 0 0 0 0 0 0 0 736 0.0008 0 
12004 1 0.0224239 -0.0440507 0.00215946 0 0 0 0.0544306 4.13798 87.9607 0.00032126 0.188276 -0.00838275 3 0 1 0 1 0 0 1 0 0 0 0 0 0 0 0 400 0.0008 0 
10725 10 0.022281 -0.0429376 0.00196641 0 0 0 0.0819496 4.01277 85.8974 -0.000248332 0.184607 -0.00902112 1 0 0 0 1 0 0 0 0 3 0 0 0 0 0 0 790 0.0008 0 
9513 9 0.0234566 -0.0434752 0.000606187 0 0 0 0.0764781 1.4008 86.9273 9.50157e-05 0.186939 -0.00321498 0 1 1 0 1 0 0 0 2 0 0 0 0 0 0 0 661 0.0008 0 
3437 2 0.023278 -0.0432437 0.00135237 0 0 0 0.0535475 2.60978 86.4584 -0.000200352 0.185746 -0.00542994 1 1 1 0 0 0 0 0 1 1 0 0 0 0 0 0 883 0.0008 0 
3400 4 0.0247861 -0.0424556 -0.000330877 0 0 0 -0.0758037 -0.642312 84.942 -0.000165705 0.181826 0.00136539 1 0 0 3 0 0 0 0 0 0 0 0 0 0 0 0 940 0.0008 0 
10637 1 0.0239061 -0.0420081 0.000548435 0 0 0 -0.00309721 1.23576 84.0866 0.000169 0.180226 -0.00287306 2 0 0 1 0 0 0 0 1 0 0 0 0 0 0 0 497 0.0008 0 
4454 12 0.02582 -0.0422703 -0.00127784 0 0 0 0.0552982 -2.57671 84.5012 -8.31518e-05 0.181599 0.00572808 1 0 0 1 1 0 0 0 0 0 0 1 0 0 0 0 844 0.0008 0 
4081 6 0.0268745 -0.041693 -0.00226027 0 0 0 0.0218459 -4.4527 83.3685 0.00107941 0.18283 0.0097701 0 0 0 0 1 1 0 0 0 0 0 1 0 0 0 0 848 0.0008 0 
759 5 0.0323128 -0.0389041 -0.00527105 0 0 0 -0.030442 -10.617 77.7918 -0.000924967 0.162605 0.0229681 0 1 0 0 3 0 0 0 0 0 0 0 0 0 0 0 1034 0.0008 0 
2167 5 0.030371 -0.0382813 -0.00605111 0 0 0 -0.00299824 -12.1473 76.5596 0.000709003 0.161959 0.0266827 0 0 0 0 4 0 0 0 0 0 0 0 0 0 0 0 875 0.0008 0 
7604 2 0.0315739 -0.0376262 -0.00637451 0 0 0 -0.0112006 -12.7495 75.2857 0.000923439 0.160225 0.0279705 0 5 0 0 1 0 0 0 0 0 0 0 0 0 0 0 636 0.0008 0 
847 1 0.0313264 -0.0390302 -0.00615491 0 0 0 -0.00771337 -12.3314 78.0228 0.000665811 0.167932 0.0284388 2 1 1 0 3 0 1 0 0 0 0 0 0 0 0 0 669 0.0008 0 
134 7 0.0332859 -0.0386801 -0.00604253 0 0 0 0.00532711 -12.0644 77.3841 -4.21231e-05 0.165985 0.0254717 0 1 0 1 1 0 1 0 0 0 0 0 0 0 0 0 826 0.0008 0 
16871 1 0.0303396 -0.0371079 -0.00698343 0 0 0 0.0366248 -13.9183 74.3154 -0.00361555 0.159285 0.027528 3 1 0 0 1 0 0 0 0 0 0 0 0 0 0 0 307 0.0008 0 
12101 1 0.0311017 -0.0372346 -0.00803211 0 0 0 0.0734854 -16.1882 74.5333 -0.0109386 0.165206 0.0249423 2 0 0 0 0 0 0 0 0 0 0 0 0 0 0 0 521 0.0008 0 
564 10 0.0304457 -0.0384725 -0.00749282 0 0 0 0.000273601 -15.0081 77.0357 -0.00247306 0.163949 0.030021 2 0 0 0 3 0 0 0 0 0 0 0 0 0 0 0 1017 0.0008 0 
13798 2 0.0321035 -0.0382796 -0.00722107 0 0 0 0.0631689 -14.4386 76.5656 -0.000107493 0.164021 0.0304201 2 1 1 1 0 0 0 0 0 0 0 0 0 0 0 0 513 0.0008 0 
6951 2 0.0332508 -0.0375303 -0.00788515 0 0 0 0.0569845 -15.6989 75.0748 2.72986e-05 0.161428 0.0323742 1 2 0 1 0 0 1 0 0 0 0 0 0 0 0 0 672 0.0008 0 
5427 6 0.0322461 -0.0366162 -0.00812264 0 0 0 0.0416567 -16.2797 73.2104 -0.00330224 0.156331 0.0308143 1 1 0 0 0 2 0 0 0 0 0 0 0 0 0 0 471 0.0008 0 
5276 5 0.0207383 -0.0439489 0.00390283 0 0 0 0.111567 7.49541 87.8696 -0.000132914 0.188332 -0.0152211 0 1 1 0 3 0 0 0 1 0 0 0 0 0 0 0 684 0.0008 0 
1299 8 0.0209712 -0.0425501 0.00320686 0 0 0 -0.0137687 6.54336 85.1586 9.10424e-05 0.183023 -0.0140373 0 0 0 0 2 0 0 5 0 0 0 0 0 0 0 0 1031 0.0008 0 
4700 3 0.0217188 -0.0434048 0.00302351 0 0 0 0.0882505 5.82719 86.6469 -0.000372944 0.186138 -0.0122645 1 0 1 0 2 0 0 2 0 1 0 0 0 0 0 0 864 0.0008 0 
6430 3 0.0218995 -0.0419926 0.00272736 0 0 0 0.0117948 5.36749 84.0666 -1.66191e-05 0.180791 -0.0112117 0 0 3 0 0 0 0 1 0 1 0 0 0 0 0 0 861 0.0008 0 
4086 2 0.0226778 -0.0412898 0.0020193 0 0 0 -0.0599655 4.07778 82.6074 0.000141566 0.177456 -0.00890548 0 4 1 0 0 0 0 0 0 0 0 0 0 0 0 0 353 0.0008 0 
9969 12 0.0233251 -0.0417977 0.00134166 0 0 0 -0.0210096 2.67915 83.632 2.31691e-06 0.179782 -0.00584694 1 2 0 0 0 0 0 0 0 0 0 0 0 0 0 0 645 0.0008 0 
10324 7 0.0247762 -0.0414287 2.00535e-05 0 0 0 0.117621 0.0431013 82.732 0.000140093 0.17707 -0.000451759 1 0 0 1 0 0 0 0 0 0 0 0 0 0 0 0 615 0.0008 0 
10239 8 0.0256623 -0.0399635 -0.000797656 0 0 0 -0.0810117 -1.60821 80.0023 0.000139141 0.171807 0.00326436 0 0 0 0 0 0 0 1 0 0 0 0 0 0 0 0 562 0.0008 0 
8933 4 0.0267182 -0.0401811 -0.0018593 0 0 0 -0.0116043 -3.68744 80.3844 0.000469354 0.172844 0.00777395 0 0 0 0 0 1 0 1 0 0 0 0 0 0 0 0 656 0.0008 0 
9091 5 0.0312464 -0.0378211 -0.00519051 0 0 0 -0.00658626 -10.4103 75.6375 0.000861137 0.160357 0.0229785 1 1 0 0 3 0 0 0 0 0 0 0 0 0 0 0 626 0.0008 0 
5616 7 0.0304939 -0.0366448 -0.00564935 0 0 0 0.0105607 -11.296 73.3206 0.000439009 0.156734 0.024667 1 0 0 0 1 0 3 0 0 0 0 0 0 0 0 0 756 0.0008 0 
3304 6 0.0325277 -0.0374733 -0.00500235 0 0 0 0.0108942 -10.0897 74.9227 -0.000531499 0.160293 0.0212949 0 0 0 0 2 2 0 0 0 0 0 0 0 0 0 0 1028 0.0008 0 
2782 8 0.0315216 -0.0362382 -0.00651198 0 0 0 0.0212983 -12.9811 72.5327 0.000592167 0.154601 0.0287057 1 1 0 0 0 0 1 3 0 0 0 0 0 0 0 0 1040 0.0008 0 
20087 3 0.0331438 -0.036914 -0.00643129 0 0 0 -0.00065832 -12.8289 73.8449 0.00175083 0.534976 0.091302 0 3 3 0 0 2 1 1 0 0 0 0 0 0 0 0 47 0.0012 0 
16763 1 0.0309576 -0.0357081 -0.0076706 0 0 0 0.0507688 -15.3795 71.3871 -0.000613037 0.151832 0.03265 0 0 0 0 0 0 0 1 0 0 0 0 0 0 0 0 299 0.0008 0 
47 1 0.0328595 -0.0354855 -0.00760713 0 0 0 0.0311119 -15.2636 70.9665 -6.37793e-05 0.153094 0.0332172 1 0 1 0 0 1 0 0 0 0 0 0 0 0 0 0 870 0.0008 0 
8151 2 0.0249068 -0.0512865 -0.0290287 0 0 0 0.101086 -4.19066 6.97469 0 -1.05196e-05 0 0 0 0 0 0 0 0 0 0 0 0 0 0 0 0 0 122 0.0008 0 
19795 9 0.0387132 -0.0570087 -0.0132386 0 0 0 36.6466 -57.9014 50.7708 0 -3.55035e-05 0 0 0 0 0 0 0 0 0 0 0 0 0 0 0 0 0 22 0.0012 0 
44 2 0.020055 -0.0424854 0.00419602 0 0 0 -0.0316627 8.37632 84.9725 6.18206e-05 0.182465 -0.0183966 0 2 0 0 0 0 0 1 1 0 0 0 0 0 0 0 952 0.0008 0 
7049 2 0.0199595 -0.0412783 0.0045126 0 0 0 -0.0338291 8.96377 82.5357 -3.67924e-05 0.177123 -0.0190321 0 3 0 0 0 0 0 0 0 0 0 0 0 0 0 0 879 0.0008 0 
15817 4 0.0208704 -0.0415391 0.00360138 0 0 0 -0.0616887 7.28046 83.1312 -0.000106894 0.178457 -0.0156752 0 2 1 5 0 0 0 1 0 0 0 0 0 0 0 0 247 0.0008 0 
2661 1 0.0209554 -0.0425555 0.0040313 0 0 0 -0.0281151 7.79047 85.0376 -8.68119e-05 0.182344 -0.0160458 1 1 1 1 1 0 0 1 0 0 0 0 0 0 0 0 787 0.0008 0 
1830 1 0.0224037 -0.040212 0.00264294 0 0 0 -0.058688 5.28786 80.4964 -2.30154e-05 0.172781 -0.0113416 3 1 0 0 0 0 0 0 0 0 0 0 0 0 0 0 773 0.0008 0 
5218 9 0.0217972 -0.0410136 0.00294269 0 0 0 -0.0859617 5.98349 82.0302 0.000128448 0.175722 -0.0130272 1 1 1 1 0 0 0 0 1 0 0 0 0 0 0 0 675 0.0008 0 
16590 4 0.0232782 -0.040185 0.0017333 0 0 0 -0.0674146 3.44895 80.4324 -7.50057e-05 0.172618 -0.00759621 1 1 0 1 0 0 0 0 0 0 0 0 0 0 0 0 350 0.0008 0 
9675 5 0.0241159 -0.0401233 0.00074284 0 0 0 -0.0724532 1.477 80.3161 0.00010906 0.172407 -0.00318731 0 0 0 1 0 0 0 0 0 0 0 0 0 0 0 0 222 0.0008 0 
11146 1 0.0315794 -0.0363058 -0.0048801 0 0 0 0.0159293 -9.79917 72.6402 -7.34908e-05 0.155514 0.0212118 2 0 0 0 1 1 1 0 0 0 0 0 0 0 0 0 553 0.0008 0 
3329 4 0.0328673 -0.0357021 -0.00502575 0 0 0 -0.00825232 -10.0469 71.4204 -0.000230827 0.153134 0.0215766 1 0 1 1 0 0 0 0 0 0 0 0 0 0 0 0 915 0.0008 0 
18733 5 0.03073 -0.0347698 -0.00578448 0 0 0 0.0266122 -11.5712 69.6484 0.000281866 0.504689 0.0844548 1 0 0 0 2 0 1 1 0 0 0 0 0 0 0 0 414 0.0012 0 
6688 7 0.0324402 -0.0344967 -0.00594521 0 0 0 0.011573 -11.8636 68.9895 -4.78962e-06 0.148127 0.0254313 0 0 0 1 1 0 1 0 0 0 0 0 0 0 0 0 692 0.0008 0 
739 7 0.0335704 -0.0350931 -0.00636629 0 0 0 -0.000815022 -12.7148 70.1761 4.94231e-05 0.150687 0.0274921 1 0 1 0 0 0 1 0 0 0 0 0 0 0 0 0 965 0.0008 0 
6581 1 0.0321057 -0.0342648 -0.00765591 0 0 0 -0.0563556 -15.4408 68.4938 -0.000105185 0.14692 0.0333935 1 0 0 0 0 0 0 0 0 0 0 0 0 0 0 0 665 0.0008 0 
18981 3 0.0239557 -0.0493046 -0.0286463 0 0 0 -0.834567 -3.79337 6.15467 0 -3.55035e-05 0 0 0 0 0 0 0 0 0 0 0 0 0 0 0 0 0 134 0.0012 0 
9281 3 0.0124615 -0.0514392 -0.0237623 0 0 0 0.543268 -12.5214 14.8672 0 -1.05196e-05 0 0 0 0 0 0 0 0 0 0 0 0 0 0 0 0 0 97 0.0008 0 
7206 6 0.0204703 -0.0404961 0.00408277 0 0 0 -0.0522258 8.26971 81.1486 -4.23495e-05 0.174302 -0.0178293 0 1 0 1 0 1 0 0 0 0 0 0 0 0 0 0 774 0.0008 0 
3794 3 0.0209089 -0.041111 0.00438327 0 0 0 -0.0314512 8.49213 82.2068 -1.28781e-05 0.176313 -0.0175954 1 1 1 1 0 1 0 0 0 0 0 0 0 0 0 0 818 0.0008 0 
717 6 0.0214421 -0.040387 0.00360465 0 0 0 -0.081334 7.14089 80.8663 -5.77916e-05 0.173582 -0.0152521 1 0 1 1 0 0 0 0 1 0 0 0 0 0 0 0 891 0.0008 0 
2556 1 0.0309036 -0.033492 -0.00723371 0 0 0 -0.00255627 -14.5645 67.0099 6.29794e-05 0.143557 0.0314014 0 0 0 0 1 0 0 0 0 0 0 0 0 0 0 0 979 0.0008 0 
5110 13 0.0333134 -0.0336524 -0.00683633 0 0 0 -0.0817892 -13.6746 67.2104 -9.34211e-05 0.143921 0.0292448 1 0 0 0 0 0 2 0 0 0 0 0 0 0 0 0 1001 0.0008 0 
14055 8 0.031282 -0.0547261 -0.0273663 0 0 0 -0.398236 0.0212486 -0.0342247 -5.34042e-09 -1.95192e-06 3.45742e-06 0 0 0 0 0 0 0 0 0 0 0 0 0 0 0 0 35 0.0008 0 
15205 2 0.0451198 -0.0549388 -0.0268703 0 0 0 -0.0180203 -0.0477119 0.1223 -1.46342e-09 -6.13213e-06 -4.13851e-07 0 0 0 0 0 0 0 0 0 0 0 0 0 0 0 0 33 0.0008 0 
20441 4 0.0280267 -0.0535935 -0.0237819 0 0 0 0.789208 -2.12949 4.77419 -0.0080421 0.0477637 0.017787 0 0 0 0 0 0 0 0 0 0 0 0 0 0 0 0 0 0.0012 0 
3551 3 0.0386728 -0.0566073 -0.0225634 0 0 0 0.0977714 0.131692 -0.339937 1.31286e-06 -3.07985e-06 7.95e-06 0 0 0 0 0 0 0 0 0 0 0 0 0 0 0 0 88 0.0008 0 
9610 1 0.00976964 -0.0545721 -0.0202795 0 0 0 -0.674496 -1.66802 3.76108 0 -1.05196e-05 0 0 0 0 0 0 0 0 0 0 0 0 0 0 0 0 0 92 0.0008 0 
6450 6 0.0264042 -0.0575462 -0.0201399 0 0 0 0.0878976 0.0542242 -0.139969 -5.1565e-18 -9.80505e-07 2.53098e-06 0 0 0 0 0 0 0 0 0 0 0 0 0 0 0 0 121 0.0008 0 
874 2 0.0160941 -0.0584778 -0.0177352 0 0 0 -0.0113508 0.0320937 -0.0828434 -2.35925e-18 -9.80505e-07 2.53098e-06 0 0 0 0 0 0 0 0 0 0 0 0 0 0 0 0 83 0.0008 0 
10842 11 0.0342998 -0.0582601 -0.0182971 0 0 0 0.0827894 0.0205787 -0.0531197 2.82035e-17 -9.80505e-07 2.53098e-06 0 0 0 0 0 0 0 0 0 0 0 0 0 0 0 0 49 0.0008 0 
17011 3 0.0427714 -0.0580357 -0.0188242 0 0 0 0.155432 0.0440042 -0.19244 0 -1.05196e-05 0 0 0 0 0 0 0 0 0 0 0 0 0 0 0 0 0 47 0.0008 0 
13870 2 0.0459352 -0.058284 -0.0181056 0 0 0 0.0254787 0.123525 -0.245882 0 -1.05196e-05 0 0 0 0 0 0 0 0 0 0 0 0 0 0 0 0 0 17 0.0008 0 
1694 1 0.0140187 -0.0568447 -0.0159571 0 0 0 0.37484 -1.85211 5.24989 0 -1.05196e-05 0 0 0 0 0 0 0 0 0 0 0 0 0 0 0 0 0 963 0.0008 0 
16806 4 0.0189455 -0.0589446 -0.0162975 0 0 0 -0.0132331 0.0128412 -0.0686944 -1.7914e-18 -2.53692e-07 1.35713e-06 0 0 0 0 0 0 0 0 0 0 0 0 0 0 0 0 65 0.0008 0 
18020 5 0.0266256 -0.0588985 -0.0165442 0 0 0 0.0705469 0.0213433 -0.114177 -2.18268e-18 -2.53692e-07 1.35713e-06 0 0 0 0 0 0 0 0 0 0 0 0 0 0 0 0 45 0.0008 0 
338 3 0.0414756 -0.0586734 -0.0171772 0 0 0 0.00508504 0.0891654 -0.21037 0 -1.05196e-05 0 0 0 0 0 0 0 0 0 0 0 0 0 0 0 0 0 93 0.0008 0 
8602 1 0.0119116 -0.0592098 -0.0148788 0 0 0 -0.0445076 0.00630512 -0.0337294 -1.58807e-18 -2.53692e-07 1.35713e-06 0 0 0 0 0 0 0 0 0 0 0 0 0 0 0 0 48 0.0008 0 
13872 3 0.0140318 -0.0591412 -0.0152457 0 0 0 -0.0253193 0.0118604 -0.0634474 3.77133e-18 -2.53692e-07 1.35713e-06 0 0 0 0 0 0 0 0 0 0 0 0 0 0 0 0 80 0.0008 0 
1903 4 0.0251774 -0.059126 -0.0153273 0 0 0 0.0932741 0.014706 -0.0786699 9.3679e-18 -2.53692e-07 1.35713e-06 0 0 0 0 0 0 0 0 0 0 0 0 0 0 0 0 128 0.0008 0 
16349 4 0.00259937 -0.0595117 -0.013264 0 0 0 -0.00324044 0.00102376 -0.00221778 -1.29099e-06 -5.22981e-06 3.28206e-07 0 0 0 0 0 0 0 0 0 0 0 0 0 0 0 0 40 0.0008 0 
16168 4 0.0160785 -0.059409 -0.0138131 0 0 0 -0.0123362 0.0090939 -0.048648 6.18062e-20 -2.53692e-07 1.35713e-06 0 0 0 0 0 0 0 0 0 0 0 0 0 0 0 0 112 0.0008 0 
2010 2 0.0252705 -0.0594332 -0.0136837 0 0 0 0.0514824 0.0123637 -0.0661401 4.89448e-18 -2.53692e-07 1.35713e-06 0 0 0 0 0 0 0 0 0 0 0 0 0 0 0 0 107 0.0008 0 
7257 5 0.0352839 -0.0593023 -0.0143562 0 0 0 -0.107466 0.00160203 0.116867 0 -1.05196e-05 0 0 0 0 0 0 0 0 0 0 0 0 0 0 0 0 0 74 0.0008 0 
17781 8 0.0467847 -0.0594453 -0.0136189 0 0 0 0.0906585 0.0229232 -0.122628 7.52974e-18 -2.53692e-07 1.35713e-06 0 0 0 0 0 0 0 0 0 0 0 0 0 0 0 0 13 0.0008 0 
17211 2 0.00518107 -0.0589761 -0.0038644 0 0 0 4.27066 1.60185 19.5917 -0.00628436 0.0130991 0.0018634 0 0 0 0 0 0 0 0 0 0 0 0 0 0 0 0 47 0.0008 0 
7278 1 0.0334856 -0.0588721 0.000627428 0 0 0 15.0412 1.44865 28.0834 0 -1.05196e-05 0 0 0 0 0 0 0 0 0 0 0 0 0 0 0 0 0 85 0.0008 0 
11726 4 0.00113091 -0.0596291 -0.012636 0 0 0 -0.00596151 0.000376573 -0.00105341 -3.62407e-07 -6.65728e-07 1.68751e-06 0 0 0 0 0 0 0 0 0 0 0 0 0 0 0 0 61 0.0008 0 
16870 13 0.00401647 -0.0596525 -0.0125109 0 0 0 -0.00122846 -0.000292954 0.0017415 2.37214e-09 -1.59356e-07 1.37831e-06 0 0 0 0 0 0 0 0 0 0 0 0 0 0 0 0 81 0.0008 0 
7470 3 0.0119162 -0.0597709 -0.0118772 0 0 0 -0.0171177 -0.00170756 0.00913463 -5.82044e-19 -2.53692e-07 1.35713e-06 0 0 0 0 0 0 0 0 0 0 0 0 0 0 0 0 81 0.0008 0 
17147 2 0.01547 -0.0597238 -0.0121292 0 0 0 -0.0312696 0.00814012 -0.0435458 1.23014e-18 -2.53692e-07 1.35713e-06 0 0 0 0 0 0 0 0 0 0 0 0 0 0 0 0 78 0.0008 0 
17453 12 0.018724 -0.0597241 -0.0121274 0 0 0 0.0103934 0.000150177 -0.000803374 -9.15134e-19 -2.53692e-07 1.35713e-06 0 0 0 0 0 0 0 0 0 0 0 0 0 0 0 0 42 0.0008 0 
10441 10 0.0242063 -0.0596539 -0.012503 0 0 0 0.0685291 0.00927629 -0.0496237 -5.22274e-19 -2.53692e-07 1.35713e-06 0 0 0 0 0 0 0 0 0 0 0 0 0 0 0 0 140 0.0008 0 
340 4 0.0266168 -0.0596371 -0.0125928 0 0 0 0.0420005 0.0048059 -0.0257093 -3.26176e-18 -2.53692e-07 1.35713e-06 0 0 0 0 0 0 0 0 0 0 0 0 0 0 0 0 215 0.0008 0 
17560 4 0.0297457 -0.0597824 -0.0118158 0 0 0 0.0562105 0.000611411 -0.00327079 -5.19913e-14 -2.55198e-07 1.35684e-06 0 0 0 0 0 0 0 0 0 0 0 0 0 0 0 0 65 0.0008 0 