ITEM: TIMESTEP
15950000
ITEM: NUMBER OF ATOMS
1935
ITEM: BOX BOUNDS ff ff ff
-0.01 0.45
-0.15 0.15
-0.08 0.1
ITEM: ATOMS id type x y z ix iy iz vx vy vz fx fy fz c_cc_1 c_cc_2 c_cc_3 c_cc_4 c_cc_5 c_cc_6 c_cc_7 c_cc_8 c_cc_9 c_cc_10 c_cc_11 c_cc_12 c_cc_13 c_cc_14 c_cc_15 c_cc_16 f_fppacc radius 
1349 14 0.00343855 -0.0565698 -0.012016 0 0 0 -0.677698 -2.51634 13.8579 0.0108477 0.277441 0.0400896 0 0 0 0 0 0 0 0 0 0 0 0 0 0 0 0 82 0.002 
1381 4 0.00681099 -0.0516197 0.00231311 0 0 0 -0.977912 0.499884 1.8289 0 -0.000164368 0 0 0 0 0 0 0 0 0 0 0 0 0 0 0 0 0 56 0.002 
58 1 0.0178473 -0.0362395 -0.0444067 0 0 0 1.73248 -6.29779 6.89284 0 -0.000164368 0 0 0 0 0 0 0 0 0 0 0 0 0 0 0 0 0 117 0.002 
1420 4 0.00628363 -0.0129744 0.0561844 0 0 0 -4.01106 15.4405 3.52332 0 -0.000164368 0 0 0 0 0 0 0 0 0 0 0 0 0 0 0 0 0 29 0.002 
356 7 0.00603174 -0.000925382 0.0576354 0 0 0 0.932642 8.28531 0.330907 0 -0.000164368 0 0 0 0 0 0 0 0 0 0 0 0 0 0 0 0 0 164 0.002 
970 7 0.0157152 0.0118043 -0.054746 0 0 0 3.53471 -3.87131 1.51865 0 -0.000164368 0 0 0 0 0 0 0 0 0 0 0 0 0 0 0 0 0 119 0.002 
587 1 0.00552405 0.0295651 0.0422601 0 0 0 1.16097 4.27119 -4.44562 0 -0.000164368 0 0 0 0 0 0 0 0 0 0 0 0 0 0 0 0 0 61 0.002 
1991 10 0.0123491 0.0285831 0.0425682 0 0 0 1.8973 2.34943 -5.04231 0 -0.000164368 0 0 0 0 0 0 0 0 0 0 0 0 0 0 0 0 0 0 0.002 
167 2 0.0173801 0.0304117 0.0470671 0 0 0 -2.46509 7.84286 -4.27336 -5.00692 3.29074 -3.30804 0 1 0 0 0 0 0 0 0 0 0 0 0 0 0 0 93 0.002 
1345 4 0.0102397 0.0286826 0.0502514 0 0 0 2.5319 4.49139 -2.37341 0.00807674 -0.0371561 -0.0296026 0 0 0 0 0 0 0 0 0 0 0 0 0 0 0 0 68 0.002 
41 1 0.015079 0.0528602 -0.0354992 0 0 0 1.25067e-16 1.16253e-15 5.61778e-12 0 -1.11022e-16 0 1 0 0 0 0 0 0 0 0 0 0 0 0 0 0 0 106 0.002 
480 3 0.0160528 0.0564827 -0.0355008 0 0 0 -8.35402e-17 -1.32219e-15 5.61882e-12 0 5.55112e-17 0 1 0 0 0 0 0 0 0 0 0 0 0 0 0 0 0 149 0.002 
1707 1 0.0127377 0.0625925 -0.0355 0 0 0 -6.30165e-212 -2.0151e-23 2.24236e-12 -2.33784e-211 1.35525e-20 3.55271e-15 0 0 0 0 0 0 0 0 0 0 0 0 0 0 0 0 1 0.002 
286 14 0.015851 0.0688433 -0.0355 0 0 0 -7.60605e-108 -1.21864e-19 -3.93767e-12 3.26245e-108 1.35525e-20 0 0 0 0 0 0 0 0 0 0 0 0 0 0 0 0 0 130 0.002 
917 8 0.00297238 0.0583324 -0.0313564 0 0 0 -0.0607081 -1.92993 0.410913 0.0796369 0.0278039 -0.0283423 0 0 0 0 0 0 0 0 0 0 0 0 0 0 0 0 119 0.002 
1920 9 0.0103206 0.0641661 -0.0303519 0 0 0 2.41701 -1.00953 1.15665 0 -0.000164368 0 0 0 0 0 0 0 0 0 0 0 0 0 0 0 0 0 3 0.002 
1726 5 0.0113062 0.0615503 -0.0219618 0 0 0 1.01056 -3.57601 0.844085 0 -0.000164368 0 0 0 0 0 0 0 0 0 0 0 0 0 0 0 0 0 39 0.002 
1975 1 0.00332817 0.0714277 -0.0245 0 0 0 -0.0173177 -1.4455 -0.144973 0 -0.000164368 0 0 0 0 0 0 0 0 0 0 0 0 0 0 0 0 0 0 0.002 
770 4 0.0152858 0.0692757 -0.0183956 0 0 0 -1.43584 -0.913064 -0.115735 0 -0.000164368 0 0 0 0 0 0 0 0 0 0 0 0 0 0 0 0 0 28 0.002 
922 5 0.0170477 0.0521102 -0.0138041 0 0 0 0.595027 -2.59676 1.45813 0 -0.000164368 0 0 0 0 0 0 0 0 0 0 0 0 0 0 0 0 0 103 0.002 
1073 6 0.00745407 0.0520385 -0.0112802 0 0 0 -1.35469 -0.956073 1.80274 0 -0.000164368 0 0 0 0 0 0 0 0 0 0 0 0 0 0 0 0 0 116 0.002 
991 8 0.0175174 0.0429754 -0.00940814 0 0 0 0.650485 -1.99224 1.19241 0 -0.000164368 0 0 0 0 0 0 0 0 0 0 0 0 0 0 0 0 0 95 0.002 
1384 8 0.00761531 0.0717164 -0.00764495 0 0 0 -4.04596 -1.59769 -3.33155 0 -0.000164368 0 0 0 0 0 0 0 0 0 0 0 0 0 0 0 0 0 101 0.002 
759 15 0.0144416 0.055303 -5.57747e-05 0 0 0 0.360212 -1.82387 3.52595 0 -0.000164368 0 0 0 0 0 0 0 0 0 0 0 0 0 0 0 0 0 131 0.002 
600 5 0.00563244 0.0578771 0.000237925 0 0 0 -2.00709 -3.0178 2.30805 0 -0.000164368 0 0 0 0 0 0 0 0 0 0 0 0 0 0 0 0 0 81 0.002 
640 1 0.0112664 0.0643 -0.00215567 0 0 0 0.277516 -0.509158 -1.53471 0 -0.000164368 0 0 0 0 0 0 0 0 0 0 0 0 0 0 0 0 0 96 0.002 
290 2 0.00600523 0.0691186 0.00101993 0 0 0 -9.42398 -3.68981 1.45864 0 -0.000164368 0 0 0 0 0 0 0 0 0 0 0 0 0 0 0 0 0 133 0.002 
1508 4 0.00801526 0.0745512 -3.06128e-05 0 0 0 -4.23777 3.03125 -14.7262 -0.81198 -1.18361 1.08317 0 0 0 1 0 0 0 0 0 0 0 0 0 0 0 0 55 0.002 
1979 2 0.00364207 0.0467741 0.0331096 0 0 0 2.10211 3.49564 -5.99013 0 -0.000164368 0 0 0 0 0 0 0 0 0 0 0 0 0 0 0 0 0 0 0.002 
1337 4 0.0135762 0.0707238 0.0138484 0 0 0 -0.275717 -0.540413 -0.168649 0 -0.000164368 0 0 0 0 0 0 0 0 0 0 0 0 0 0 0 0 0 66 0.002 
601 8 0.0183547 0.0634283 0.0161077 0 0 0 0.356575 -0.743672 -0.250883 0 -0.000164368 0 0 0 0 0 0 0 0 0 0 0 0 0 0 0 0 0 153 0.002 
1158 12 0.0109531 0.0688193 0.0180544 0 0 0 -0.825582 0.419029 -1.00491 0 -0.000164368 0 0 0 0 0 0 0 0 0 0 0 0 0 0 0 0 0 120 0.002 
1443 3 0.00318216 0.0741548 0.0178221 0 0 0 0.03889 -0.202884 -0.0846677 0 -0.000164368 0 0 0 0 0 0 0 0 0 0 0 0 0 0 0 0 0 81 0.002 
1816 4 0.0159362 0.0735666 0.0186531 0 0 0 -0.205659 -0.490382 0.184426 0 -0.000164368 0 0 0 0 0 0 0 0 0 0 0 0 0 0 0 0 0 44 0.002 
1692 4 0.00723099 0.0632936 0.019673 0 0 0 -1.53788 2.30584 -1.00147 0.0392622 -0.0217262 -0.0432681 0 0 0 1 0 0 0 0 0 0 0 0 0 0 0 0 43 0.002 
848 13 0.00775075 0.0510753 0.0195574 0 0 0 4.69881 1.23471 -5.46481 0 -0.000164368 0 0 0 0 0 0 0 0 0 0 0 0 0 0 0 0 0 45 0.002 
1662 8 0.00966117 0.0605961 0.0181573 0 0 0 2.12956 5.2194 -5.96332 -0.0392622 0.0213974 0.0432681 0 0 0 1 0 0 0 0 0 0 0 0 0 0 0 0 37 0.002 
557 5 0.00300477 0.0594102 0.0245208 0 0 0 0.352295 0.602069 -1.83889 0 -0.000164368 0 0 0 0 0 0 0 0 0 0 0 0 0 0 0 0 0 124 0.002 
1773 5 0.00324495 0.0699287 0.0249533 0 0 0 -0.0193916 -0.251518 -0.0142337 0 -0.000164368 0 0 0 0 0 0 0 0 0 0 0 0 0 0 0 0 0 46 0.002 
257 6 0.0143448 0.0709137 0.02486 0 0 0 0.320152 0.21856 -0.171655 0 -0.000164368 0 0 0 0 0 0 0 0 0 0 0 0 0 0 0 0 0 115 0.002 
1628 6 0.00308967 0.0745816 0.0250003 0 0 0 0.0183734 -0.131536 0.0454828 0 -0.000164368 0 0 0 0 0 0 0 0 0 0 0 0 0 0 0 0 0 56 0.002 
1599 1 0.00805076 0.0621304 0.0259818 0 0 0 4.32737 8.7153 -0.583892 0.358791 -0.262663 -0.0307662 1 0 0 0 0 0 0 0 0 0 0 0 0 0 0 0 33 0.002 
1155 5 0.0127202 0.06605 0.0264977 0 0 0 0.354589 0.104446 -0.436747 0 -0.000164368 0 0 0 0 0 0 0 0 0 0 0 0 0 0 0 0 0 123 0.002 
1281 2 0.00704627 0.0689556 0.0263615 0 0 0 0.198865 -0.0634813 -0.0392471 0 -0.000164368 0 0 0 0 0 0 0 0 0 0 0 0 0 0 0 0 0 70 0.002 
1482 1 0.0182216 0.0690404 0.0272644 0 0 0 0.27361 -0.0254567 0.0873643 0 -0.000164368 0 0 0 0 0 0 0 0 0 0 0 0 0 0 0 0 0 96 0.002 
952 3 0.00493901 0.0721533 0.0278362 0 0 0 -0.0469208 -0.101352 0.00770598 0 -0.000164368 0 0 0 0 0 0 0 0 0 0 0 0 0 0 0 0 0 108 0.002 
1163 5 0.00910806 0.0741771 0.0264982 0 0 0 0.26601 0.0199083 -0.0717464 0 -0.000164368 0 0 0 0 0 0 0 0 0 0 0 0 0 0 0 0 0 121 0.002 
921 4 0.014081 0.0596485 0.0287574 0 0 0 0.402676 -0.236376 -0.227239 0 -0.000164368 0 0 0 0 0 0 0 0 0 0 0 0 0 0 0 0 0 9 0.002 
1666 9 0.00547567 0.0642143 0.0279248 0 0 0 -1.20331 0.733044 -0.354906 -0.358791 0.262335 0.0307662 1 0 0 0 0 0 0 0 0 0 0 0 0 0 0 0 61 0.002 
100 2 0.00313039 0.0687435 0.0289777 0 0 0 0.016499 -0.101174 -0.0587479 0 -0.000164368 0 0 0 0 0 0 0 0 0 0 0 0 0 0 0 0 0 44 0.002 
1514 10 0.00881042 0.0693164 0.0300209 0 0 0 0.104613 -0.136957 0.0367349 0 -0.000164368 0 0 0 0 0 0 0 0 0 0 0 0 0 0 0 0 0 65 0.002 
1477 6 0.0131802 0.068243 0.03005 0 0 0 0.0979501 -0.210277 -0.17645 0 -0.000164368 0 0 0 0 0 0 0 0 0 0 0 0 0 0 0 0 0 87 0.002 
783 3 0.0135289 0.0723073 0.0294458 0 0 0 0.12548 -0.307813 -0.0909247 0 -0.000164368 0 0 0 0 0 0 0 0 0 0 0 0 0 0 0 0 0 124 0.002 
1530 5 0.00464805 0.0521855 0.0289469 0 0 0 1.67046 1.11912 -2.75718 0 -0.000164368 0 0 0 0 0 0 0 0 0 0 0 0 0 0 0 0 0 69 0.002 
136 5 0.00642778 0.0545359 0.0317078 0 0 0 0.69458 -0.234876 0.018843 0 -0.000164368 0 0 0 0 0 0 0 0 0 0 0 0 0 0 0 0 0 95 0.002 
1279 4 0.0169489 0.0561629 0.0311687 0 0 0 0.113783 -1.05225 -0.288922 0 -0.000164368 0 0 0 0 0 0 0 0 0 0 0 0 0 0 0 0 0 68 0.002 
477 2 0.00339294 0.0591247 0.0314864 0 0 0 0.0767102 -0.318181 0.148581 0 -0.000164368 0 0 0 0 0 0 0 0 0 0 0 0 0 0 0 0 0 91 0.002 
294 1 0.00720225 0.0627513 0.0315822 0 0 0 0.0290697 -0.274464 -0.183432 0 -0.000164368 0 0 0 0 0 0 0 0 0 0 0 0 0 0 0 0 0 118 0.002 
1344 1 0.00299983 0.0641372 0.0322042 0 0 0 -0.0208104 -0.0561236 -0.101434 0.000795364 0.002859 0.00347975 0 0 0 0 0 0 0 0 0 0 0 0 0 0 0 0 67 0.002 
793 3 0.00615753 0.0670813 0.032021 0 0 0 0.0180263 -0.18775 -0.0989198 0 -0.000164368 0 0 0 0 0 0 0 0 0 0 0 0 0 0 0 0 0 65 0.002 
1180 3 0.0086284 0.0744192 0.0306341 0 0 0 -0.0349955 -0.0503759 -0.027162 2.01107e-05 7.09777e-05 -0.000105237 0 0 1 0 0 0 0 0 0 0 0 0 0 0 0 0 88 0.002 
1987 8 0.00426876 0.0455084 0.0281693 0 0 0 -1.77759 7.27609 -9.7876 0 -0.000164368 0 0 0 0 0 0 0 0 0 0 0 0 0 0 0 0 0 0 0.002 
384 6 0.0166334 0.0647541 0.0329521 0 0 0 0.460288 0.0332898 -0.127389 0 -0.000164368 0 0 0 0 0 0 0 0 0 0 0 0 0 0 0 0 0 137 0.002 
806 8 0.0106135 0.0668465 0.032945 0 0 0 -0.00598021 -0.00765107 -0.0408514 0 -0.000164368 0 0 0 0 0 0 0 0 0 0 0 0 0 0 0 0 0 128 0.002 
1322 2 0.00308957 0.0697122 0.032915 0 0 0 0.00063409 -0.200392 -0.0148624 0 -0.000164368 0 0 0 0 0 0 0 0 0 0 0 0 0 0 0 0 0 97 0.002 
391 4 0.0165256 0.0689417 0.0327215 0 0 0 0.132318 -0.114869 0.0359549 0 -0.000164368 0 0 0 0 0 0 0 0 0 0 0 0 0 0 0 0 0 122 0.002 
567 7 0.00675829 0.0716273 0.0327997 0 0 0 0.0551813 -0.114028 -0.00800534 -2.01107e-05 -0.000399714 0.000105237 0 0 1 0 0 0 0 0 0 0 0 0 0 0 0 0 117 0.002 
919 2 0.0117711 0.0712127 0.0328685 0 0 0 0.125025 -0.149444 -0.0151941 0 -0.000164368 0 0 0 0 0 0 0 0 0 0 0 0 0 0 0 0 0 102 0.002 
446 9 0.003398 0.0738155 0.0328486 0 0 0 -0.0382075 -0.179981 -0.0270558 0 -0.000164368 0 0 0 0 0 0 0 0 0 0 0 0 0 0 0 0 0 108 0.002 
343 2 0.0161362 0.072949 0.032878 0 0 0 -0.0230104 -0.133401 0.0610169 0 -0.000164368 0 0 0 0 0 0 0 0 0 0 0 0 0 0 0 0 0 133 0.002 
904 3 0.0156829 0.0868637 -0.0321355 0 0 0 2.77448 -1.78179 -0.507778 0 -0.000164368 0 0 0 0 0 0 0 0 0 0 0 0 0 0 0 0 0 66 0.002 
129 3 0.0146368 0.0936623 -0.0329951 0 0 0 0.130027 -0.264081 0.0194908 0 -0.000164368 0 0 0 0 0 0 0 0 0 0 0 0 0 0 0 0 0 76 0.002 
1775 1 0.0187349 0.0956662 -0.032997 0 0 0 0.213191 -0.382749 -0.0925623 0.00373834 -0.00336252 -0.00314229 1 0 0 0 0 0 0 0 0 0 0 0 0 0 0 0 41 0.002 
262 3 0.00921424 0.0979028 -0.0328264 0 0 0 -0.803004 -0.192349 0.333238 0 -0.000164368 0 0 0 0 0 0 0 0 0 0 0 0 0 0 0 0 0 98 0.002 
885 6 0.0156996 0.0982241 -0.0326495 0 0 0 0.264256 -0.191759 0.239818 -0.00388109 0.0030585 0.00309925 1 0 0 0 0 0 0 0 0 0 0 0 0 0 0 0 68 0.002 
1367 1 0.00442824 0.0993092 -0.0319674 0 0 0 0.00229525 -0.458108 -0.260541 0 -0.000164368 0 0 0 0 0 0 0 0 0 0 0 0 0 0 0 0 0 73 0.002 
389 5 0.0160445 0.102837 -0.0330125 0 0 0 0.477607 0.0939057 0.0202049 0.00361019 0.0029176 0.00994947 0 0 0 0 2 0 0 0 0 0 0 0 0 0 0 0 69 0.002 
1541 2 0.00345832 0.103905 -0.0328763 0 0 0 0.034974 -0.0834949 0.0427607 0 -0.000164368 0 0 0 0 0 0 0 0 0 0 0 0 0 0 0 0 0 39 0.002 
401 3 0.0106908 0.10387 -0.0328912 0 0 0 0.320556 -0.0133228 -0.126331 0 -0.000164368 0 0 0 0 0 0 0 0 0 0 0 0 0 0 0 0 0 40 0.002 
61 8 0.00809323 0.107651 -0.032831 0 0 0 0.114495 -0.0977521 0.0360293 0 -0.000164368 0 0 0 0 0 0 0 0 0 0 0 0 0 0 0 0 0 91 0.002 
765 1 0.0125058 0.10758 -0.0329818 0 0 0 0.1767 0.0787831 0.0252968 0 -0.000164368 0 0 0 0 0 0 0 0 0 0 0 0 0 0 0 0 0 115 0.002 
940 2 0.0038084 0.107842 -0.0321397 0 0 0 0.134514 -0.0247062 0.0923383 0 -0.000164368 0 0 0 0 0 0 0 0 0 0 0 0 0 0 0 0 0 111 0.002 
338 6 0.0170935 0.107914 -0.0330069 0 0 0 0.358399 0.0487467 -0.162048 -0.00495695 0.0182342 0.0239183 0 0 0 0 0 0 0 0 0 0 0 0 0 0 0 0 112 0.002 
985 4 0.0125833 0.108 0.00973877 0 0 0 0.0187113 0.00562564 0.0762848 0.000666913 0.00145965 0.00100725 0 0 0 2 0 0 0 0 0 0 0 0 0 0 0 0 87 0.002 
1674 4 0.0165994 0.0949734 -0.0296525 0 0 0 0.194135 -0.277338 0.101997 0 -0.000164368 0 0 0 0 0 0 0 0 0 0 0 0 0 0 0 0 0 28 0.002 
869 7 0.00795932 0.100673 -0.0299375 0 0 0 -0.126876 1.10976 0.148417 0 -0.000164368 0 0 0 0 0 0 0 0 0 0 0 0 0 0 0 0 0 117 0.002 
663 7 0.012996 0.101004 -0.0312154 0 0 0 0.544804 0.271702 0.30327 0.010937 -0.0127126 -0.0330387 0 0 0 0 1 0 1 0 0 0 0 0 0 0 0 0 104 0.002 
1268 9 0.0177271 0.101146 -0.0297212 0 0 0 0.376717 -0.242754 0.0641038 0.00148726 0.000936369 -0.00161054 0 0 0 0 0 0 0 0 1 0 0 0 0 0 0 0 85 0.002 
92 2 0.00861737 0.104727 -0.0294367 0 0 0 0.306018 -0.0109842 -0.251317 0 -0.000164368 0 0 0 0 0 0 0 0 0 0 0 0 0 0 0 0 0 124 0.002 
1358 8 0.0119871 0.0868398 -0.0274701 0 0 0 1.97391 -4.27737 2.71828 0 -0.000164368 0 0 0 0 0 0 0 0 0 0 0 0 0 0 0 0 0 68 0.002 
411 1 0.0113604 0.0948197 -0.0271913 0 0 0 0.229955 0.0526418 0.0626249 0 -0.000164368 0 0 0 0 0 0 0 0 0 0 0 0 0 0 0 0 0 59 0.002 
1484 2 0.0139921 0.0978593 -0.0285 0 0 0 0.275298 0.173004 -0.408619 0 -0.000164368 0 0 0 0 0 0 0 0 0 0 0 0 0 0 0 0 0 71 0.002 
1858 3 0.00474569 0.1028 -0.0286802 0 0 0 0.29446 0.381048 -0.345544 0 -0.000164368 0 0 0 0 0 0 0 0 0 0 0 0 0 0 0 0 0 25 0.002 
1178 2 0.011515 0.102083 -0.0276973 0 0 0 0.22592 0.214385 -0.0667836 -0.019404 0.00270999 0.0214069 0 1 0 0 0 0 1 0 0 0 0 0 0 0 0 0 69 0.002 
1658 1 0.0145028 0.10473 -0.0278022 0 0 0 0.257548 0.20005 0.105858 0.00196215 -0.00462545 0.00268886 2 1 0 0 0 0 0 0 0 0 0 0 0 0 0 0 45 0.002 
71 5 0.00364751 0.107889 -0.0281428 0 0 0 0.0271627 0.0174759 0.0658501 0 -0.000164368 0 0 0 0 0 0 0 0 0 0 0 0 0 0 0 0 0 33 0.002 
1389 4 0.0119635 0.108018 -0.0289029 0 0 0 0.263023 0.147822 -0.0736565 -0.0175346 -0.0536658 0.00908445 0 0 0 0 0 0 0 0 0 0 0 0 0 0 0 0 56 0.002 
1352 5 0.016434 0.108 -0.0290217 0 0 0 0.529962 -0.0366187 -0.0265244 -0.000551735 0.00807689 -0.0042077 1 0 0 0 0 0 0 0 0 0 0 0 0 0 0 0 75 0.002 
1271 4 0.00357252 0.0823997 -0.027987 0 0 0 0.437088 0.521945 -2.3345 0 -0.000164368 0 0 0 0 0 0 0 0 0 0 0 0 0 0 0 0 0 96 0.002 
1850 6 0.0171392 0.0808865 -0.024235 0 0 0 4.6061 -4.26358 3.27646 0 -0.000164368 0 0 0 0 0 0 0 0 0 0 0 0 0 0 0 0 0 32 0.002 
416 5 0.00410389 0.0920938 -0.0263001 0 0 0 0.481408 0.336796 -2.40787 -0.00187691 -0.229756 0.0761203 0 0 0 0 1 0 0 0 0 0 0 0 0 0 0 0 151 0.002 
360 2 0.014919 0.0892752 -0.0234301 0 0 0 3.59203 -0.684451 4.94889 0 -0.000164368 0 0 0 0 0 0 0 0 0 0 0 0 0 0 0 0 0 116 0.002 
1132 2 0.0158774 0.0932101 -0.0261325 0 0 0 -0.0611532 -0.431224 -0.00781269 0 -0.000164368 0 0 0 0 0 0 0 0 0 0 0 0 0 0 0 0 0 79 0.002 
1481 4 0.00370464 0.0959183 -0.025797 0 0 0 0.193332 0.312532 -0.433813 0.00187691 0.229428 -0.0761203 0 0 0 0 1 0 0 0 0 0 0 0 0 0 0 0 87 0.002 
187 7 0.00889235 0.0993163 -0.0262917 0 0 0 -0.243067 0.289687 -0.0330726 0 -0.000164368 0 0 0 0 0 0 0 0 0 0 0 0 0 0 0 0 0 43 0.002 
1483 5 0.0155034 0.101041 -0.0264027 0 0 0 0.273096 -0.0235057 -0.027651 -0.00148726 -0.00126511 0.00161054 0 0 0 0 0 0 0 0 1 0 0 0 0 0 0 0 68 0.002 
264 10 0.00333943 0.104581 -0.0244632 0 0 0 -0.119743 -0.0101511 0.479205 0 -0.000164368 0 0 0 0 0 0 0 0 0 0 0 0 0 0 0 0 0 124 0.002 
661 2 0.0184049 0.104987 -0.0269688 0 0 0 0.387073 -0.0264733 -0.266049 -0.000821149 -0.00429058 -0.00102354 1 1 0 0 0 0 0 0 0 0 0 0 0 0 0 0 131 0.002 
468 8 0.0102969 0.106092 -0.0258102 0 0 0 0.0986017 0.55041 0.0326628 0 -0.000164368 0 0 0 0 0 0 0 0 0 0 0 0 0 0 0 0 0 137 0.002 
1633 5 0.0138834 0.107889 -0.0253127 0 0 0 0.365731 0.184503 0.0252397 0 -0.000164368 0 0 0 0 0 0 0 0 0 0 0 0 0 0 0 0 0 58 0.002 
796 15 0.0102199 0.0756868 -0.0238917 0 0 0 1.61333 0.199992 -3.04765 0 -0.000164368 0 0 0 0 0 0 0 0 0 0 0 0 0 0 0 0 0 118 0.002 
1494 4 0.0141832 0.0933302 -0.0222759 0 0 0 0.33362 -0.438999 0.447529 0 -0.000164368 0 0 0 0 0 0 0 0 0 0 0 0 0 0 0 0 0 63 0.002 
325 6 0.00930832 0.0959459 -0.0231893 0 0 0 -0.623362 1.12741 0.143651 0.0305924 -0.00425781 0.0314146 0 0 0 0 0 1 0 0 0 0 0 0 0 0 0 0 90 0.002 
263 2 0.0064322 0.0987125 -0.0231057 0 0 0 -0.167298 0.892352 0.30916 -0.019778 -0.029353 -0.0275496 0 1 0 0 0 1 0 0 0 0 0 0 0 0 0 0 105 0.002 
1871 4 0.0169761 0.0977828 -0.0239227 0 0 0 -0.199696 0.131464 0.311705 0 -0.000164368 0 0 0 0 0 0 0 0 0 0 0 0 0 0 0 0 0 11 0.002 
1797 1 0.00680958 0.102453 -0.0244317 0 0 0 0.124102 0.127489 -0.246178 -0.0108144 0.0331177 -0.003865 0 1 0 0 0 0 0 0 0 0 0 0 0 0 0 0 15 0.002 
1984 2 0.0114351 0.10273 -0.023778 0 0 0 0.321373 0.479998 -0.078571 -0.0183325 -0.000514813 0.00472536 0 3 0 0 0 0 0 0 0 0 0 0 0 0 0 0 3 0.002 
375 4 0.0152212 0.102392 -0.0226282 0 0 0 0.207794 -0.00154603 0.154859 0.00153138 -0.00625682 0.010349 0 1 0 1 0 0 0 0 0 0 0 0 0 0 0 0 109 0.002 
300 1 0.00672411 0.106117 -0.0223873 0 0 0 -0.0501364 0.158278 0.149153 0.000821799 -0.00107925 -0.00183609 1 0 0 0 0 0 0 0 0 0 0 0 0 0 0 0 114 0.002 
782 1 0.0171749 0.10582 -0.0230852 0 0 0 0.261181 -0.0896574 0.0594809 0.00393853 -0.000299694 0.00345601 1 0 0 1 0 0 0 0 0 0 0 0 0 0 0 0 112 0.002 
1848 9 0.00582244 0.094148 -0.0208798 0 0 0 0.744676 -0.171827 -0.896206 0 -0.000164368 0 0 0 0 0 0 0 0 0 0 0 0 0 0 0 0 0 27 0.002 
972 3 0.00301018 0.0972473 -0.0214835 0 0 0 0.0372481 0.0665224 0.504725 0 -0.000164368 0 0 0 0 0 0 0 0 0 0 0 0 0 0 0 0 0 114 0.002 
1977 1 0.0104654 0.0995431 -0.021612 0 0 0 0.323841 0.70474 0.58099 -0.0103361 -0.0093745 0.00833896 0 1 0 0 0 0 0 0 0 0 0 0 0 0 0 0 1 0.002 
1649 3 0.00306724 0.101653 -0.021683 0 0 0 0.10126 0.306865 -0.324602 0 -0.000164368 0 0 0 0 0 0 0 0 0 0 0 0 0 0 0 0 0 23 0.002 
1456 8 0.00762504 0.102403 -0.0200049 0 0 0 0.0701725 -0.174749 0.0793998 0 -0.000164368 0 0 0 0 0 0 0 0 0 0 0 0 0 0 0 0 0 75 0.002 
826 5 0.00903527 0.107892 0.00787358 0 0 0 0.0184373 0.0379628 0.0580198 6.16047e-06 -0.000143178 -1.17488e-05 0 0 0 0 0 0 0 0 0 0 0 0 0 0 0 0 130 0.002 
1329 3 0.00302428 0.107678 -0.0217137 0 0 0 0.00839697 -0.136455 0.341771 0 -0.000164368 0 0 0 0 0 0 0 0 0 0 0 0 0 0 0 0 0 61 0.002 
703 3 0.0106681 0.106056 -0.0217168 0 0 0 -0.0706881 0.450249 -0.0283579 -0.0124549 -0.0172991 0.000105467 0 1 1 0 0 0 0 0 0 0 0 0 0 0 0 0 115 0.002 
1697 1 0.0141009 0.108017 -0.0213065 0 0 0 0.185618 -0.0168468 0.116868 -0.00343165 -0.0138337 0.00108098 0 0 1 0 0 0 0 0 0 0 0 0 0 0 0 0 36 0.002 
644 7 0.016191 0.0922711 -0.0185204 0 0 0 1.16987 -0.219731 -0.0674443 0 -0.000164368 0 0 0 0 0 0 0 0 0 0 0 0 0 0 0 0 0 135 0.002 
1175 4 0.00782795 0.0962285 -0.017752 0 0 0 0.156877 0.382936 -0.0159295 -0.00603269 -0.00378902 0.00301886 0 0 0 1 0 0 0 0 0 0 0 0 0 0 0 0 83 0.002 
1817 2 0.0113696 0.0948074 -0.019651 0 0 0 0.266817 0.567377 -0.842084 0 -0.000164368 0 0 0 0 0 0 0 0 0 0 0 0 0 0 0 0 0 17 0.002 
1668 1 0.0147607 0.0965221 -0.0182323 0 0 0 0.773406 0.428472 -0.31567 0 -0.000164368 0 0 0 0 0 0 0 0 0 0 0 0 0 0 0 0 0 46 0.002 
1597 4 0.00536246 0.0992328 -0.0189104 0 0 0 0.262399 0.326424 0.207971 0 -0.000164368 0 0 0 0 0 0 0 0 0 0 0 0 0 0 0 0 0 59 0.002 
1756 2 0.0124303 0.102523 -0.0196491 0 0 0 0.595906 0.22112 0.0204204 0 -0.000164368 0 0 0 0 0 0 0 0 0 0 0 0 0 0 0 0 0 39 0.002 
845 3 0.0030027 0.104274 -0.0183463 0 0 0 -0.0933642 0.0129339 0.144695 0 -0.000164368 0 0 0 0 0 0 0 0 0 0 0 0 0 0 0 0 0 115 0.002 
1369 12 0.0160655 0.104698 -0.0193863 0 0 0 0.407412 0.00489162 0.078446 0 -0.000164368 0 0 0 0 0 0 0 0 0 0 0 0 0 0 0 0 0 72 0.002 
738 5 0.00703116 0.107625 -0.0186971 0 0 0 0.165486 -0.0146389 0.141065 0.0010236 -0.000766386 -0.00373842 1 0 0 0 1 0 0 0 0 0 0 0 0 0 0 0 89 0.002 
1789 2 0.0110553 0.107918 -0.0181454 0 0 0 -0.0270034 -0.0871223 0.0359996 0 -0.000164368 0 0 0 0 0 0 0 0 0 0 0 0 0 0 0 0 0 37 0.002 
607 5 0.0183928 0.107961 -0.0198047 0 0 0 0.107442 0.121328 0.0482067 0 -0.000164368 0 0 0 0 0 0 0 0 0 0 0 0 0 0 0 0 0 103 0.002 
1361 5 0.00617497 0.0934953 -0.0152076 0 0 0 -0.540827 1.48902 1.49423 0 -0.000164368 0 0 0 0 0 0 0 0 0 0 0 0 0 0 0 0 0 58 0.002 
1748 11 0.00301649 0.0963152 -0.0171349 0 0 0 0.0310357 0.028015 -0.0819542 0 -0.000164368 0 0 0 0 0 0 0 0 0 0 0 0 0 0 0 0 0 23 0.002 
1424 3 0.011181 0.0983814 -0.0175225 0 0 0 0.237758 0.142339 0.0797701 -0.00537544 0.00472645 -0.0271752 0 0 1 1 0 0 0 0 0 0 0 0 0 0 0 0 76 0.002 
1245 2 0.00817297 0.100549 -0.0159662 0 0 0 0.0173217 -0.00777361 0.156569 0 -0.000164368 0 0 0 0 0 0 0 0 0 0 0 0 0 0 0 0 0 73 0.002 
1938 4 0.0185219 0.0984875 -0.0168991 0 0 0 0.16662 -0.122676 0.153773 0 -0.000164368 0 0 0 0 0 0 0 0 0 0 0 0 0 0 0 0 0 0 0.002 
1790 9 0.00300252 0.100858 -0.016097 0 0 0 -0.000519187 0.0487229 0.123782 0.00190386 -0.00339712 -0.00203511 0 0 0 0 0 0 0 0 1 0 0 0 0 0 0 0 10 0.002 
1232 7 0.0156287 0.100967 -0.0156032 0 0 0 0.116777 -0.118462 0.118311 0 -0.000164368 0 0 0 0 0 0 0 0 0 0 0 0 0 0 0 0 0 89 0.002 
1522 5 0.00648791 0.104177 -0.0163513 0 0 0 -0.0796828 0.00867038 0.224742 0 -0.000164368 0 0 0 0 0 0 0 0 0 0 0 0 0 0 0 0 0 72 0.002 
1107 3 0.0105287 0.104303 -0.0164673 0 0 0 -0.0466036 -0.0704651 -0.0491674 0 -0.000164368 0 0 0 0 0 0 0 0 0 0 0 0 0 0 0 0 0 70 0.002 
423 3 0.0186834 0.103862 -0.0163953 0 0 0 0.322878 -0.095973 0.20695 0 -0.000164368 0 0 0 0 0 0 0 0 0 0 0 0 0 0 0 0 0 115 0.002 
937 4 0.00303873 0.10796 -0.0167293 0 0 0 -0.104044 -0.0358806 0.331441 0 -0.000164368 0 0 0 0 0 0 0 0 0 0 0 0 0 0 0 0 0 106 0.002 
638 6 0.0149859 0.107995 -0.01731 0 0 0 0.00762611 -0.0149271 0.0462793 0 -0.000164368 0 0 0 0 0 0 0 0 0 0 0 0 0 0 0 0 0 88 0.002 
1382 2 0.0130788 0.0766501 -0.0144485 0 0 0 0.689595 0.810916 1.23022 0 -0.000164368 0 0 0 0 0 0 0 0 0 0 0 0 0 0 0 0 0 95 0.002 
1065 3 0.00299388 0.0892657 -0.0145905 0 0 0 0.161778 -0.851603 0.435925 -0.00702064 -0.00303031 0.00245695 0 0 0 0 0 0 0 0 0 0 0 0 0 0 0 0 90 0.002 
1066 1 0.0143629 0.0925881 -0.014545 0 0 0 0.434137 -0.610987 -0.518924 0 -0.000164368 0 0 0 0 0 0 0 0 0 0 0 0 0 0 0 0 0 87 0.002 
1030 1 0.00569428 0.0978701 -0.0143092 0 0 0 0.0565052 -0.0415682 0.189281 0 -0.000164368 0 0 0 0 0 0 0 0 0 0 0 0 0 0 0 0 0 101 0.002 
130 1 0.0127304 0.0981926 -0.0138729 0 0 0 0.423247 -0.124602 0.045111 0.0114081 -0.00143053 0.0241564 0 0 1 0 0 0 0 0 0 0 0 0 0 0 0 0 138 0.002 
1127 2 0.0117729 0.102176 -0.0132854 0 0 0 0.0361274 -0.102648 0.0320271 0.000824683 0.000925112 -0.00106521 0 2 0 0 0 0 0 0 0 0 0 0 0 0 0 0 99 0.002 
1576 5 0.00299133 0.104366 -0.0141896 0 0 0 -0.0844388 0.0262499 0.138405 0.0185657 -0.0215449 -0.00465021 0 0 0 0 1 0 0 0 1 0 0 0 0 0 0 0 37 0.002 
831 4 0.0142703 0.104771 -0.0150136 0 0 0 0.0338553 -0.0425059 -0.00868821 -0.000227144 8.61854e-05 0.000277565 0 1 0 0 0 0 0 0 0 0 0 0 0 0 0 0 87 0.002 
1886 9 0.0175719 0.107643 -0.0142629 0 0 0 -0.0162393 0.0417026 0.11239 0 -0.000164368 0 0 0 0 0 0 0 0 0 0 0 0 0 0 0 0 0 2 0.002 
1298 1 0.00655981 0.107906 -0.014747 0 0 0 0.062837 0.00869513 0.158735 -0.00516355 0.00436135 -0.00309671 1 0 0 0 1 0 0 0 0 0 0 0 0 0 0 0 84 0.002 
3 2 0.0120283 0.107952 -0.0140027 0 0 0 0.0633369 0.0134021 0.193673 0 -0.000164368 0 0 0 0 0 0 0 0 0 0 0 0 0 0 0 0 0 32 0.002 
1092 4 0.0120127 0.0832537 -0.0129729 0 0 0 0.361146 0.0382045 -1.25564 0 -0.000164368 0 0 0 0 0 0 0 0 0 0 0 0 0 0 0 0 0 100 0.002 
1185 6 0.00330081 0.0838938 -0.011543 0 0 0 -0.289837 -1.55519 -0.172259 0 -0.000164368 0 0 0 0 0 0 0 0 0 0 0 0 0 0 0 0 0 64 0.002 
205 3 0.00311769 0.0932457 -0.0109405 0 0 0 0.136279 0.192221 -0.22672 0 -0.000164368 0 0 0 0 0 0 0 0 0 0 0 0 0 0 0 0 0 49 0.002 
1953 1 0.00810969 0.0970737 -0.0111501 0 0 0 -0.157062 -0.0208333 0.448647 0 -0.000164368 0 0 0 0 0 0 0 0 0 0 0 0 0 0 0 0 0 2 0.002 
1423 7 0.00302479 0.0991574 -0.0108161 0 0 0 -0.351399 0.107963 0.0451062 0 -0.000164368 0 0 0 0 0 0 0 0 0 0 0 0 0 0 0 0 0 69 0.002 
1952 1 0.00615862 0.101934 -0.0127225 0 0 0 -0.048926 -0.157868 0.00939863 0 -0.000164368 0 0 0 0 0 0 0 0 0 0 0 0 0 0 0 0 0 7 0.002 
892 5 0.00890683 0.105258 -0.0128693 0 0 0 0.00184118 -0.148469 0.112525 -0.000691581 0.00164143 -0.00196333 0 0 0 0 1 0 0 0 0 0 0 0 0 0 0 0 102 0.002 
475 2 0.0172904 0.103146 -0.0126711 0 0 0 0.032555 -0.0616356 0.130743 0.000181623 -6.42121e-06 0.000267176 0 1 0 0 0 0 0 0 0 0 0 0 0 0 0 0 104 0.002 
1735 8 0.013717 0.105541 -0.0111032 0 0 0 0.00250805 -0.0527374 0.0825216 0 -0.000164368 0 0 0 0 0 0 0 0 0 0 0 0 0 0 0 0 0 26 0.002 
1218 8 0.00308092 0.108017 -0.0125986 0 0 0 0.0448503 -0.00972175 0.0798194 -0.000741384 -0.0159592 0.00313014 0 0 0 0 1 0 0 2 0 0 0 0 0 0 0 0 110 0.002 
1865 3 0.00662258 0.107897 -0.0107598 0 0 0 0.0810977 0.0668521 0.131946 0.00223056 -0.00409776 0.00115396 1 0 1 0 0 0 0 1 0 0 0 0 0 0 0 0 13 0.002 
399 3 0.00906401 0.0854537 -0.0102145 0 0 0 0.264662 0.311299 -1.57254 0 -0.000164368 0 0 0 0 0 0 0 0 0 0 0 0 0 0 0 0 0 134 0.002 
1980 1 0.00589037 0.0879378 -0.00921194 0 0 0 0.364784 0.744296 -1.14971 0 -0.000164368 0 0 0 0 0 0 0 0 0 0 0 0 0 0 0 0 0 0 0.002 
183 9 0.00793434 0.093545 -0.00879795 0 0 0 -0.0131688 0.365277 -0.270343 0 -0.000164368 0 0 0 0 0 0 0 0 0 0 0 0 0 0 0 0 0 128 0.002 
1328 5 0.0164914 0.0951364 -0.00895756 0 0 0 -0.157212 -0.14571 0.0455769 0 -0.000164368 0 0 0 0 0 0 0 0 0 0 0 0 0 0 0 0 0 72 0.002 
1712 11 0.0102906 0.100265 -0.0101039 0 0 0 0.0248275 0.00115456 0.0759648 -0.000597539 -0.0015044 0.000787644 0 1 0 0 0 0 0 0 0 0 0 0 0 0 0 0 30 0.002 
524 5 0.0179939 0.0998637 -0.0101899 0 0 0 0.146504 -0.0591624 -0.114394 0 -0.000164368 0 0 0 0 0 0 0 0 0 0 0 0 0 0 0 0 0 124 0.002 
1573 9 0.00671616 0.101803 -0.0087411 0 0 0 0.0618858 -0.0486997 0.00841329 0 -0.000164368 0 0 0 0 0 0 0 0 0 0 0 0 0 0 0 0 0 25 0.002 
1791 4 0.014354 0.101528 -0.0102382 0 0 0 0.121585 -0.00381059 0.0266477 -0.000308039 0.00214005 -0.000792773 0 0 0 1 0 0 0 0 0 0 0 0 0 0 0 0 17 0.002 
1901 5 0.00374602 0.104261 -0.0101616 0 0 0 0.196123 0.100255 0.4519 0 -0.000164368 0 0 0 0 0 0 0 0 0 0 0 0 0 0 0 0 0 15 0.002 
1768 10 0.00988812 0.104245 -0.00913037 0 0 0 0.0164467 0.0529213 0.12606 -0.00342522 -0.00388107 -0.00321683 0 0 0 0 1 0 0 0 0 3 0 0 0 0 0 0 42 0.002 
684 1 0.016934 0.104499 -0.00892448 0 0 0 0.0295918 -0.0306011 0.138027 0.00114003 -0.000277306 -0.00215777 3 1 0 0 0 0 0 0 0 0 0 0 0 0 0 0 101 0.002 
583 1 0.00312217 0.108002 -0.00860096 0 0 0 0.00113965 0.0269238 0.155811 0.000218371 -0.00496526 -0.00325928 0 0 0 0 0 0 0 1 0 0 0 0 0 0 0 0 121 0.002 
1745 3 0.0106302 0.108005 -0.0102349 0 0 0 -0.00690426 0.123305 0.106223 -0.00599605 -0.0123883 -0.0061589 0 0 0 0 0 0 0 0 0 1 0 0 0 0 0 0 33 0.002 
323 7 0.018485 0.107993 -0.0103039 0 0 0 0.0134178 -0.0145898 0.0362319 0 -0.000164368 0 0 0 0 0 0 0 0 0 0 0 0 0 0 0 0 0 131 0.002 
272 2 0.0153488 0.0781557 -0.00480488 0 0 0 -2.15021 2.07086 3.83667 0 -0.000164368 0 0 0 0 0 0 0 0 0 0 0 0 0 0 0 0 0 114 0.002 
1313 5 0.0114171 0.0880029 -0.00747457 0 0 0 -0.380813 -0.264664 -0.43141 0 -0.000164368 0 0 0 0 0 0 0 0 0 0 0 0 0 0 0 0 0 95 0.002 
901 9 0.00302579 0.0905135 -0.00773674 0 0 0 0.0575828 0.270605 0.134249 0 -0.000164368 0 0 0 0 0 0 0 0 0 0 0 0 0 0 0 0 0 122 0.002 
1264 1 0.00498467 0.0967088 -0.00791496 0 0 0 0.0956517 0.179966 0.00691961 0 -0.000164368 0 0 0 0 0 0 0 0 0 0 0 0 0 0 0 0 0 80 0.002 
322 2 0.00975375 0.0976782 -0.006242 0 0 0 0.118781 -0.0618191 0.0631587 0.000198321 -0.00332111 0.00138457 0 1 0 0 0 0 0 0 0 0 0 0 0 0 0 0 135 0.002 
702 1 0.0132258 0.0982532 -0.00824732 0 0 0 0.141725 0.0201934 0.0584329 0.000308039 -0.00246879 0.000792773 0 0 0 1 0 0 0 0 0 0 0 0 0 0 0 0 76 0.002 
207 2 0.0168035 0.0988207 -0.00650782 0 0 0 0.252017 0.0653701 -0.00709046 -0.000654722 -0.000298044 5.00305e-05 0 1 0 0 0 0 0 0 0 0 0 0 0 0 0 0 108 0.002 
1640 2 0.00304068 0.100847 -0.00714989 0 0 0 0.0476933 0.0316598 0.0814407 0 -0.000164368 0 0 0 0 0 0 0 0 0 0 0 0 0 0 0 0 0 53 0.002 
1126 4 0.0176606 0.107993 0.00790671 0 0 0 0.0349447 0.0164519 0.0609641 0 -0.000164368 0 0 0 0 0 0 0 0 0 0 0 0 0 0 0 0 0 108 0.002 
787 3 0.0133466 0.104551 -0.00716462 0 0 0 0.0283945 -0.0253293 0.0863005 -0.000104583 -0.000787278 0.00230123 1 0 3 0 0 0 0 0 0 1 0 0 0 0 0 0 124 0.002 
1823 7 0.00780721 0.107938 -0.0069522 0 0 0 0.00767511 -0.0318634 0.117106 0.00212498 0.000472712 0.00889347 0 0 1 0 0 0 0 0 0 0 0 0 0 0 0 0 22 0.002 
1219 5 0.0150285 0.108006 -0.0082383 0 0 0 0.0501169 -0.0162027 0.0325417 0.00161675 -0.0012413 0.00110001 0 0 1 0 0 0 0 0 0 0 0 0 0 0 0 0 69 0.002 
1539 7 0.00402245 0.0835429 -0.00503387 0 0 0 0.330195 -0.0188747 -1.02081 0 -0.000164368 0 0 0 0 0 0 0 0 0 0 0 0 0 0 0 0 0 73 0.002 
1783 11 0.00702428 0.0906905 -0.00589038 0 0 0 0.154434 0.0207338 0.0607927 0 -0.000164368 0 0 0 0 0 0 0 0 0 0 0 0 0 0 0 0 0 30 0.002 
1125 6 0.0112942 0.0936206 -0.00595823 0 0 0 0.015717 -0.00938183 -0.135556 0 -0.000164368 0 0 0 0 0 0 0 0 0 0 0 0 0 0 0 0 0 70 0.002 
688 1 0.0150968 0.0917753 -0.00494986 0 0 0 -0.719519 0.0191236 0.0104189 0 -0.000164368 0 0 0 0 0 0 0 0 0 0 0 0 0 0 0 0 0 99 0.002 
26 9 0.00659703 0.0944036 -0.00398 0 0 0 0.205309 0.00737491 0.0967775 0 -0.000164368 0 0 0 0 0 0 0 0 0 0 0 0 0 0 0 0 0 142 0.002 
936 2 0.018357 0.09539 -0.00514214 0 0 0 0.014356 -0.0571063 0.00436851 -0.0035114 0.0037686 3.39557e-05 0 1 0 0 0 0 0 0 0 0 0 0 0 0 0 0 27 0.002 
1518 7 0.00301141 0.0961428 -0.00447043 0 0 0 0.0748792 -0.0432107 0.0375397 0 -0.000164368 0 0 0 0 0 0 0 0 0 0 0 0 0 0 0 0 0 79 0.002 
778 4 0.0134027 0.0973791 -0.00407324 0 0 0 0.227469 -0.143248 0.0333351 -1.86357e-05 -0.000280781 0.000474912 0 0 0 2 0 0 0 0 0 0 0 0 0 0 0 0 116 0.002 
996 2 0.00643612 0.0998372 -0.00524265 0 0 0 -0.0257348 0.0205362 0.0881712 0 -0.000164368 0 0 0 0 0 0 0 0 0 0 0 0 0 0 0 0 0 97 0.002 
989 4 0.00996134 0.101663 -0.00609282 0 0 0 0.0392306 -0.0494328 0.0966494 0.000898822 -0.00317756 0.000791032 0 1 0 1 0 0 0 0 0 1 0 0 0 0 0 0 94 0.002 
1415 2 0.0138817 0.101236 -0.00500337 0 0 0 0.0824301 -0.0910761 0.0486346 -0.000458939 -0.000695712 0.000695731 0 0 1 1 0 0 0 0 0 0 0 0 0 0 0 0 62 0.002 
1935 3 0.00308571 0.105209 -0.00573586 0 0 0 0.0205466 0.0271288 0.0631059 -6.28388e-05 -0.000149446 -0.000659726 0 0 2 0 0 0 0 0 0 0 0 0 0 0 0 0 7 0.002 
103 5 0.00707024 0.104318 -0.00536299 0 0 0 -0.00984551 -0.0581728 0.0181885 -0.00257137 0.00105668 0.00155834 0 0 0 1 0 0 0 0 0 0 0 0 0 0 0 0 62 0.002 
1553 1 0.0153277 0.106677 -0.00442313 0 0 0 0.0214076 -0.049511 0.102031 0.00111401 -0.00106527 0.000706499 2 0 1 0 0 0 0 0 0 0 0 0 0 0 0 0 42 0.002 
1387 4 0.0117356 0.107997 -0.00590854 0 0 0 -0.00900292 -0.0126522 0.086278 0 -0.000164368 0 0 0 0 0 0 0 0 0 0 0 0 0 0 0 0 0 86 0.002 
56 7 0.018466 0.0797141 0.000281501 0 0 0 1.88734 0.570458 0.288997 0 -0.000164368 0 0 0 0 0 0 0 0 0 0 0 0 0 0 0 0 0 129 0.002 