ITEM: TIMESTEP
4650000
ITEM: NUMBER OF ATOMS
563
ITEM: BOX BOUNDS ff ff ff
-0.01 0.45
-0.15 0.15
-0.08 0.1
ITEM: ATOMS id type x y z ix iy iz vx vy vz fx fy fz c_cc_1 c_cc_2 c_cc_3 c_cc_4 c_cc_5 c_cc_6 c_cc_7 c_cc_8 c_cc_9 c_cc_10 c_cc_11 c_cc_12 c_cc_13 c_cc_14 c_cc_15 c_cc_16 f_fppacc radius 
318 4 0.00633385 -0.057282 0.00831019 0 0 0 2.33789 2.2652 18.308 0.0899824 0.602472 -0.142504 0 0 0 0 0 0 0 0 0 0 0 0 0 0 0 0 1 0.002 
556 7 0.0142777 -0.0145475 -0.0554938 0 0 0 -1.16413 -19.4817 3.86372 0 -0.000164368 0 0 0 0 0 0 0 0 0 0 0 0 0 0 0 0 0 0 0.002 
107 2 0.0175884 -0.0335038 -0.0436832 0 0 0 -0.778736 -13.8393 9.85157 0 -0.000164368 0 0 0 0 0 0 0 0 0 0 0 0 0 0 0 0 0 5 0.002 
141 5 0.00906871 -0.0364684 -0.0442638 0 0 0 2.63054 -10.3043 18.1154 0 -0.000164368 0 0 0 0 0 0 0 0 0 0 0 0 0 0 0 0 0 9 0.002 
568 1 0.00358183 -0.0111141 -0.0567549 0 0 0 0.116754 -41.5834 6.29601 0 -0.000164368 0 0 0 0 0 0 0 0 0 0 0 0 0 0 0 0 0 0 0.002 
250 5 0.00598273 0.0332939 0.0311018 0 0 0 -0.863425 -1.21553 -0.102203 0 -0.000164368 0 0 0 0 0 0 0 0 0 0 0 0 0 0 0 0 0 11 0.002 
41 1 0.0151326 0.0528516 -0.0355 0 0 0 -3.11116e-255 -2.02842e-20 -3.36615e-12 3.37875e-255 0 0 0 0 0 0 0 0 0 0 0 0 0 0 0 0 0 0 1 0.002 
564 8 0.0108521 0.0657204 -0.027034 0 0 0 -0.377967 -0.0945773 2.1917 0 -0.000164368 0 0 0 0 0 0 0 0 0 0 0 0 0 0 0 0 0 0 0.002 
315 1 0.00495036 0.04451 -0.0285486 0 0 0 0.561553 2.57485 -6.68422 0 -0.000164368 0 0 0 0 0 0 0 0 0 0 0 0 0 0 0 0 0 2 0.002 
77 12 0.0146864 0.0653357 -0.0197194 0 0 0 -0.639679 -5.02342 1.27963 0 -0.000164368 0 0 0 0 0 0 0 0 0 0 0 0 0 0 0 0 0 5 0.002 
179 1 0.00646093 0.0473573 -0.0151607 0 0 0 -0.291545 -1.75236 2.06542 0 -0.000164368 0 0 0 0 0 0 0 0 0 0 0 0 0 0 0 0 0 5 0.002 
428 8 0.0124073 0.0668296 0.00731535 0 0 0 -0.664799 -0.286348 -0.908419 0 -0.000164368 0 0 0 0 0 0 0 0 0 0 0 0 0 0 0 0 0 2 0.002 
241 6 0.0162782 0.0716342 -0.000158617 0 0 0 -0.725878 -0.86253 -1.02861 0 -0.000164368 0 0 0 0 0 0 0 0 0 0 0 0 0 0 0 0 0 6 0.002 
566 3 0.0134417 0.0722127 0.0152716 0 0 0 -1.52334 -0.396433 -0.897606 0 -0.000164368 0 0 0 0 0 0 0 0 0 0 0 0 0 0 0 0 0 0 0.002 
62 2 0.0137579 0.0697185 0.0206664 0 0 0 -0.446543 -1.40199 -0.273041 0 -0.000164368 0 0 0 0 0 0 0 0 0 0 0 0 0 0 0 0 0 4 0.002 
434 14 0.00500327 0.0687369 0.0223027 0 0 0 -0.534088 -0.400778 -0.0387976 0 -0.000164368 0 0 0 0 0 0 0 0 0 0 0 0 0 0 0 0 0 1 0.002 
441 3 0.00391698 0.0621909 0.0245908 0 0 0 0.147986 -0.625462 -0.0228473 0 -0.000164368 0 0 0 0 0 0 0 0 0 0 0 0 0 0 0 0 0 2 0.002 
313 1 0.00969948 0.0665016 0.0242388 0 0 0 0.32972 -0.975902 0.804859 0 -0.000164368 0 0 0 0 0 0 0 0 0 0 0 0 0 0 0 0 0 2 0.002 
483 1 0.013321 0.0723651 0.0241535 0 0 0 0.21832 -0.321228 -0.418311 0 -0.000164368 0 0 0 0 0 0 0 0 0 0 0 0 0 0 0 0 0 2 0.002 
333 2 0.00667327 0.0654615 0.0272331 0 0 0 -0.149172 -1.05123 0.966876 0 -0.000164368 0 0 0 0 0 0 0 0 0 0 0 0 0 0 0 0 0 3 0.002 
331 7 0.00324953 0.0607138 0.0288762 0 0 0 -0.020229 -0.584058 0.0108727 0 -0.000164368 0 0 0 0 0 0 0 0 0 0 0 0 0 0 0 0 0 7 0.002 
389 5 0.0102769 0.0635172 0.0280369 0 0 0 0.304905 -0.447718 0.0164895 0 -0.000164368 0 0 0 0 0 0 0 0 0 0 0 0 0 0 0 0 0 3 0.002 
535 3 0.0163834 0.0707235 0.0285079 0 0 0 -1.72256 0.444476 -0.572225 0 -0.000164368 0 0 0 0 0 0 0 0 0 0 0 0 0 0 0 0 0 1 0.002 
230 6 0.0133698 0.0559569 0.0307229 0 0 0 -3.14021 9.57273 -5.63688 0.179754 -0.0770106 -0.345534 0 0 0 0 0 1 0 0 0 0 0 0 0 0 0 0 5 0.002 
337 8 0.00336152 0.0551554 0.0300958 0 0 0 -0.572945 -0.737033 -0.425054 0 -0.000164368 0 0 0 0 0 0 0 0 0 0 0 0 0 0 0 0 0 10 0.002 
343 2 0.00686772 0.0560929 0.0324966 0 0 0 -0.445718 -1.04082 0.562452 0 -0.000164368 0 0 0 0 0 0 0 0 0 0 0 0 0 0 0 0 0 0 0.002 
496 2 0.00352442 0.0690228 0.0321894 0 0 0 0.101724 -0.699578 0.0651869 0 -0.000164368 0 0 0 0 0 0 0 0 0 0 0 0 0 0 0 0 0 0 0.002 
314 6 0.0107782 0.0735874 0.0307885 0 0 0 -0.670715 -0.417735 -0.0531403 0 -0.000164368 0 0 0 0 0 0 0 0 0 0 0 0 0 0 0 0 0 1 0.002 
70 6 0.00901035 0.0418036 0.0326923 0 0 0 -0.116271 -1.14443 -0.0171057 0 -0.000164368 0 0 0 0 0 0 0 0 0 0 0 0 0 0 0 0 0 4 0.002 
539 8 0.0107972 0.0575395 0.0327992 0 0 0 -8.34297 7.05286 2.24182 -0.179754 0.0766818 0.345534 0 0 0 0 0 1 0 0 0 0 0 0 0 0 0 0 1 0.002 
404 6 0.00510456 0.0646448 0.0325125 0 0 0 0.154867 -0.407961 -0.164698 0 -0.000164368 0 0 0 0 0 0 0 0 0 0 0 0 0 0 0 0 0 4 0.002 
401 3 0.0113463 0.0667346 0.0327843 0 0 0 0.346828 -0.165959 -0.14929 0 -0.000164368 0 0 0 0 0 0 0 0 0 0 0 0 0 0 0 0 0 1 0.002 
198 6 0.00819028 0.05404 0.0251539 0 0 0 -5.41839 18.9737 -23.1664 0 -0.000164368 0 0 0 0 0 0 0 0 0 0 0 0 0 0 0 0 0 3 0.002 
493 5 0.0167038 0.048842 0.0245316 0 0 0 -5.3589 2.86986 -20.9317 0 -0.000164368 0 0 0 0 0 0 0 0 0 0 0 0 0 0 0 0 0 3 0.002 
164 4 0.0118852 0.0925027 -0.0323587 0 0 0 -3.78386 2.42152 2.69146 0 -0.000164368 0 0 0 0 0 0 0 0 0 0 0 0 0 0 0 0 0 3 0.002 
391 4 0.00475313 0.0964672 -0.0319576 0 0 0 1.61088 2.77872 2.99593 0 -0.000164368 0 0 0 0 0 0 0 0 0 0 0 0 0 0 0 0 0 6 0.002 
438 2 0.012604 0.106561 -0.0316394 0 0 0 0.105599 -0.582112 0.457273 0 -0.000164368 0 0 0 0 0 0 0 0 0 0 0 0 0 0 0 0 0 4 0.002 
145 6 0.0180247 0.0932077 0.00244447 0 0 0 -1.89615 1.1544 2.22808 0 -0.000164368 0 0 0 0 0 0 0 0 0 0 0 0 0 0 0 0 0 4 0.002 
176 2 0.0101931 0.104514 -0.0284669 0 0 0 0.511301 -0.378662 1.43121 0 -0.000164368 0 0 0 0 0 0 0 0 0 0 0 0 0 0 0 0 0 2 0.002 
178 10 0.0182007 0.106801 -0.0271932 0 0 0 0.25414 -0.701158 2.05365 0 -0.000164368 0 0 0 0 0 0 0 0 0 0 0 0 0 0 0 0 0 4 0.002 
464 6 0.0140624 0.107766 -0.0268901 0 0 0 -1.40546 -1.14332 0.455073 0 -0.000164368 0 0 0 0 0 0 0 0 0 0 0 0 0 0 0 0 0 1 0.002 
116 1 0.00970128 0.0913362 -0.0256617 0 0 0 -1.49085 -4.16546 0.0761123 0 -0.000164368 0 0 0 0 0 0 0 0 0 0 0 0 0 0 0 0 0 3 0.002 
295 2 0.0115206 0.0826025 -0.0227733 0 0 0 1.41909 3.90766 -5.25735 0 -0.000164368 0 0 0 0 0 0 0 0 0 0 0 0 0 0 0 0 0 1 0.002 
236 3 0.0113132 0.0995361 -0.0204129 0 0 0 1.43847 -1.40247 1.33076 0 -0.000164368 0 0 0 0 0 0 0 0 0 0 0 0 0 0 0 0 0 1 0.002 
286 14 0.00522637 0.0986945 -0.019016 0 0 0 -0.284024 -0.740016 0.926186 0 -0.000164368 0 0 0 0 0 0 0 0 0 0 0 0 0 0 0 0 0 6 0.002 
514 8 0.0101738 0.105456 -0.0151842 0 0 0 0.842364 -0.688433 -0.15642 0 -0.000164368 0 0 0 0 0 0 0 0 0 0 0 0 0 0 0 0 0 0 0.002 
423 3 0.00452891 0.0856801 -0.0104485 0 0 0 0.947726 -1.80864 0.877416 0 -0.000164368 0 0 0 0 0 0 0 0 0 0 0 0 0 0 0 0 0 2 0.002 
415 4 0.00622012 0.0960347 -0.0135664 0 0 0 0.196474 4.38429 -6.18712 0 -0.000164368 0 0 0 0 0 0 0 0 0 0 0 0 0 0 0 0 0 3 0.002 
502 6 0.0151868 0.103244 -0.00795734 0 0 0 -10.7983 -8.07496 2.8943 -0.0877114 -0.232668 0.0690018 0 0 0 0 0 1 0 0 0 0 0 0 0 0 0 0 2 0.002 
462 8 0.0123917 0.0885326 -0.00594924 0 0 0 -0.0051489 -1.12955 -0.254122 0 -0.000164368 0 0 0 0 0 0 0 0 0 0 0 0 0 0 0 0 0 2 0.002 
508 9 0.0168412 0.0998931 -0.00417431 0 0 0 2.84771 -1.258 0.66194 0 -0.000164368 0 0 0 0 0 0 0 0 0 0 0 0 0 0 0 0 0 2 0.002 
29 5 0.00657081 0.0940275 -0.00266301 0 0 0 0.579247 -0.560914 2.27391 0 -0.000164368 0 0 0 0 0 0 0 0 0 0 0 0 0 0 0 0 0 7 0.002 
416 5 0.0130509 0.0918082 0.00295683 0 0 0 0.0351584 -0.342717 -1.89415 0 -0.000164368 0 0 0 0 0 0 0 0 0 0 0 0 0 0 0 0 0 2 0.002 
537 1 0.00473559 0.0949076 0.0045211 0 0 0 1.59194 8.0205 -3.81959 0 -0.000164368 0 0 0 0 0 0 0 0 0 0 0 0 0 0 0 0 0 0 0.002 
139 6 0.0110724 0.0969242 0.00464901 0 0 0 2.81012 2.53082 -2.24705 0 -0.000164368 0 0 0 0 0 0 0 0 0 0 0 0 0 0 0 0 0 6 0.002 
95 5 0.0167024 0.0767877 0.00780214 0 0 0 1.23693 -1.17512 -0.855673 0 -0.000164368 0 0 0 0 0 0 0 0 0 0 0 0 0 0 0 0 0 6 0.002 
426 3 0.00580829 0.100762 0.00979504 0 0 0 -1.48288 8.82109 0.601583 0 -0.000164368 0 0 0 0 0 0 0 0 0 0 0 0 0 0 0 0 0 3 0.002 
263 2 0.0144536 0.107625 0.00962636 0 0 0 0.320874 -0.365798 2.1167 0 -0.000164368 0 0 0 0 0 0 0 0 0 0 0 0 0 0 0 0 0 2 0.002 
433 9 0.00309425 0.0763267 -0.0206749 0 0 0 2.56869 1.59501 -8.20836 0 -0.000164368 0 0 0 0 0 0 0 0 0 0 0 0 0 0 0 0 0 0 0.002 
523 2 0.0153892 0.106926 -0.0076608 0 0 0 -16.4092 -1.76654 13.9402 0.0877114 0.23234 -0.0690018 0 0 0 0 0 1 0 0 0 0 0 0 0 0 0 0 1 0.002 
204 7 0.0181873 0.103105 -0.0109228 0 0 0 -9.07121 0.240872 4.48056 0 -0.000164368 0 0 0 0 0 0 0 0 0 0 0 0 0 0 0 0 0 4 0.002 
305 5 0.0114809 0.0839379 0.00983524 0 0 0 3.83214 7.11541 -3.80023 0 -0.000164368 0 0 0 0 0 0 0 0 0 0 0 0 0 0 0 0 0 8 0.002 
355 5 0.0186058 0.0765773 0.0262463 0 0 0 -0.841448 -0.308251 -0.152094 0 -0.000164368 0 0 0 0 0 0 0 0 0 0 0 0 0 0 0 0 0 5 0.002 
283 10 0.00615684 0.106862 0.010831 0 0 0 0.262714 -0.291537 -0.111898 0 -0.000164368 0 0 0 0 0 0 0 0 0 0 0 0 0 0 0 0 0 0 0.002 
481 2 0.00374631 0.0890113 0.0146492 0 0 0 0.109689 -1.02752 0.536828 0 -0.000164368 0 0 0 0 0 0 0 0 0 0 0 0 0 0 0 0 0 0 0.002 
185 5 0.0137093 0.102274 0.0130932 0 0 0 0.191231 -0.120139 -0.39497 0 -0.000164368 0 0 0 0 0 0 0 0 0 0 0 0 0 0 0 0 0 4 0.002 
144 9 0.0122288 0.0926888 0.0152537 0 0 0 -0.0597748 -1.12608 0.368874 0 -0.000164368 0 0 0 0 0 0 0 0 0 0 0 0 0 0 0 0 0 7 0.002 
383 6 0.0162427 0.092146 0.0148066 0 0 0 0.567119 0.537815 -1.06364 0 -0.000164368 0 0 0 0 0 0 0 0 0 0 0 0 0 0 0 0 0 1 0.002 
447 1 0.00866051 0.105459 0.0146795 0 0 0 -0.315054 -0.0756991 -0.338621 0 -0.000164368 0 0 0 0 0 0 0 0 0 0 0 0 0 0 0 0 0 2 0.002 
390 4 0.0141232 0.107802 0.0160098 0 0 0 -0.502541 0.182239 0.168908 0 -0.000164368 0 0 0 0 0 0 0 0 0 0 0 0 0 0 0 0 0 2 0.002 
551 10 0.00965725 0.0900263 0.0191502 0 0 0 0.252736 -0.539816 0.685923 0 -0.000164368 0 0 0 0 0 0 0 0 0 0 0 0 0 0 0 0 0 0 0.002 
323 7 0.00855445 0.094192 0.0191924 0 0 0 0.684289 -0.711833 0.968015 0 -0.000164368 0 0 0 0 0 0 0 0 0 0 0 0 0 0 0 0 0 4 0.002 
324 5 0.00572646 0.101951 0.018935 0 0 0 -0.0367352 -0.16674 0.32102 0 -0.000164368 0 0 0 0 0 0 0 0 0 0 0 0 0 0 0 0 0 3 0.002 
477 2 0.0030098 0.10479 0.0169275 0 0 0 -0.00386698 -0.127963 0.0728202 0 -0.000164368 0 0 0 0 0 0 0 0 0 0 0 0 0 0 0 0 0 1 0.002 
411 1 0.00618755 0.107795 0.0168127 0 0 0 0.0734461 -0.0711488 -0.00405582 0 -0.000164368 0 0 0 0 0 0 0 0 0 0 0 0 0 0 0 0 0 3 0.002 
86 6 0.0154324 0.0932594 0.020461 0 0 0 0.0724349 0.0285448 0.00977103 0 -0.000164368 0 0 0 0 0 0 0 0 0 0 0 0 0 0 0 0 0 3 0.002 
188 6 0.00531588 0.0976218 0.0206895 0 0 0 0.143909 0.00458163 0.234828 0.0018125 -0.000643502 -0.000844373 0 0 0 0 0 1 0 0 0 0 0 0 0 0 0 0 8 0.002 
444 3 0.00944613 0.104268 0.0195258 0 0 0 0.0422304 -0.0565264 -0.125069 0 -0.000164368 0 0 0 0 0 0 0 0 0 0 0 0 0 0 0 0 0 2 0.002 
84 8 0.00302713 0.107806 0.0204419 0 0 0 -0.0218697 0.0847117 0.0709435 -0.000674867 -0.000282568 -0.00114126 0 0 0 0 0 0 0 0 0 0 0 0 0 0 0 0 2 0.002 
321 7 0.0154116 0.106166 0.0195786 0 0 0 0.44758 0.484695 0.409678 0 -0.000164368 0 0 0 0 0 0 0 0 0 0 0 0 0 0 0 0 0 1 0.002 
399 3 0.00365116 0.093726 0.0229208 0 0 0 0.220787 -0.511244 0.129712 0 -0.000164368 0 0 0 0 0 0 0 0 0 0 0 0 0 0 0 0 0 5 0.002 
384 6 0.0139837 0.0975124 0.0213495 0 0 0 0.656617 0.054768 -0.0509587 0 -0.000164368 0 0 0 0 0 0 0 0 0 0 0 0 0 0 0 0 0 4 0.002 
334 2 0.00300971 0.0992914 0.0234902 0 0 0 0.00303981 0.0111772 0.149602 -0.0018125 0.000314766 0.000844373 0 0 0 0 0 1 0 0 0 0 0 0 0 0 0 0 3 0.002 
133 1 0.0117991 0.102436 0.0225736 0 0 0 0.0249291 -0.118481 -0.0380385 0 -0.000164368 0 0 0 0 0 0 0 0 0 0 0 0 0 0 0 0 0 7 0.002 
377 4 0.00356013 0.103232 0.0221364 0 0 0 -0.139744 -0.0509714 0.00890075 0 -0.000164368 0 0 0 0 0 0 0 0 0 0 0 0 0 0 0 0 0 6 0.002 
533 4 0.0156796 0.10383 0.0230227 0 0 0 0.024332 0.0752751 -0.150403 0 -0.000164368 0 0 0 0 0 0 0 0 0 0 0 0 0 0 0 0 0 0 0.002 
495 8 0.00605645 0.106958 0.0229088 0 0 0 -0.0214791 -0.00770357 0.00917813 0.000586636 2.49763e-05 0.00082577 0 0 0 0 0 0 0 1 0 0 0 0 0 0 0 0 1 0.002 
386 1 0.00326499 0.0820913 0.0239187 0 0 0 0.0362509 -0.294514 -0.313937 0 -0.000164368 0 0 0 0 0 0 0 0 0 0 0 0 0 0 0 0 0 2 0.002 
457 6 0.0130542 0.0872362 0.0244896 0 0 0 0.537244 -0.144074 -0.297785 0 -0.000164368 0 0 0 0 0 0 0 0 0 0 0 0 0 0 0 0 0 1 0.002 
207 2 0.00638705 0.0981819 0.0256933 0 0 0 0.0358958 -0.214948 0.0374178 0 -0.000164368 0 0 0 0 0 0 0 0 0 0 0 0 0 0 0 0 0 5 0.002 
199 4 0.00817799 0.10179 0.0245913 0 0 0 -0.0777746 -0.137991 -0.0690413 0 -0.000164368 0 0 0 0 0 0 0 0 0 0 0 0 0 0 0 0 0 8 0.002 
261 1 0.00314773 0.105616 0.0254611 0 0 0 0.00611941 0.0191809 0.0686064 0 -0.000164368 0 0 0 0 0 0 0 0 0 0 0 0 0 0 0 0 0 3 0.002 
206 6 0.0125593 0.105501 0.0254011 0 0 0 -0.0152148 -0.0686912 -0.00410327 0 -0.000164368 0 0 0 0 0 0 0 0 0 0 0 0 0 0 0 0 0 4 0.002 
322 2 0.00994884 0.107905 0.023509 0 0 0 0.0282682 -0.0333939 -0.04419 0 -0.000164368 0 0 0 0 0 0 0 0 0 0 0 0 0 0 0 0 0 5 0.002 
134 2 0.00307277 0.0765619 0.0275435 0 0 0 0.410701 -0.0807852 -0.151382 0 -0.000164368 0 0 0 0 0 0 0 0 0 0 0 0 0 0 0 0 0 0 0.002 
405 3 0.0174378 0.0801246 0.0281397 0 0 0 1.08392 -0.283753 0.383479 0 -0.000164368 0 0 0 0 0 0 0 0 0 0 0 0 0 0 0 0 0 2 0.002 
522 2 0.0164359 0.099824 0.0273889 0 0 0 0.0625488 0.0111224 0.0258601 0 -0.000164368 0 0 0 0 0 0 0 0 0 0 0 0 0 0 0 0 0 1 0.002 
468 8 0.00299648 0.101509 0.0268473 0 0 0 -0.064622 -0.0183192 0.149771 0.00829922 -0.00240092 -0.00349529 0 0 0 0 0 0 0 0 0 0 0 0 0 0 0 0 4 0.002 
521 6 0.0116963 0.101665 0.0269121 0 0 0 0.0648924 -0.0351981 -0.0985957 0 -0.000164368 0 0 0 0 0 0 0 0 0 0 0 0 0 0 0 0 0 2 0.002 
16 3 0.00619397 0.104029 0.0275685 0 0 0 0.018286 -0.0185747 0.0023497 0 -0.000164368 0 0 0 0 0 0 0 0 0 0 0 0 0 0 0 0 0 9 0.002 
479 9 0.00687138 0.107931 0.0267003 0 0 0 0.00216423 -0.0394781 0.0155173 0.000103197 -0.000234444 0.000289929 0 0 0 0 0 0 0 1 1 0 0 0 0 0 0 0 4 0.002 
111 3 0.00331873 0.0882971 0.0282365 0 0 0 -0.172299 -0.0986809 0.363933 0 -0.000164368 0 0 0 0 0 0 0 0 0 0 0 0 0 0 0 0 0 3 0.002 
536 2 0.0119379 0.0904813 0.0282141 0 0 0 0.218516 -0.354631 0.412926 0 -0.000164368 0 0 0 0 0 0 0 0 0 0 0 0 0 0 0 0 0 0 0.002 
54 6 0.0176735 0.0898474 0.0285655 0 0 0 -0.239767 -0.124143 -0.0297929 0 -0.000164368 0 0 0 0 0 0 0 0 0 0 0 0 0 0 0 0 0 1 0.002 
130 1 0.0130607 0.095666 0.0280835 0 0 0 0.0254666 -0.287605 -0.0431033 0 -0.000164368 0 0 0 0 0 0 0 0 0 0 0 0 0 0 0 0 0 3 0.002 
329 7 0.0182111 0.0940411 0.0290271 0 0 0 0.160147 0.0148835 0.1062 0 -0.000164368 0 0 0 0 0 0 0 0 0 0 0 0 0 0 0 0 0 2 0.002 
288 1 0.00313439 0.0978149 0.0284789 0 0 0 0.0358805 -0.034289 0.109637 0 -0.000164368 0 0 0 0 0 0 0 0 0 0 0 0 0 0 0 0 0 2 0.002 
480 3 0.00820366 0.0996433 0.0290024 0 0 0 0.0384305 -0.174714 0.0404659 0 -0.000164368 0 0 0 0 0 0 0 0 0 0 0 0 0 0 0 0 0 4 0.002 
451 1 0.00910551 0.103386 0.0302582 0 0 0 0.0101787 -0.136452 0.0353537 0 -0.000164368 0 0 0 0 0 0 0 0 0 0 0 0 0 0 0 0 0 2 0.002 
540 4 0.0149595 0.103464 0.0284595 0 0 0 -0.059867 -0.111358 -0.158466 0 -0.000164368 0 0 0 0 0 0 0 0 0 0 0 0 0 0 0 0 0 2 0.002 
278 11 0.0107255 0.107686 0.0288196 0 0 0 0.0598688 -0.0651717 0.0740822 0 -0.000164368 0 0 0 0 0 0 0 0 0 0 0 0 0 0 0 0 0 2 0.002 
112 6 0.00309504 0.107985 0.028691 0 0 0 -0.0139796 -0.0206513 0.0968635 0 -0.000164368 0 0 0 0 0 0 0 0 0 0 0 0 0 0 0 0 0 6 0.002 
332 2 0.014775 0.107786 0.0282696 0 0 0 0.0898258 -0.0607813 0.00975012 0 -0.000164368 0 0 0 0 0 0 0 0 0 0 0 0 0 0 0 0 0 8 0.002 
369 6 0.0174587 0.0809108 0.0321559 0 0 0 -0.233292 0.370786 0.743952 0 -0.000164368 0 0 0 0 0 0 0 0 0 0 0 0 0 0 0 0 0 5 0.002 
460 2 0.00717329 0.0842038 0.0326378 0 0 0 0.359974 -0.411001 0.56425 0 -0.000164368 0 0 0 0 0 0 0 0 0 0 0 0 0 0 0 0 0 6 0.002 
453 3 0.0112089 0.0942768 0.0314864 0 0 0 0.30995 0.251836 0.493472 0 -0.000164368 0 0 0 0 0 0 0 0 0 0 0 0 0 0 0 0 0 0 0.002 
200 9 0.00583048 0.0975049 0.031507 0 0 0 0.058683 -0.11284 0.0848393 0 -0.000164368 0 0 0 0 0 0 0 0 0 0 0 0 0 0 0 0 0 5 0.002 
300 1 0.00305154 0.103491 0.0304385 0 0 0 -0.00414475 0.0675635 0.190965 -0.00600989 0.00220557 -0.00661773 1 0 0 0 0 0 0 0 0 0 0 0 0 0 0 0 4 0.002 
229 6 0.00660811 0.107716 0.0306853 0 0 0 0.00759742 -0.0317536 0.0178648 0.000542442 -7.27785e-05 -0.000997334 0 0 0 0 0 1 0 0 1 0 0 0 0 0 0 0 8 0.002 
289 3 0.00316268 0.0865006 0.0329089 0 0 0 0.0423983 -0.251328 -0.0495621 0 -0.000164368 0 0 0 0 0 0 0 0 0 0 0 0 0 0 0 0 0 2 0.002 
216 2 0.0141422 0.0980406 0.0330003 0 0 0 -0.0543 -0.266294 -0.00110269 6.25261e-07 -0.000154087 -2.05997e-05 0 0 0 0 0 0 0 0 0 0 0 0 0 0 0 0 5 0.002 
309 1 0.00341679 0.100345 0.0329751 0 0 0 0.0403591 -0.0679956 -0.00707889 0 -0.000164368 0 0 0 0 0 0 0 0 0 0 0 0 0 0 0 0 0 6 0.002 
393 11 0.00930919 0.100065 0.0328459 0 0 0 -0.0394154 -0.192415 -0.00452285 0 -0.000164368 0 0 0 0 0 0 0 0 0 0 0 0 0 0 0 0 0 4 0.002 
245 1 0.015998 0.102765 0.0329953 0 0 0 -0.0172577 -0.122409 0.00198196 0 -0.000164368 0 0 0 0 0 0 0 0 0 0 0 0 0 0 0 0 0 3 0.002 
108 2 0.00610785 0.103897 0.032978 0 0 0 -0.0528067 -0.0301178 -0.000422218 0.00600989 -0.00253431 0.00661773 1 0 0 0 0 0 0 0 0 0 0 0 0 0 0 0 9 0.002 
208 9 0.0122181 0.104306 0.0327407 0 0 0 -0.0859123 -0.16784 0.144097 0 -0.000164368 0 0 0 0 0 0 0 0 0 0 0 0 0 0 0 0 0 10 0.002 
417 1 0.00333587 0.107627 0.0329776 0 0 0 -0.00589566 0.00353116 0.012645 -0.000557409 -0.000257027 0.00102289 0 0 0 0 0 1 0 0 0 0 0 0 0 0 0 0 4 0.002 
254 10 0.00989036 0.107752 0.0329953 0 0 0 0.0126206 -0.0196169 -0.00324036 0 -0.000164368 0 0 0 0 0 0 0 0 0 0 0 0 0 0 0 0 0 11 0.002 
60 4 0.0154948 0.10732 0.0328719 0 0 0 -0.0558277 -0.0348042 -0.0141132 0 -0.000164368 0 0 0 0 0 0 0 0 0 0 0 0 0 0 0 0 0 5 0.002 
516 2 0.0203189 -0.0486139 -0.0315767 0 0 0 -2.40929 -25.9416 41.4351 0.0176211 1.44652 0.650282 0 0 0 0 0 0 0 0 0 0 0 0 0 0 0 0 0 0.002 
562 3 0.0403537 -0.0551507 0.0176253 0 0 0 2.80805 7.32004 28.5055 0.338998 0.66058 -0.224132 0 0 0 0 0 0 0 0 0 0 0 0 0 0 0 0 0 0.002 
554 3 0.0409257 0.0286765 0.0501294 0 0 0 19.7695 32.7922 -18.6938 0 -0.000164368 0 0 0 0 0 0 0 0 0 0 0 0 0 0 0 0 0 0 0.002 
146 9 0.0474262 0.0176679 0.0372462 0 0 0 -2.31743e-05 74.4925 -35.3359 -6.18521e-07 -1.18412 -2.49627 0 0 0 0 0 0 0 0 0 0 0 0 0 0 0 0 0 0.002 
270 1 0.0202981 0.0512016 -0.0355 0 0 0 -3.44093e-254 1.4527e-19 6.71697e-12 1.08129e-254 0 0 0 0 0 0 0 0 0 0 0 0 0 0 0 0 0 0 0 0.002 
79 1 0.042653 0.0514688 -0.0355017 0 0 0 -2.32346e-15 1.36749e-15 -1.962e-12 3.33067e-16 3.33067e-16 0 1 0 0 0 0 0 0 0 0 0 0 0 0 0 0 0 5 0.002 
127 3 0.0250786 0.0534193 -0.0355 0 0 0 1.5082e-176 -4.05377e-20 -4.47967e-12 -5.24975e-177 0 0 0 0 0 0 0 0 0 0 0 0 0 0 0 0 0 0 2 0.002 
45 4 0.0454495 0.0535593 -0.0354983 0 0 0 1.88945e-15 -1.02558e-15 -1.96187e-12 -1.11022e-16 -3.33067e-16 0 1 0 0 0 0 0 0 0 0 0 0 0 0 0 0 0 7 0.002 
276 4 0.0334451 0.0547355 -0.0355 0 0 0 -2.82434e-91 -8.12045e-20 -5.66734e-13 -2.83625e-94 0 0 0 0 0 0 0 0 0 0 0 0 0 0 0 0 0 0 0 0.002 
48 3 0.0234912 0.0573284 -0.0355 0 0 0 1.84713e-177 4.05616e-20 -5.56932e-13 1.98767e-178 0 0 0 0 0 0 0 0 0 0 0 0 0 0 0 0 0 0 0 0.002 
52 2 0.0282372 0.0584422 -0.0355 0 0 0 -2.2258e-308 -6.09859e-20 -5.6133e-12 2.33612e-308 0 3.55271e-15 0 0 0 0 0 0 0 0 0 0 0 0 0 0 0 0 0 0.002 
351 1 0.0418493 0.056691 -0.0355 0 0 0 -1.70046e-239 8.10371e-20 2.24227e-12 2.84502e-239 1.35525e-20 -3.55271e-15 0 0 0 0 0 0 0 0 0 0 0 0 0 0 0 0 0 0.002 
39 3 0.0456708 0.0647354 -0.0355 0 0 0 -2.87201e-94 -3.93921e-23 -6.16524e-12 -2.51307e-94 1.35525e-20 0 0 0 0 0 0 0 0 0 0 0 0 0 0 0 0 0 0 0.002 
565 3 0.0340151 0.0725088 -0.0321864 0 0 0 4.46723 -0.984551 0.869478 -1.28927 0.383101 -0.359679 0 0 1 0 0 0 0 0 0 0 0 0 0 0 0 0 1 0.002 
53 3 0.0220026 0.0593216 -0.0250385 0 0 0 5.7587 -7.71362 11.4503 0 -0.000164368 0 0 0 0 0 0 0 0 0 0 0 0 0 0 0 0 0 3 0.002 
368 5 0.0216426 0.0470357 -0.0267704 0 0 0 1.92399 -4.26087 2.9933 0 -0.000164368 0 0 0 0 0 0 0 0 0 0 0 0 0 0 0 0 0 1 0.002 
410 6 0.0313982 0.05218 -0.0232889 0 0 0 4.03252 -1.78567 -0.907029 0 -0.000164368 0 0 0 0 0 0 0 0 0 0 0 0 0 0 0 0 0 2 0.002 
193 8 0.037692 0.0719921 -0.0312566 0 0 0 -1.85894 -0.526116 -20.0493 1.28927 -0.383429 0.359679 0 0 1 0 0 0 0 0 0 0 0 0 0 0 0 0 8 0.002 
472 3 0.0210583 0.0580062 -0.011269 0 0 0 -8.14987 -7.95989 8.3181 0 -0.000164368 0 0 0 0 0 0 0 0 0 0 0 0 0 0 0 0 0 1 0.002 
440 5 0.029281 0.0601087 -0.0129834 0 0 0 -3.76552 -3.92862 2.92233 0 -0.000164368 0 0 0 0 0 0 0 0 0 0 0 0 0 0 0 0 0 1 0.002 
545 9 0.0210679 0.0729737 0.00199383 0 0 0 0.128509 -0.518025 -1.67588 0 -0.000164368 0 0 0 0 0 0 0 0 0 0 0 0 0 0 0 0 0 0 0.002 
541 6 0.0338648 0.0736303 0.0119365 0 0 0 1.27888 -1.65955 1.41962 0 -0.000164368 0 0 0 0 0 0 0 0 0 0 0 0 0 0 0 0 0 1 0.002 
260 1 0.0467409 0.0558497 0.0135008 0 0 0 -0.26087 -0.80792 -0.692111 0 -0.000164368 0 0 0 0 0 0 0 0 0 0 0 0 0 0 0 0 0 11 0.002 
58 1 0.0473062 0.0747762 0.0133016 0 0 0 0.122453 -0.450242 -0.353528 0 -0.000164368 0 0 0 0 0 0 0 0 0 0 0 0 0 0 0 0 0 3 0.002 
131 7 0.031539 0.0674201 0.0141282 0 0 0 3.72439 3.44012 -4.2574 0 -0.000164368 0 0 0 0 0 0 0 0 0 0 0 0 0 0 0 0 0 5 0.002 
543 1 0.0202266 0.0733903 0.0185299 0 0 0 -3.13967 5.21163 -0.873165 0 -0.000164368 0 0 0 0 0 0 0 0 0 0 0 0 0 0 0 0 0 0 0.002 
544 2 0.0203294 0.0683563 0.0224358 0 0 0 1.05911 0.312667 -0.262989 0 -0.000164368 0 0 0 0 0 0 0 0 0 0 0 0 0 0 0 0 0 2 0.002 
221 16 0.0392012 0.057428 0.0257396 0 0 0 -0.103316 -0.911494 0.180795 0 -0.000164368 0 0 0 0 0 0 0 0 0 0 0 0 0 0 0 0 0 3 0.002 
213 4 0.0363254 0.0664229 0.0240477 0 0 0 -0.32174 -0.731962 0.205733 0 -0.000164368 0 0 0 0 0 0 0 0 0 0 0 0 0 0 0 0 0 3 0.002 
126 2 0.0309797 0.0624176 0.0262254 0 0 0 -0.0547802 -1.06379 -0.192782 0 -0.000164368 0 0 0 0 0 0 0 0 0 0 0 0 0 0 0 0 0 5 0.002 
210 4 0.038845 0.0643493 0.0268393 0 0 0 -0.480606 -0.726526 0.204728 0 -0.000164368 0 0 0 0 0 0 0 0 0 0 0 0 0 0 0 0 0 8 0.002 
122 5 0.045886 0.071493 0.02629 0 0 0 -0.576465 0.4787 -0.178304 0 -0.000164368 0 0 0 0 0 0 0 0 0 0 0 0 0 0 0 0 0 5 0.002 
515 5 0.0269568 0.0737596 0.0278059 0 0 0 -0.269201 -0.743769 -0.113437 0 -0.000164368 0 0 0 0 0 0 0 0 0 0 0 0 0 0 0 0 0 2 0.002 
517 2 0.0224295 0.0497778 0.0285627 0 0 0 2.76207 1.40536 -4.46796 0 -0.000164368 0 0 0 0 0 0 0 0 0 0 0 0 0 0 0 0 0 0 0.002 
402 1 0.046167 0.0584384 0.0281701 0 0 0 -1.12517 1.06756 0.153802 0 -0.000164368 0 0 0 0 0 0 0 0 0 0 0 0 0 0 0 0 0 3 0.002 
450 2 0.0412041 0.0675366 0.0288106 0 0 0 -0.52723 -0.26742 0.0241977 0 -0.000164368 0 0 0 0 0 0 0 0 0 0 0 0 0 0 0 0 0 1 0.002 
381 2 0.037804 0.0746628 0.02831 0 0 0 0.0672978 0.198014 -0.0027552 0 -0.000164368 0 0 0 0 0 0 0 0 0 0 0 0 0 0 0 0 0 6 0.002 
203 3 0.0276941 0.0475816 0.0313326 0 0 0 0.153772 -1.37959 -0.561272 0 -0.000164368 0 0 0 0 0 0 0 0 0 0 0 0 0 0 0 0 0 6 0.002 
485 2 0.0418896 0.0532156 0.0307812 0 0 0 -1.89552 -1.24912 0.0755635 0 -0.000164368 0 0 0 0 0 0 0 0 0 0 0 0 0 0 0 0 0 0 0.002 
242 6 0.0275265 0.0589759 0.0318312 0 0 0 0.574822 -0.0950324 -0.272783 0 -0.000164368 0 0 0 0 0 0 0 0 0 0 0 0 0 0 0 0 0 7 0.002 
526 2 0.036805 0.0595342 0.0318783 0 0 0 -0.181353 -1.27091 -0.511238 0 -0.000164368 0 0 0 0 0 0 0 0 0 0 0 0 0 0 0 0 0 0 0.002 
68 9 0.0453598 0.0631993 0.0313748 0 0 0 0.221501 -0.907672 -0.0971508 0 -0.000164368 0 0 0 0 0 0 0 0 0 0 0 0 0 0 0 0 0 12 0.002 
387 10 0.0382523 0.0655858 0.0311936 0 0 0 -0.778314 -0.864145 -0.386589 0 -0.000164368 0 0 0 0 0 0 0 0 0 0 0 0 0 0 0 0 0 3 0.002 
365 10 0.0290981 0.0687472 0.0321178 0 0 0 0.278136 -0.475172 -0.149917 0 -0.000164368 0 0 0 0 0 0 0 0 0 0 0 0 0 0 0 0 0 2 0.002 
408 3 0.0404597 0.0699173 0.0321027 0 0 0 -0.230957 -0.52233 0.498975 0 -0.000164368 0 0 0 0 0 0 0 0 0 0 0 0 0 0 0 0 0 6 0.002 
364 3 0.0414869 0.0743212 0.0321607 0 0 0 -0.178581 -0.144332 -0.292347 0 -0.000164368 0 0 0 0 0 0 0 0 0 0 0 0 0 0 0 0 0 6 0.002 
456 8 0.0451233 0.0732127 0.0306739 0 0 0 -0.0347839 -0.0732318 -0.0220904 0 -0.000164368 0 0 0 0 0 0 0 0 0 0 0 0 0 0 0 0 0 0 0.002 
252 6 0.0296918 0.0624596 0.0324917 0 0 0 -0.205727 -0.856506 -0.0188299 0 -0.000164368 0 0 0 0 0 0 0 0 0 0 0 0 0 0 0 0 0 0 0.002 
167 2 0.0449084 0.0698296 0.032973 0 0 0 -0.275893 -0.0757372 -0.0487368 0 -0.000164368 0 0 0 0 0 0 0 0 0 0 0 0 0 0 0 0 0 3 0.002 
512 7 0.0232685 0.0730009 0.0330169 0 0 0 -0.561292 -0.197299 -0.241812 0.00245632 0.00188863 -0.00640259 0 0 0 0 0 0 0 0 0 0 0 0 0 0 0 0 1 0.002 
224 5 0.0293918 0.0743487 0.0328478 0 0 0 -0.925316 0.156277 -0.13032 0 -0.000164368 0 0 0 0 0 0 0 0 0 0 0 0 0 0 0 0 0 9 0.002 
253 2 0.0354576 0.0729889 0.0327532 0 0 0 -0.202449 0.296306 -0.253905 0 -0.000164368 0 0 0 0 0 0 0 0 0 0 0 0 0 0 0 0 0 3 0.002 
373 7 0.0456523 0.0986606 -0.0318497 0 0 0 0.0744817 -0.819226 -0.329123 0.0417396 0.0171393 -0.00754978 0 0 0 0 0 0 1 0 0 0 0 0 0 0 0 0 1 0.002 
572 3 0.0269959 0.101877 -0.032083 0 0 0 2.07636 1.57431 3.8214 0 -0.000164368 0 0 0 0 0 0 0 0 0 0 0 0 0 0 0 0 0 0 0.002 
2 6 0.0433781 0.102434 -0.0321615 0 0 0 -1.11554 -1.44724 1.38144 0 -0.000164368 0 0 0 0 0 0 0 0 0 0 0 0 0 0 0 0 0 1 0.002 
455 1 0.0383328 0.107679 -0.0328447 0 0 0 -1.82011 0.0774987 0.748101 0 -0.000164368 0 0 0 0 0 0 0 0 0 0 0 0 0 0 0 0 0 3 0.002 
418 1 0.0273574 0.089471 -0.0288144 0 0 0 1.97963 7.1478 2.1099 0 -0.000164368 0 0 0 0 0 0 0 0 0 0 0 0 0 0 0 0 0 6 0.002 
370 4 0.0439695 0.0953295 -0.030629 0 0 0 0.427073 -1.93951 0.563873 -0.0417396 -0.017468 0.00754978 0 0 0 0 0 0 1 0 0 0 0 0 0 0 0 0 6 0.002 
74 5 0.0418396 0.0989595 -0.0291922 0 0 0 -0.722389 -0.37424 0.194336 0 -0.000164368 0 0 0 0 0 0 0 0 0 0 0 0 0 0 0 0 0 2 0.002 
419 10 0.0388515 0.101439 -0.0306135 0 0 0 -3.04903 -1.54116 1.3872 0 -0.000164368 0 0 0 0 0 0 0 0 0 0 0 0 0 0 0 0 0 5 0.002 
380 3 0.0415255 0.106117 -0.0307783 0 0 0 0.994569 0.102042 -1.7007 0 -0.000164368 0 0 0 0 0 0 0 0 0 0 0 0 0 0 0 0 0 0 0.002 
490 2 0.0450127 0.0994685 -0.0256905 0 0 0 -0.0563545 -5.29598 5.81636 0 -0.000164368 0 0 0 0 0 0 0 0 0 0 0 0 0 0 0 0 0 0 0.002 
492 4 0.0249469 0.108012 -0.0310334 0 0 0 -7.10934 -2.56264 -7.09402 -0.0183786 0.249857 -0.0225638 0 0 0 0 0 0 0 0 0 0 0 0 0 0 0 0 1 0.002 
507 6 0.0282352 0.106154 -0.0273315 0 0 0 -7.66245 -2.31716 0.628214 0 -0.000164368 0 0 0 0 0 0 0 0 0 0 0 0 0 0 0 0 0 0 0.002 
561 6 0.0218339 0.107945 -0.0256543 0 0 0 0.41867 -0.268166 2.98598 0 -0.000164368 0 0 0 0 0 0 0 0 0 0 0 0 0 0 0 0 0 0 0.002 
243 5 0.040241 0.102781 -0.0244763 0 0 0 -5.76875 -4.97266 3.71813 0 -0.000164368 0 0 0 0 0 0 0 0 0 0 0 0 0 0 0 0 0 2 0.002 
34 3 0.0358181 0.107713 -0.0268034 0 0 0 -7.59197 -0.211264 -2.3165 0 -0.000164368 0 0 0 0 0 0 0 0 0 0 0 0 0 0 0 0 0 4 0.002 
301 5 0.0414083 0.104727 -0.019803 0 0 0 -0.785933 -0.609503 0.429918 0 -0.000164368 0 0 0 0 0 0 0 0 0 0 0 0 0 0 0 0 0 1 0.002 
392 1 0.0337503 0.106925 -0.021599 0 0 0 -1.34908 -0.307494 -0.58282 0 -0.000164368 0 0 0 0 0 0 0 0 0 0 0 0 0 0 0 0 0 4 0.002 
296 2 0.0209225 0.0816818 -0.0286849 0 0 0 -10.2675 8.0977 -18.3441 0 -0.000164368 0 0 0 0 0 0 0 0 0 0 0 0 0 0 0 0 0 4 0.002 
459 5 0.025961 0.0973258 -0.0192812 0 0 0 0.443747 -1.23228 -1.56531 0 -0.000164368 0 0 0 0 0 0 0 0 0 0 0 0 0 0 0 0 0 1 0.002 
487 3 0.0426175 0.0987596 -0.0164854 0 0 0 1.98275 -2.01108 5.3406 0 -0.000164368 0 0 0 0 0 0 0 0 0 0 0 0 0 0 0 0 0 1 0.002 
5 3 0.0197393 0.0962119 -0.0287834 0 0 0 4.40385 0.226096 0.0601124 0 -0.000164368 0 0 0 0 0 0 0 0 0 0 0 0 0 0 0 0 0 1 0.002 
173 3 0.0343322 0.107551 -0.0164891 0 0 0 -1.7034 -0.329573 0.191328 0 -0.000164368 0 0 0 0 0 0 0 0 0 0 0 0 0 0 0 0 0 3 0.002 
171 3 0.0247203 0.0771178 -0.014835 0 0 0 1.07178 0.247329 -1.61955 0 -0.000164368 0 0 0 0 0 0 0 0 0 0 0 0 0 0 0 0 0 3 0.002 
9 6 0.0263452 0.0968116 -0.0152419 0 0 0 1.42822 1.40426 0.921084 0 -0.000164368 0 0 0 0 0 0 0 0 0 0 0 0 0 0 0 0 0 7 0.002 
244 1 0.0285144 0.106696 -0.0131788 0 0 0 -0.329276 -0.554173 2.42088 0 -0.000164368 0 0 0 0 0 0 0 0 0 0 0 0 0 0 0 0 0 0 0.002 
432 4 0.0327562 0.107761 -0.0126159 0 0 0 1.08419 -1.15864 0.920567 0 -0.000164368 0 0 0 0 0 0 0 0 0 0 0 0 0 0 0 0 0 0 0.002 
550 10 0.0453456 0.0874814 -0.0142166 0 0 0 2.9623 11.4492 -3.54865 0 -0.000164368 0 0 0 0 0 0 0 0 0 0 0 0 0 0 0 0 0 0 0.002 
530 1 0.0471947 0.106097 -0.0310723 0 0 0 -2.12728 -2.22849 -2.50474 0 -0.000164368 0 0 0 0 0 0 0 0 0 0 0 0 0 0 0 0 0 1 0.002 
249 4 0.0460766 0.102881 -0.0121279 0 0 0 2.08189 -1.91446 -0.496221 0 -0.000164368 0 0 0 0 0 0 0 0 0 0 0 0 0 0 0 0 0 5 0.002 
437 8 0.0428473 0.0776111 -0.00575423 0 0 0 0.360686 -1.30056 1.15615 0 -0.000164368 0 0 0 0 0 0 0 0 0 0 0 0 0 0 0 0 0 7 0.002 
439 1 0.0222859 0.092065 -0.00788998 0 0 0 -1.63223 -0.535512 0.857056 0 -0.000164368 0 0 0 0 0 0 0 0 0 0 0 0 0 0 0 0 0 2 0.002 
125 10 0.0375553 0.0994937 -0.00625221 0 0 0 -0.0114896 0.218616 -0.203265 0 -0.000164368 0 0 0 0 0 0 0 0 0 0 0 0 0 0 0 0 0 8 0.002 
20 3 0.0360668 0.107425 -0.00194152 0 0 0 -0.741964 -0.115152 0.963961 0 -0.000164368 0 0 0 0 0 0 0 0 0 0 0 0 0 0 0 0 0 3 0.002 
310 2 0.0324448 0.105794 0.00858519 0 0 0 0.206765 -0.290668 1.8528 0 -0.000164368 0 0 0 0 0 0 0 0 0 0 0 0 0 0 0 0 0 3 0.002 
237 10 0.0218361 0.0777329 0.000177938 0 0 0 -0.144505 -1.09318 -0.135727 0 -0.000164368 0 0 0 0 0 0 0 0 0 0 0 0 0 0 0 0 0 5 0.002 
306 3 0.0260864 0.0926007 -0.00100882 0 0 0 -0.050652 -1.76381 0.984413 0 -0.000164368 0 0 0 0 0 0 0 0 0 0 0 0 0 0 0 0 0 3 0.002 
406 5 0.0311587 0.0941823 0.000472858 0 0 0 0.499339 -0.146914 1.06753 0 -0.000164368 0 0 0 0 0 0 0 0 0 0 0 0 0 0 0 0 0 3 0.002 
231 7 0.0436632 0.101288 -0.00250722 0 0 0 -3.23844 13.5973 -5.47472 0 -0.000164368 0 0 0 0 0 0 0 0 0 0 0 0 0 0 0 0 0 5 0.002 
274 4 0.0255452 0.0969572 -1.40098e-05 0 0 0 -1.42764 -0.805301 2.16244 0 -0.000164368 0 0 0 0 0 0 0 0 0 0 0 0 0 0 0 0 0 5 0.002 
352 4 0.0222826 0.100965 -0.000173801 0 0 0 0.843874 -0.656882 0.401947 0 -0.000164368 0 0 0 0 0 0 0 0 0 0 0 0 0 0 0 0 0 1 0.002 
299 1 0.0391281 0.0905631 0.00255385 0 0 0 1.69765 0.450843 -0.670665 0 -0.000164368 0 0 0 0 0 0 0 0 0 0 0 0 0 0 0 0 0 2 0.002 
4 6 0.0255154 0.102968 0.00875919 0 0 0 -1.89306 -0.820366 2.78577 0 -0.000164368 0 0 0 0 0 0 0 0 0 0 0 0 0 0 0 0 0 3 0.002 
105 3 0.0268964 0.107893 0.00375864 0 0 0 0.146597 0.995971 2.76252 0 -0.000164368 0 0 0 0 0 0 0 0 0 0 0 0 0 0 0 0 0 7 0.002 
336 9 0.0342917 0.10664 0.00322091 0 0 0 0.868491 0.726104 0.671874 0 -0.000164368 0 0 0 0 0 0 0 0 0 0 0 0 0 0 0 0 0 2 0.002 
189 5 0.0367798 0.0965216 0.00514846 0 0 0 0.801852 -1.96101 1.93289 0 -0.000164368 0 0 0 0 0 0 0 0 0 0 0 0 0 0 0 0 0 4 0.002 
470 8 0.0217871 0.100162 0.0039233 0 0 0 -0.17871 -0.532146 0.759156 0 -0.000164368 0 0 0 0 0 0 0 0 0 0 0 0 0 0 0 0 0 0 0.002 