ITEM: TIMESTEP
7400000
ITEM: NUMBER OF ATOMS
13447
ITEM: BOX BOUNDS ff ff ff
-0.01 0.45
-0.15 0.15
-0.08 0.1
ITEM: ATOMS id type x y z ix iy iz vx vy vz fx fy fz c_cc_1 c_cc_2 c_cc_3 c_cc_4 c_cc_5 c_cc_6 c_cc_7 c_cc_8 c_cc_9 c_cc_10 c_cc_11 c_cc_12 c_cc_13 c_cc_14 c_cc_15 c_cc_16 f_fppacc radius c_cc_17 
12888 5 0.0104823 -0.00363703 -0.0592394 0 0 0 -13.8315 -42.3477 19.3305 -0.0211521 0.212665 1.52425 0 0 0 0 0 0 0 0 0 0 0 0 0 0 0 0 3 0.0008 0 
4306 9 0.00998025 -0.0236608 -0.0562738 0 0 0 -0.010338 -0.00639252 0.0576902 0 -1.05196e-05 0 0 0 0 0 0 0 0 0 0 0 0 0 0 0 0 0 18 0.0008 0 
4848 7 0.00768999 -0.0307381 -0.0527663 0 0 0 -0.00190923 -0.29237 0.145583 1.03675e-11 -6.3308e-06 3.15237e-06 0 0 0 0 0 0 0 0 0 0 0 0 0 0 0 0 40 0.0008 0 
6605 3 0.0046243 -0.0299674 -0.0494031 0 0 0 0.771805 -2.09305 2.80374 0 -1.05196e-05 0 0 0 0 0 0 0 0 0 0 0 0 0 0 0 0 0 21 0.0008 0 
14258 9 0.010489 -0.0392805 -0.0437912 0 0 0 0.000265833 -14.9645 10.5435 0 -1.05196e-05 0 0 0 0 0 0 0 0 0 0 0 0 0 0 0 0 0 0 0.0008 0 
14204 2 0.00444451 -0.0389515 -0.0387851 0 0 0 -0.0296733 -14.7278 10.6426 0 -1.05196e-05 0 0 0 0 0 0 0 0 0 0 0 0 0 0 0 0 0 0 0.0008 0 
14045 11 0.0148583 -0.0317941 -0.0359347 0 0 0 0.303714 -1.58618 -0.0515484 0 -1.05196e-05 0 0 0 0 0 0 0 0 0 0 0 0 0 0 0 0 0 0 0.0008 0 
12410 2 0.00181158 -0.0516301 -0.0319976 0 0 0 0.119044 0.0688726 0.0021769 0 -1.05196e-05 0 0 0 0 0 0 0 0 0 0 0 0 0 0 0 0 0 0 0.0008 0 
783 5 0.00467246 -0.0501107 -0.025429 0 0 0 0.105441 -2.3097 2.7183 0 -1.05196e-05 0 0 0 0 0 0 0 0 0 0 0 0 0 0 0 0 0 43 0.0008 0 
8155 2 0.0144063 -0.0504394 -0.0237061 0 0 0 9.59974 -9.76704 24.1811 0 -1.05196e-05 0 0 0 0 0 0 0 0 0 0 0 0 0 0 0 0 0 26 0.0008 0 
13175 6 0.000848877 -0.0594948 -0.0126034 0 0 0 0.0923635 -0.066237 0.470485 0 -1.05196e-05 0 0 0 0 0 0 0 0 0 0 0 0 0 0 0 0 0 0 0.0008 0 
5560 2 0.00292519 -0.0597719 -0.0118721 0 0 0 0.0415244 -0.0130606 0.069868 5.24289e-18 -2.53692e-07 1.35713e-06 0 0 0 0 0 0 0 0 0 0 0 0 0 0 0 0 23 0.0008 0 
215 2 0.00923364 -0.0598863 -0.0112597 0 0 0 0.135304 -0.0307406 0.164447 -7.17957e-18 -2.53692e-07 1.35713e-06 0 0 0 0 0 0 0 0 0 0 0 0 0 0 0 0 33 0.0008 0 
3129 3 0.000955052 -0.0598553 -0.010247 0 0 0 0.0397613 0.0262205 -0.0461566 0 -1.05196e-05 0 0 0 0 0 0 0 0 0 0 0 0 0 0 0 0 0 12 0.0008 0 
5399 2 0.00552228 -0.0602318 -0.00941185 0 0 0 0.0201812 -0.000465662 0.00249107 -5.13151e-06 -4.7122e-07 2.5208e-06 0 0 0 0 0 0 0 0 0 0 0 0 0 0 0 0 31 0.0008 0 
12450 8 0.00370475 -0.0601466 -0.00986743 0 0 0 0.0357914 -0.00665724 0.0356172 -5.2559e-06 -2.30973e-07 2.35002e-06 0 0 0 0 0 0 0 0 0 0 0 0 0 0 0 0 0 0.0008 0 
2015 2 0.00244112 -0.0603294 -0.00888992 0 0 0 -0.00527064 0.00235747 -0.00504279 9.74183e-09 -1.77983e-06 1.2845e-06 0 0 0 0 0 0 0 0 0 0 0 0 0 0 0 0 20 0.0008 0 
12332 2 0.00687492 -0.0604079 -0.00846971 0 0 0 -0.0187348 -0.00505324 0.0270324 -8.79492e-19 -2.53692e-07 1.35713e-06 0 0 0 0 0 0 0 0 0 0 0 0 0 0 0 0 1 0.0008 0 
10952 1 0.0130139 -0.0603059 -0.0090155 0 0 0 0.181941 0.00453105 -0.0242391 -1.53041e-06 -1.262e-06 6.75499e-06 0 0 0 0 0 0 0 0 0 0 0 0 0 0 0 0 1 0.0008 0 
12800 4 0.000806217 -0.0605309 -0.00781142 0 0 0 -5.71711e-06 -8.85847e-05 0.000169559 -4.99855e-10 -9.35223e-07 1.21533e-06 0 0 0 0 0 0 0 0 0 0 0 0 0 0 0 0 2 0.0008 0 
8040 3 0.00218995 -0.0606793 -0.00701759 0 0 0 0.00043023 -0.000252643 0.00105733 3.9601e-08 -9.23837e-08 -8.04642e-08 0 0 1 0 0 0 0 0 0 0 0 0 0 0 0 0 21 0.0008 0 
3837 1 0.00360165 -0.0605359 -0.00778491 0 0 0 0.00518167 -0.000372215 0.00196441 -1.49003e-10 -6.75321e-08 1.39312e-06 0 0 0 0 0 0 0 0 0 0 0 0 0 0 0 0 36 0.0008 0 
12917 2 0.00501481 -0.0606765 -0.0070325 0 0 0 0.0108397 7.45275e-07 -0.000435109 -2.49016e-07 -9.56504e-07 -9.24751e-07 0 1 0 0 0 0 0 0 0 0 0 0 0 0 0 0 5 0.0008 0 
10496 1 0.00822959 -0.0606828 -0.00697947 0 0 0 0.00261384 -0.00132409 0.00714584 0 -1.05196e-05 0 0 0 0 0 0 0 0 0 0 0 0 0 0 0 0 0 2 0.0008 0 
7649 2 0.000800008 -0.060825 -0.0062385 0 0 0 0.000110035 -6.84755e-05 0.000637397 -2.64977e-08 -4.65536e-07 1.34961e-06 0 0 0 0 0 0 0 0 0 0 0 0 0 0 0 0 12 0.0008 0 
4413 6 0.00359956 -0.06083 -0.00621162 0 0 0 -0.00207238 -0.000299808 0.00115609 4.30453e-08 4.85777e-07 1.75593e-06 0 0 0 0 0 0 0 0 0 0 0 0 0 0 0 0 26 0.0008 0 
2611 5 0.00647012 -0.0608183 -0.00627411 0 0 0 0.00936243 -0.00295755 0.0160016 -3.35542e-06 2.35599e-06 -1.0327e-06 0 0 0 0 1 0 0 0 0 0 0 0 0 0 0 0 22 0.0008 0 
7654 8 0.0121515 -0.060694 -0.00693896 0 0 0 -0.167917 -0.0209271 0.11195 1.04453e-06 5.75314e-07 -3.07736e-06 0 0 0 0 0 0 0 0 0 0 0 0 0 0 0 0 41 0.0008 0 
10595 5 0.00218837 -0.0609356 -0.00543832 0 0 0 0.00054339 6.21624e-05 0.00130054 2.14521e-07 5.76297e-08 1.70614e-07 0 0 1 0 1 0 0 0 0 0 0 0 0 0 0 0 13 0.0008 0 
5611 3 0.00505277 -0.0609356 -0.00545417 0 0 0 0.00597162 -1.51912e-05 7.31675e-05 1.21348e-07 1.54471e-06 6.58905e-07 0 1 0 0 0 0 0 0 0 0 0 0 0 0 0 0 17 0.0008 0 
12304 8 0.00783464 -0.0609357 -0.00544702 0 0 0 0.0112465 0.000233139 0.0114369 -3.76274e-07 2.41272e-05 -1.75762e-05 0 0 0 0 1 0 0 1 0 0 0 0 0 0 0 0 3 0.0008 0 
7937 2 0.000800451 -0.0609356 -0.00464233 0 0 0 5.20438e-05 -1.69047e-05 0.000544157 -3.16957e-07 3.25689e-07 -4.1608e-07 0 1 0 0 1 0 0 0 0 0 0 0 0 0 0 0 21 0.0008 0 
894 6 0.00219798 -0.0609356 -0.00382815 0 0 0 0.00140922 -2.00052e-05 0.00315581 9.19524e-08 -5.26371e-07 -2.30878e-08 0 0 0 0 0 0 0 0 0 0 0 0 0 0 0 0 20 0.0008 0 
9977 6 0.00359114 -0.0609356 -0.00461516 0 0 0 0.00124296 0.000177959 0.00161319 -1.44311e-07 -4.48638e-07 9.74098e-10 0 0 0 0 0 0 0 0 0 0 0 0 0 0 0 0 9 0.0008 0 
9269 5 0.00500943 -0.0609356 -0.00384325 0 0 0 -0.000989637 -2.60272e-07 0.00479777 7.10319e-14 -4.2905e-09 -3.4452e-13 0 0 0 0 0 0 0 0 0 0 0 0 0 0 0 0 16 0.0008 0 
8455 4 0.00642048 -0.0609355 -0.0046238 0 0 0 0.0026691 4.25625e-05 0.00196166 -3.8898e-07 -9.74584e-06 -1.8617e-06 0 0 0 1 0 0 0 0 0 0 0 0 0 0 0 0 18 0.0008 0 
10360 1 0.00784496 -0.0609357 -0.00384719 0 0 0 0.00504975 -0.000285311 0.00824405 -3.86541e-08 8.96508e-07 1.15477e-05 1 0 0 0 0 0 0 1 0 0 0 0 0 0 0 0 17 0.0008 0 
12691 4 0.00933975 -0.0609356 -0.00481983 0 0 0 0.0208963 1.80774e-09 0.00242334 1.0301e-14 5.257e-11 1.1946e-15 0 0 0 0 0 0 0 0 0 0 0 0 0 0 0 0 1 0.0008 0 
9715 3 0.0108499 -0.0609356 -0.00400053 0 0 0 0.0284848 3.95751e-12 0.0224485 -1.69367e-18 0 1.69367e-18 0 0 0 0 0 0 0 0 0 0 0 0 0 0 0 0 3 0.0008 0 
5953 8 0.0144125 -0.0609356 -0.00452159 0 0 0 -0.157995 -6.83854e-12 0.0939863 1.18442e-17 0 -9.58461e-18 0 0 0 0 0 0 0 0 0 0 0 0 0 0 0 0 12 0.0008 0 
7286 3 0.0176672 -0.0609356 -0.00438525 0 0 0 -0.0205211 1.25969e-11 0.0219501 -7.20745e-17 2.24093e-13 7.72946e-17 0 0 0 0 0 0 0 0 0 0 0 0 0 0 0 0 5 0.0008 0 
5540 9 0.000803465 -0.0609356 -0.00304236 0 0 0 -0.00080181 -3.26111e-05 0.00041967 2.22485e-07 -1.53587e-07 3.71739e-07 0 1 0 0 0 0 0 0 0 0 0 0 0 0 0 0 31 0.0008 0 
1225 1 0.00358785 -0.0609356 -0.00301361 0 0 0 0.00102912 9.99984e-06 0.00268212 2.75841e-11 6.23892e-08 7.42701e-11 0 0 0 0 0 0 0 0 0 0 0 0 0 0 0 0 118 0.0008 0 
11208 2 0.00647275 -0.0609357 -0.00302483 0 0 0 0.00100789 0.000233339 0.00413501 -5.77471e-06 5.97916e-06 -6.02483e-07 1 0 0 1 0 0 0 0 0 0 0 0 0 0 0 0 12 0.0008 0 
10613 5 0.00931015 -0.0609356 -0.00319713 0 0 0 0.00483007 -1.17858e-06 0.00836174 -1.55926e-12 -1.1219e-08 -2.7167e-12 0 0 0 0 0 0 0 0 0 0 0 0 0 0 0 0 7 0.0008 0 
9680 4 0.00219455 -0.0609356 -0.00222692 0 0 0 0.000712512 9.85954e-06 0.00107525 3.64422e-10 2.89077e-07 -1.94564e-10 0 0 0 0 0 0 0 0 0 0 0 0 0 0 0 0 20 0.0008 0 
6408 2 0.00499002 -0.0609356 -0.00224071 0 0 0 6.76775e-05 -2.58272e-05 0.00516148 1.57579e-09 2.08195e-07 9.08204e-10 0 0 0 0 0 0 0 0 0 0 0 0 0 0 0 0 10 0.0008 0 
4634 2 0.00783629 -0.0609356 -0.00214207 0 0 0 0.00131688 -5.06605e-12 -0.00310091 1.51081e-19 0 2.84752e-19 0 0 0 0 0 0 0 0 0 0 0 0 0 0 0 0 20 0.0008 0 
9160 14 0.0118441 -0.0609356 -0.00248392 0 0 0 0.00211401 7.09206e-13 0.013157 3.60324e-19 1.3144e-13 1.7015e-18 0 0 0 0 0 0 0 0 0 0 0 0 0 0 0 0 9 0.0008 0 
1063 5 0.01463 -0.0609357 -0.00232401 0 0 0 -0.0105671 -0.000820167 -0.00204938 -1.62071e-05 -6.49181e-06 -6.06589e-07 0 0 0 0 1 0 0 0 0 0 0 0 0 0 0 0 27 0.0008 0 
12116 6 0.0161869 -0.0606942 -0.00260119 0 0 0 -0.0107139 -0.0181689 -0.00252157 2.74171e-05 8.05215e-06 -8.14677e-07 0 0 0 0 1 0 0 0 0 0 0 0 0 0 0 0 1 0.0008 0 
7893 2 0.0176085 -0.0609356 -0.0019076 0 0 0 -0.0107999 -0.000158304 0.00441902 -3.39959e-08 -3.75188e-06 -9.2986e-08 0 0 0 0 0 0 0 0 0 0 0 0 0 0 0 0 18 0.0008 0 
1200 7 0.000800013 -0.0609356 -0.0014422 0 0 0 6.3926e-05 -1.92549e-05 0.000459975 -2.01717e-08 -7.39491e-08 -1.31423e-08 0 0 0 0 0 0 0 0 0 0 0 0 0 0 0 0 33 0.0008 0 
414 7 0.00215479 -0.0609355 -0.000590683 0 0 0 -0.000814803 -0.000576456 0.000853228 -4.90921e-06 -7.75865e-06 -2.57257e-06 0 0 0 0 0 0 2 0 0 0 0 0 0 0 0 0 21 0.0008 0 
3512 5 0.00356922 -0.0609356 -0.00140311 0 0 0 -0.00038638 -6.03286e-12 0.00368011 3.77682e-20 0 4.19727e-19 0 0 0 0 0 0 0 0 0 0 0 0 0 0 0 0 35 0.0008 0 
553 2 0.00496654 -0.0609356 -0.000610264 0 0 0 0.000531603 -5.86109e-12 0.00213494 7.48762e-20 -6.92992e-17 3.02157e-19 0 0 0 0 0 0 0 0 0 0 0 0 0 0 0 0 20 0.0008 0 
6702 2 0.00635921 -0.0609356 -0.00141219 0 0 0 0.00228327 2.07096e-05 0.00271143 -2.04544e-10 -2.30954e-07 -1.02095e-10 0 0 0 0 0 0 0 0 0 0 0 0 0 0 0 0 4 0.0008 0 
4185 5 0.00943517 -0.0609356 -0.000960425 0 0 0 0.011096 -3.57821e-12 -0.00170241 1.20855e-18 -2.45231e-16 -2.88103e-19 0 0 0 0 0 0 0 0 0 0 0 0 0 0 0 0 37 0.0008 0 
8603 2 0.0110407 -0.0609356 -0.00103866 0 0 0 0.00318437 2.18032e-08 0.00778524 1.96485e-14 -2.61307e-10 4.80372e-14 0 0 0 0 0 0 0 0 0 0 0 0 0 0 0 0 8 0.0008 0 
3983 3 0.0128589 -0.0609356 -0.00123604 0 0 0 0.00697282 -3.461e-12 0.011188 -5.95191e-18 -1.01827e-13 -9.4079e-18 0 0 0 0 0 0 0 0 0 0 0 0 0 0 0 0 6 0.0008 0 
9279 2 0.0155179 -0.0609356 -0.000928921 0 0 0 -0.0068481 -3.1558e-08 0.00445741 -2.13379e-09 1.73306e-07 -1.99674e-09 0 0 0 0 0 0 0 0 0 0 0 0 0 0 0 0 4 0.0008 0 
1871 2 0.000801972 -0.0609356 0.000263539 0 0 0 -0.00180463 0.00023187 0.00054373 -7.3442e-07 -4.21213e-06 2.90006e-07 0 0 0 0 0 0 1 0 0 0 0 0 0 0 0 0 44 0.0008 0 
101 5 0.00354098 -0.0609356 0.000208039 0 0 0 -0.000256705 0.000146111 0.00108461 -2.98062e-06 2.14994e-06 -2.39043e-06 0 0 0 0 1 0 1 0 0 0 0 0 0 0 0 0 45 0.0008 0 
1002 3 0.0063429 -0.0609356 0.000220098 0 0 0 0.003182 1.21273e-12 -0.000140102 -2.63707e-19 3.57041e-17 1.87192e-20 0 0 0 0 0 0 0 0 0 0 0 0 0 0 0 0 20 0.0008 0 
72 4 0.00778992 -0.0609356 -0.000539308 0 0 0 0.00352514 5.56886e-12 -0.00279056 -5.99007e-19 0 -2.83332e-19 0 0 0 0 0 0 0 0 0 0 0 0 0 0 0 0 14 0.0008 0 
9639 4 0.0120736 -0.0609356 0.000189651 0 0 0 0.00433254 -3.37575e-05 0.0106805 2.13204e-08 -1.43812e-06 1.73769e-08 0 0 0 0 0 0 0 0 0 0 0 0 0 0 0 0 12 0.0008 0 
12872 6 0.0167688 -0.0609356 6.89274e-05 0 0 0 0.00481947 2.74736e-05 -0.00966831 5.91385e-09 -4.69259e-07 4.8859e-09 0 0 0 0 0 0 0 0 0 0 0 0 0 0 0 0 0 0.0008 0 
690 7 0.00217808 -0.0609356 0.00108104 0 0 0 -0.00163294 -5.90123e-05 -0.00145385 -1.31164e-08 -1.31884e-06 5.77211e-08 0 0 0 0 0 0 0 0 0 0 0 0 0 0 0 0 34 0.0008 0 
585 3 0.00492885 -0.0609356 0.0010039 0 0 0 0.0014856 -8.23472e-05 -0.00187536 -5.12481e-07 1.06235e-06 4.53134e-07 0 0 1 0 1 0 0 0 0 0 0 0 0 0 0 0 40 0.0008 0 
4165 3 0.00784238 -0.0609356 0.00143564 0 0 0 0.00109561 5.44839e-06 -0.00228398 3.26077e-09 9.14369e-08 9.81604e-10 0 0 0 0 0 0 0 0 0 0 0 0 0 0 0 0 13 0.0008 0 
4095 1 0.00922342 -0.0609356 0.00062563 0 0 0 0.000124052 -1.73489e-05 -0.00304386 -1.84977e-08 1.52165e-07 -8.19124e-09 0 0 0 0 0 0 0 0 0 0 0 0 0 0 0 0 22 0.0008 0 
1367 1 0.0107535 -0.0609356 0.00109462 0 0 0 -0.00129843 6.67605e-05 0.00466217 2.96167e-08 6.69603e-07 9.08589e-09 0 0 0 0 0 0 0 0 0 0 0 0 0 0 0 0 65 0.0008 0 
3427 4 0.0134813 -0.0609356 0.00095731 0 0 0 0.0042599 -2.68359e-10 0.00630622 -3.19746e-16 1.5091e-12 -4.73329e-16 0 0 0 0 0 0 0 0 0 0 0 0 0 0 0 0 18 0.0008 0 
7431 2 0.0150453 -0.0609356 0.000613443 0 0 0 0.00537922 -2.81477e-11 0.0117047 -4.33554e-17 2.96614e-14 -9.44791e-17 0 0 0 0 0 0 0 0 0 0 0 0 0 0 0 0 7 0.0008 0 
11571 10 0.0182391 -0.0609356 0.000709908 0 0 0 0.00387722 1.99844e-05 -0.00201849 4.0551e-11 3.88202e-07 -3.44078e-12 0 0 0 0 0 0 0 0 0 0 0 0 0 0 0 0 3 0.0008 0 
206 1 0.000799987 -0.0609356 0.00189681 0 0 0 0.000202326 -9.11689e-06 -0.00310249 5.67034e-07 4.03724e-06 -3.50016e-07 0 0 0 0 0 0 0 0 0 0 0 0 0 0 0 0 65 0.0008 0 
317 1 0.00357414 -0.0609356 0.00186667 0 0 0 0.000940636 -3.72245e-05 -0.00197083 1.84275e-08 7.93031e-07 -1.24413e-08 0 0 0 0 0 0 0 0 0 0 0 0 0 0 0 0 41 0.0008 0 
1470 6 0.00629389 -0.0609356 0.00183847 0 0 0 0.0011692 -1.33967e-05 -0.00180644 1.11001e-06 -6.89456e-08 9.23615e-08 0 0 1 0 0 0 0 0 0 0 0 0 0 0 0 0 45 0.0008 0 
4938 7 0.00951393 -0.0609356 0.00220252 0 0 0 -0.000481709 -3.66964e-06 -0.002712 -1.62405e-13 7.97014e-09 2.39892e-12 0 0 0 0 0 0 0 0 0 0 0 0 0 0 0 0 68 0.0008 0 
7185 2 0.0122392 -0.0609356 0.00213799 0 0 0 -5.04897e-06 2.18502e-12 -0.00323098 -5.90139e-22 0 -5.40776e-19 0 0 0 0 0 0 0 0 0 0 0 0 0 0 0 0 36 0.0008 0 
1887 11 0.0163058 -0.0609356 0.00163249 0 0 0 0.00096543 4.53831e-09 -0.00346056 1.39843e-15 -7.24705e-10 -5.02907e-15 0 0 0 0 0 0 0 0 0 0 0 0 0 0 0 0 18 0.0008 0 
3630 1 0.01778 -0.0609356 0.00225676 0 0 0 -0.000570357 -5.73852e-06 -0.000312243 -2.23664e-12 -1.77181e-08 -1.05854e-11 0 0 0 0 0 0 0 0 0 0 0 0 0 0 0 0 12 0.0008 0 
1972 6 0.000801375 -0.0609357 0.00349743 0 0 0 0.00125543 -0.000259129 -0.00144488 7.45061e-07 2.28495e-05 -1.66119e-06 0 0 0 0 0 0 0 0 0 0 0 0 0 0 0 0 92 0.0008 0 
280 2 0.00219565 -0.0609356 0.00268118 0 0 0 -0.0010768 2.81126e-05 -3.24445e-05 -4.91513e-08 1.3549e-06 -6.63482e-07 0 0 0 0 0 0 0 0 0 0 0 0 0 0 0 0 62 0.0008 0 
1705 8 0.00356957 -0.0609356 0.00350123 0 0 0 0.000702735 0.000201394 -0.00137465 5.07402e-07 -3.04612e-08 -3.66198e-07 0 0 0 0 0 0 0 3 0 0 0 0 0 0 0 0 115 0.0008 0 
2069 4 0.00499212 -0.0609356 0.00276891 0 0 0 0.00126524 2.31799e-05 -0.000985592 -1.6957e-07 -3.83184e-07 1.83752e-07 0 0 0 0 0 0 0 1 0 0 0 0 0 0 0 0 77 0.0008 0 
154 3 0.00653863 -0.0609356 0.00344776 0 0 0 0.002033 -2.68063e-06 -0.00165798 -2.58678e-11 1.41075e-08 -2.29009e-12 0 0 0 0 0 0 0 0 0 0 0 0 0 0 0 0 71 0.0008 0 
1920 3 0.00808358 -0.0609356 0.00301745 0 0 0 0.000504936 -9.02564e-06 -0.00208331 -2.15266e-10 -1.16921e-07 -2.65405e-10 0 0 0 0 0 0 0 0 0 0 0 0 0 0 0 0 30 0.0008 0 
1036 2 0.0108878 -0.0609356 0.00302493 0 0 0 -2.44685e-05 4.3519e-06 -0.00172525 8.85178e-13 1.74754e-09 -1.52633e-12 0 0 0 0 0 0 0 0 0 0 0 0 0 0 0 0 24 0.0008 0 
1118 3 0.0135503 -0.0609356 0.00308413 0 0 0 -0.000139198 -3.39493e-07 -0.000831643 1.09539e-14 -1.08755e-09 7.99626e-14 0 0 0 0 0 0 0 0 0 0 0 0 0 0 0 0 51 0.0008 0 
1366 5 0.0151018 -0.0609356 0.00269158 0 0 0 -0.000470933 -1.78824e-06 -0.00270336 2.37607e-13 1.26351e-08 1.35946e-12 0 0 0 0 0 0 0 0 0 0 0 0 0 0 0 0 19 0.0008 0 
4164 1 0.0165673 -0.0609356 0.00335744 0 0 0 0.000518152 -3.62976e-13 -0.00204588 4.17273e-22 1.25826e-13 -5.14852e-21 0 0 0 0 0 0 0 0 0 0 0 0 0 0 0 0 19 0.0008 0 
1894 5 0.0021845 -0.0609356 0.00430202 0 0 0 -0.0015437 -6.82554e-05 -0.00472161 -4.53942e-07 1.90922e-07 1.37143e-06 0 0 0 0 1 0 0 1 0 0 0 0 0 0 0 0 108 0.0008 0 
531 10 0.00521908 -0.0609356 0.00435276 0 0 0 0.00217643 7.70013e-06 -0.00149914 5.25198e-08 -7.79182e-07 -2.621e-07 0 0 0 0 0 0 0 0 0 1 0 0 0 0 0 0 117 0.0008 0 
3087 1 0.00790077 -0.0609356 0.0046071 0 0 0 0.00323572 1.99011e-06 -0.00164872 1.06643e-07 -1.50284e-07 -5.49461e-07 1 0 0 0 0 0 0 0 0 0 0 0 0 0 0 0 74 0.0008 0 
18 2 0.00947794 -0.0609356 0.00380242 0 0 0 0.00116819 1.44969e-05 -0.00277765 1.44057e-09 -1.75548e-08 6.301e-10 0 0 0 0 0 0 0 0 0 0 0 0 0 0 0 0 44 0.0008 0 
4532 9 0.0121991 -0.0609356 0.0039423 0 0 0 -0.00162159 0.000133114 -0.00129324 -7.17207e-07 2.23237e-06 -1.08104e-07 0 0 0 0 0 0 0 0 1 0 0 0 0 0 0 0 38 0.0008 0 
1890 2 0.0136167 -0.0609356 0.00468386 0 0 0 -0.00132443 -0.000162494 -0.000159384 1.42809e-06 -2.49037e-06 -1.28736e-07 0 1 0 0 0 0 0 0 1 0 0 0 0 0 0 0 53 0.0008 0 
10907 2 0.015208 -0.0609356 0.00429278 0 0 0 -0.0052113 -9.4635e-07 -0.00312038 -8.72594e-08 7.3712e-09 -3.0797e-07 0 1 0 0 0 0 0 0 0 0 0 0 0 0 0 0 13 0.0008 0 
11044 4 0.0181554 -0.0609356 0.00381265 0 0 0 -0.000497814 5.66993e-06 0.000211887 -2.57557e-11 -2.51791e-08 -3.10909e-11 0 0 0 0 0 0 0 0 0 0 0 0 0 0 0 0 10 0.0008 0 
733 3 0.000799925 -0.0609356 0.00510362 0 0 0 -0.000116219 -0.000354679 -0.00192918 1.17646e-06 8.04076e-06 5.61341e-06 0 0 0 0 1 0 0 0 0 0 0 0 0 0 0 0 117 0.0008 0 
2352 2 0.00359463 -0.0609356 0.00510098 0 0 0 0.0042897 -5.22946e-05 -0.00113153 -1.62879e-08 1.64433e-07 4.50592e-07 0 0 0 0 0 0 0 1 0 0 0 0 0 0 0 0 103 0.0008 0 
1045 8 0.00649982 -0.0609356 0.00538052 0 0 0 0.00119699 -3.06479e-09 -0.00623124 -1.00927e-15 -5.92392e-11 5.25401e-15 0 0 0 0 0 0 0 0 0 0 0 0 0 0 0 0 76 0.0008 0 
4248 10 0.00930071 -0.0609356 0.00539311 0 0 0 -0.000314982 2.07215e-07 -0.00234283 -1.30222e-14 -9.198e-10 -1.37386e-13 0 0 0 0 0 0 0 0 0 0 0 0 0 0 0 0 81 0.0008 0 
6544 1 0.0107955 -0.0609356 0.00471045 0 0 0 -0.000150707 -3.56074e-06 -0.000613091 -8.18413e-08 4.50458e-07 -4.52055e-07 1 0 0 0 0 0 0 0 0 0 0 0 0 0 0 0 43 0.0008 0 
9210 2 0.0121075 -0.0609356 0.00563197 0 0 0 -0.00158852 2.21446e-09 0.00200951 -9.78885e-16 1.499e-11 1.23833e-15 0 0 0 0 0 0 0 0 0 0 0 0 0 0 0 0 23 0.0008 0 
1749 6 0.0169861 -0.0609356 0.00490487 0 0 0 -0.00206557 -1.3407e-05 -0.00173096 -1.28613e-07 3.2545e-07 -7.16274e-07 0 0 0 0 0 0 0 0 0 0 0 0 0 0 0 0 27 0.0008 0 
2641 8 0.000800366 -0.0607401 0.00669247 0 0 0 0.00129712 -0.000200182 -0.00148546 2.27537e-06 6.0089e-06 -1.04315e-06 0 0 0 0 0 0 0 0 0 0 0 0 0 0 0 0 107 0.0008 0 
210 4 0.00219867 -0.0608873 0.00590513 0 0 0 0.00256175 -0.000891278 -0.00476915 1.33529e-15 -2.49299e-07 -1.358e-06 0 0 0 0 0 0 0 0 0 0 0 0 0 0 0 0 86 0.0008 0 
3869 8 0.00358786 -0.0607407 0.00668916 0 0 0 -0.000264648 -0.000111708 -0.00117303 -3.29413e-07 -1.17768e-06 -1.84695e-06 0 0 0 0 0 0 0 1 0 0 0 0 0 0 0 0 79 0.0008 0 
2116 2 0.00499528 -0.0608815 0.00593607 0 0 0 0.00159509 -0.000334368 -0.00154056 -4.91678e-07 1.13443e-06 -2.00263e-06 0 1 0 0 0 0 0 0 0 1 0 0 0 0 0 0 120 0.0008 0 
12 4 0.00792457 -0.0608315 0.00620347 0 0 0 1.6797e-05 -0.000290484 -0.00171064 3.68552e-08 8.96771e-08 3.44922e-07 1 0 0 1 0 0 0 0 0 0 0 0 0 0 0 0 42 0.0008 0 
3998 3 0.0106194 -0.0608142 0.00629602 0 0 0 -0.00103828 -4.0131e-05 -0.000589136 1.55288e-07 -1.51483e-06 6.88819e-07 1 0 1 0 0 0 0 0 0 0 0 0 0 0 0 0 47 0.0008 0 
5900 8 0.0135841 -0.0608174 0.00627907 0 0 0 -0.00226074 -3.39474e-05 -0.000329939 5.5415e-07 1.92534e-07 1.66741e-06 0 1 0 0 0 0 0 0 0 0 0 0 0 0 0 0 26 0.0008 0 
6574 6 0.0156745 -0.0609027 0.00582286 0 0 0 -0.00326223 -0.00069221 -0.00370688 2.77297e-07 -7.6055e-08 -3.81444e-07 0 1 0 0 0 0 0 0 0 0 0 0 0 0 0 0 47 0.0008 0 
7843 6 0.0179705 -0.0608392 0.00616242 0 0 0 -0.00547663 0.000176766 0.000892656 9.04688e-07 -9.89642e-08 4.7797e-07 0 0 0 0 0 0 0 0 0 0 0 0 0 0 0 0 23 0.0008 0 
3865 4 0.0022106 -0.0605911 0.00748963 0 0 0 -0.00362033 -0.00127546 -0.00599706 2.35427e-07 -9.01672e-07 -1.13284e-06 0 0 0 0 0 0 0 1 0 0 0 0 0 0 0 0 89 0.0008 0 
9441 6 0.00502314 -0.0605875 0.00750848 0 0 0 -0.000817316 -0.000211499 -0.00143909 -8.31375e-08 -6.496e-07 2.43784e-06 0 1 0 0 0 0 0 0 0 0 0 0 0 0 0 0 43 0.0008 0 
6076 6 0.00652424 -0.0606893 0.00696426 0 0 0 -0.00228762 -0.00110271 -0.00594881 3.01235e-07 -9.02284e-08 -1.04803e-06 0 0 0 1 0 0 0 0 0 0 0 0 0 0 0 0 35 0.0008 0 
3877 5 0.00791556 -0.0605375 0.00777632 0 0 0 -0.0035703 -0.000598633 -0.00194152 5.99922e-07 7.49899e-07 -1.87967e-06 0 0 0 0 0 0 0 0 0 0 0 0 0 0 0 0 29 0.0008 0 
1541 1 0.00958267 -0.06059 0.00749527 0 0 0 -0.0183691 -0.00285601 -0.0152793 -9.37331e-13 -2.50072e-07 -1.35785e-06 0 0 0 0 0 0 0 0 0 0 0 0 0 0 0 0 26 0.0008 0 
9650 1 0.0116408 -0.0605879 0.00750659 0 0 0 0.00352956 -0.000807737 -0.00384413 -1.37977e-07 1.24179e-06 -1.72608e-06 0 0 1 0 0 0 0 0 0 0 0 0 0 0 0 0 3 0.0008 0 
9290 4 0.0148872 -0.0606465 0.00719294 0 0 0 -0.000999239 -0.000570939 -0.00305414 5.1408e-15 -2.55419e-07 -1.35679e-06 0 0 0 0 0 0 0 0 0 0 0 0 0 0 0 0 18 0.0008 0 
5113 5 0.000812578 -0.0604461 0.00826547 0 0 0 0.00588772 -0.00125537 -0.00671277 -7.77145e-13 -3.12408e-07 -1.34563e-06 0 0 0 0 0 0 0 0 0 0 0 0 0 0 0 0 63 0.0008 0 
1165 1 0.00361832 -0.0604468 0.00826175 0 0 0 -0.00374888 -0.00133641 -0.0071585 -1.70877e-12 -2.34163e-07 -1.36105e-06 0 0 0 0 0 0 0 0 0 0 0 0 0 0 0 0 102 0.0008 0 
3081 3 0.00651558 -0.0603951 0.00853779 0 0 0 -0.00645736 -0.000894456 -0.00556259 -2.05406e-07 -1.73647e-06 -9.79198e-07 0 0 0 0 0 0 0 0 0 0 0 0 0 0 0 0 58 0.0008 0 
6493 9 0.0179032 -0.0603249 0.00891378 0 0 0 0.00178538 -0.00509526 -0.0272572 4.88327e-19 -2.53692e-07 -1.35713e-06 0 0 0 0 0 0 0 0 0 0 0 0 0 0 0 0 22 0.0008 0 
4325 3 0.00221764 -0.0602971 0.00906242 0 0 0 -0.00243079 -0.000156518 -0.00603589 -9.81304e-07 1.85725e-06 -3.56687e-06 0 0 1 0 0 0 0 0 0 0 0 0 0 0 0 0 45 0.0008 0 
8682 5 0.00501354 -0.0602935 0.00908159 0 0 0 -0.00517601 -0.000288583 -0.0014754 -1.81284e-11 8.37475e-08 -1.4219e-06 0 0 0 0 0 0 0 0 0 0 0 0 0 0 0 0 11 0.0008 0 
8267 8 0.00900329 -0.0603142 0.00897065 0 0 0 0.00270727 -0.00112698 -0.0060288 -1.81934e-15 -2.53675e-07 -1.35713e-06 0 0 0 0 0 0 0 0 0 0 0 0 0 0 0 0 11 0.0008 0 
10425 1 0.000829565 -0.0601505 0.00984676 0 0 0 -0.000233614 -0.000111121 -0.000202015 -2.9412e-08 8.07218e-08 -1.37259e-06 0 0 0 0 0 0 0 0 0 0 0 0 0 0 0 0 13 0.0008 0 
2858 2 0.00360486 -0.0601506 0.00984587 0 0 0 -0.00638862 0.000267998 0.00104276 3.21558e-06 5.83804e-07 1.2179e-06 0 0 1 0 0 0 0 0 0 0 0 0 0 0 0 0 37 0.0008 0 
5875 2 0.00490741 -0.0599388 0.0109792 0 0 0 -0.0345441 -0.00305762 -0.0163568 2.67089e-18 -2.53692e-07 -1.35713e-06 0 0 0 0 0 0 0 0 0 0 0 0 0 0 0 0 23 0.0008 0 
7860 2 0.0104049 -0.0580089 0.0103906 0 0 0 1.20468 2.22117 8.19748 0 -1.05196e-05 0 0 0 0 0 0 0 0 0 0 0 0 0 0 0 0 0 0 0.0008 0 
5016 1 0.00164283 -0.0598973 0.0112028 0 0 0 0.0148014 -0.00041111 -0.0171879 -3.26292e-06 4.14176e-05 -3.915e-05 0 0 0 0 0 0 0 0 0 0 0 0 0 0 0 0 21 0.0008 0 
12874 9 0.00931364 -0.0597779 0.01184 0 0 0 0.117541 -0.0120081 -0.0642375 -1.60412e-18 -2.53692e-07 -1.35713e-06 0 0 0 0 0 0 0 0 0 0 0 0 0 0 0 0 1 0.0008 0 
9818 2 0.0128882 -0.0599086 0.0111406 0 0 0 -0.0185663 -0.00126141 -0.00674796 -9.02981e-18 -2.53692e-07 -1.35713e-06 0 0 0 0 0 0 0 0 0 0 0 0 0 0 0 0 2 0.0008 0 
5231 4 0.01117 -0.0410533 0.0118429 0 0 0 0.26971 -0.604345 1.60619 0 -1.05196e-05 0 0 0 0 0 0 0 0 0 0 0 0 0 0 0 0 0 33 0.0008 0 
7315 2 0.00112844 -0.0595745 0.0127093 0 0 0 0.000728577 -0.0659853 0.0156795 0 -1.05196e-05 0 0 0 0 0 0 0 0 0 0 0 0 0 0 0 0 0 6 0.0008 0 
4050 3 0.00298401 -0.059354 0.0138532 0 0 0 -0.225002 -0.02248 -0.32876 0 -1.05196e-05 0 0 0 0 0 0 0 0 0 0 0 0 0 0 0 0 0 15 0.0008 0 
13018 4 0.00502404 -0.0593979 0.0136405 0 0 0 -0.111972 -0.116004 -0.16937 0 -1.05196e-05 0 0 0 0 0 0 0 0 0 0 0 0 0 0 0 0 0 0 0.0008 0 
5294 10 0.00175079 -0.0591235 0.0153403 0 0 0 -0.0284811 -0.0105603 -0.0564925 1.28596e-13 -2.53783e-07 -1.35711e-06 0 0 0 0 0 0 0 0 0 0 0 0 0 0 0 0 35 0.0008 0 
11158 7 0.00104069 -0.0587909 0.0167416 0 0 0 0.0362195 -0.0881277 -0.013435 0 -1.05196e-05 0 0 0 0 0 0 0 0 0 0 0 0 0 0 0 0 0 1 0.0008 0 
2150 5 0.00550848 -0.0581744 0.0182379 0 0 0 -0.0203565 0.0491064 -0.00175498 0 -1.05196e-05 0 0 0 0 0 0 0 0 0 0 0 0 0 0 0 0 0 36 0.0008 0 
13186 2 0.00232455 -0.0580833 0.0177395 0 0 0 -0.0378874 0.0726399 0.197727 0 -1.05196e-05 0 0 0 0 0 0 0 0 0 0 0 0 0 0 0 0 0 0 0.0008 0 
13272 1 0.00524341 -0.0543584 0.0276158 0 0 0 4.06319e-05 -0.0783802 -0.00203477 0 -1.05196e-05 0 0 0 0 0 0 0 0 0 0 0 0 0 0 0 0 0 0 0.0008 0 
6425 2 0.0067896 -0.0134198 0.0352098 0 0 0 0.322557 -1.54156 -0.871059 0 -1.05196e-05 0 0 0 0 0 0 0 0 0 0 0 0 0 0 0 0 0 1 0.0008 0 
4011 5 0.00230106 -0.000251263 0.0351826 0 0 0 0.00519835 -1.54259 0.407385 0 -1.05196e-05 0 0 0 0 0 0 0 0 0 0 0 0 0 0 0 0 0 46 0.0008 0 
14254 1 0.00220735 -0.0451297 0.0380499 0 0 0 0.314181 14.2509 14.3345 -0.00146387 0.0435702 -0.0377983 0 0 0 0 0 0 0 0 0 0 0 0 0 0 0 0 0 0.0008 0 
2464 3 0.00935054 -0.0449748 0.038218 0 0 0 2.02603 12.254 12.7386 -0.00262151 0.0476177 -0.0454128 0 0 0 0 0 0 0 0 0 0 0 0 0 0 0 0 1 0.0008 0 
5647 6 0.0166004 -0.00903924 0.040514 0 0 0 1.3408 -4.00268 -2.05243 0 -1.05196e-05 0 0 0 0 0 0 0 0 0 0 0 0 0 0 0 0 0 52 0.0008 0 
14095 13 0.00616921 -0.0248907 0.0432536 0 0 0 8.00608 22.9104 6.62312 0 -1.05196e-05 0 0 0 0 0 0 0 0 0 0 0 0 0 0 0 0 0 0 0.0008 0 
13929 2 0.0010975 -0.0402069 0.0459895 0 0 0 -0.0436664 -0.518325 -0.40988 0 -1.05196e-05 0 0 0 0 0 0 0 0 0 0 0 0 0 0 0 0 0 0 0.0008 0 
14266 5 0.0178997 -0.00192557 0.0458148 0 0 0 0.957892 -2.16224 1.1772 0 -1.05196e-05 0 0 0 0 0 0 0 0 0 0 0 0 0 0 0 0 0 0 0.0008 0 
14235 1 0.010112 -0.0307837 0.0497068 0 0 0 0.57521 19.8057 12.6107 0 -1.05196e-05 0 0 0 0 0 0 0 0 0 0 0 0 0 0 0 0 0 0 0.0008 0 
14233 13 0.00700434 -0.0244735 0.0516358 0 0 0 0.459623 19.0129 9.87062 0 -1.05196e-05 0 0 0 0 0 0 0 0 0 0 0 0 0 0 0 0 0 0 0.0008 0 
14257 8 0.0141733 -0.0254264 0.0523658 0 0 0 0.420224 2.55498 0.783606 0 -1.05196e-05 0 0 0 0 0 0 0 0 0 0 0 0 0 0 0 0 0 0 0.0008 0 
1751 2 0.0094551 -0.0115801 0.0528605 0 0 0 6.15927 6.43549 -2.3599 0 -1.05196e-05 0 0 0 0 0 0 0 0 0 0 0 0 0 0 0 0 0 36 0.0008 0 
13987 1 0.010749 -0.018581 0.0558635 0 0 0 -1.25577 5.62003 0.969007 0 -1.05196e-05 0 0 0 0 0 0 0 0 0 0 0 0 0 0 0 0 0 0 0.0008 0 
1229 3 0.0059989 -0.0154036 0.0568246 0 0 0 1.64669 23.2873 5.32548 0 -1.05196e-05 0 0 0 0 0 0 0 0 0 0 0 0 0 0 0 0 0 18 0.0008 0 
10850 4 0.00379432 -0.00910362 0.0580994 0 0 0 1.74913 16.3387 0.324945 0.0222872 0.060184 -0.00770949 0 0 0 1 0 0 0 0 0 0 0 0 0 0 0 0 12 0.0008 0 
14216 7 0.00388419 -0.00756708 0.0584743 0 0 0 -1.02591 21.4936 8.16531 -0.0222872 -0.060205 0.00770949 0 0 0 1 0 0 0 0 0 0 0 0 0 0 0 0 1 0.0008 0 
13605 2 0.00244975 -0.00672011 0.0603116 0 0 0 -0.0420753 -0.523624 -0.0718981 0 -1.05196e-05 0 0 0 0 0 0 0 0 0 0 0 0 0 0 0 0 0 0 0.0008 0 
14277 4 0.0121276 0.00907714 -0.0582102 0 0 0 2.54058 -11.0185 -4.02955 0 -1.05196e-05 0 0 0 0 0 0 0 0 0 0 0 0 0 0 0 0 0 0 0.0008 0 
9452 5 0.0104834 0.00976733 -0.0582129 0 0 0 2.2899 -11.4101 -2.20124 0 -1.05196e-05 0 0 0 0 0 0 0 0 0 0 0 0 0 0 0 0 0 22 0.0008 0 
14256 8 0.0158316 0.0171484 -0.0583725 0 0 0 -1.98624e-15 -0.102644 -0.12204 0 -1.05196e-05 0 0 0 0 0 0 0 0 0 0 0 0 0 0 0 0 0 0 0.0008 0 
13527 2 0.00178323 0.0179606 -0.0581136 0 0 0 -0.0480468 -0.4179 -0.0829948 0 -1.05196e-05 0 0 0 0 0 0 0 0 0 0 0 0 0 0 0 0 0 0 0.0008 0 
5696 7 0.0178987 0.0115352 -0.0577008 0 0 0 0.653794 -1.62813 -0.323154 0 -1.05196e-05 0 0 0 0 0 0 0 0 0 0 0 0 0 0 0 0 0 28 0.0008 0 
14080 2 0.0147493 0.00291369 -0.0564264 0 0 0 -0.907419 -9.37418 0.207789 0 -1.05196e-05 0 0 0 0 0 0 0 0 0 0 0 0 0 0 0 0 0 0 0.0008 0 
255 2 0.00643353 0.0259198 -0.0550299 0 0 0 -0.0133345 -0.0437935 0.0249807 0 -1.05196e-05 0 0 0 0 0 0 0 0 0 0 0 0 0 0 0 0 0 38 0.0008 0 
6316 4 0.0135542 0.0325964 -0.0502637 0 0 0 1.85443 0.396055 -12.4682 0 -1.05196e-05 0 0 0 0 0 0 0 0 0 0 0 0 0 0 0 0 0 28 0.0008 0 
14139 7 0.0118111 0.0254806 -0.0489341 0 0 0 -0.890944 0.120791 -2.06571 0 -1.05196e-05 0 0 0 0 0 0 0 0 0 0 0 0 0 0 0 0 0 0 0.0008 0 
14278 9 0.00276252 0.0285091 -0.0470814 0 0 0 0.57002 -4.48871 -2.52092 0 -1.05196e-05 0 0 0 0 0 0 0 0 0 0 0 0 0 0 0 0 0 0 0.0008 0 
14283 2 0.00202609 0.0364218 -0.0459417 0 0 0 -0.0646224 -8.86026 -6.80038 0 -1.05196e-05 0 0 0 0 0 0 0 0 0 0 0 0 0 0 0 0 0 0 0.0008 0 
392 3 0.0122982 0.0505802 -0.0355 0 0 0 -1.4394e-302 4.72595e-20 2.3606e-12 9.30737e-308 0 2.22045e-16 0 0 0 0 0 0 0 0 0 0 0 0 0 0 0 0 41 0.0008 0 
2321 7 0.0103024 0.0510911 -0.0355 0 0 0 -3.71325e-303 8.49183e-20 5.89792e-12 -9.32419e-308 8.47033e-22 2.22045e-16 0 0 0 0 0 0 0 0 0 0 0 0 0 0 0 0 0 0.0008 0 
283 5 0.00793068 0.0522245 -0.0355 0 0 0 2.58858e-248 -8.46987e-20 -3.535e-12 3.52575e-250 0 -2.22045e-16 0 0 0 0 0 0 0 0 0 0 0 0 0 0 0 0 0 0.0008 0 
478 2 0.00645314 0.0529593 -0.0355 0 0 0 4.37125e-302 -9.65306e-21 -1.18146e-12 9.16577e-308 0 -2.22045e-16 0 0 0 0 0 0 0 0 0 0 0 0 0 0 0 0 0 0.0008 0 
7581 4 0.0101836 0.0535164 -0.0355 0 0 0 -5.87853e-303 -5.6428e-20 -3.53505e-12 9.39025e-308 0 -2.22045e-16 0 0 0 0 0 0 0 0 0 0 0 0 0 0 0 0 35 0.0008 0 
13677 5 0.0128844 0.0530441 -0.0355 0 0 0 -1.5585e-302 -5.65374e-20 -1.18147e-12 -9.47505e-308 0 -2.22045e-16 0 0 0 0 0 0 0 0 0 0 0 0 0 0 0 0 0 0.0008 0 
871 8 0.00608357 0.0559182 -0.0355 0 0 0 3.38207e-208 4.76835e-20 -2.26131e-15 -5.52277e-209 0 0 0 0 0 0 0 0 0 0 0 0 0 0 0 0 0 0 1 0.0008 0 
5520 7 0.00939863 0.0550316 -0.0355 0 0 0 -2.14213e-47 4.71211e-20 4.72348e-12 -1.4609e-48 0 2.22045e-16 0 0 0 0 0 0 0 0 0 0 0 0 0 0 0 0 31 0.0008 0 
9691 4 0.0139172 0.0551122 -0.0354999 0 0 0 7.72822e-17 -5.15031e-17 -1.18153e-12 -1.73472e-18 0 0 0 0 0 1 0 0 0 0 0 0 0 0 0 0 0 0 19 0.0008 0 
10506 2 0.0154577 0.0553833 -0.0355001 0 0 0 -8.99986e-17 5.14768e-17 -1.18146e-12 1.73472e-18 8.67362e-19 0 0 0 0 1 0 0 0 0 0 0 0 0 0 0 0 0 31 0.0008 0 
6540 8 0.00803696 0.0564624 -0.0355 0 0 0 -1.31127e-17 8.54384e-17 -2.36056e-12 0 0 2.22045e-16 0 0 0 0 0 0 0 1 0 0 0 0 0 0 0 0 69 0.0008 0 
2565 7 0.00820912 0.0580339 -0.0355 0 0 0 1.32158e-17 -9.0412e-17 -2.36056e-12 2.1684e-19 0 0 0 0 0 0 0 0 0 1 0 0 0 0 0 0 0 0 69 0.0008 0 
10198 9 0.00995468 0.0577293 -0.0355002 0 0 0 -4.47242e-17 1.32443e-17 2.95013e-12 0 0 0 0 0 0 0 0 0 0 0 1 0 0 0 0 0 0 0 43 0.0008 0 
5323 6 0.0115218 0.0578309 -0.0354998 0 0 0 8.24084e-17 -1.30622e-17 2.95022e-12 0 0 0 0 0 0 0 0 0 0 0 1 0 0 0 0 0 0 0 53 0.0008 0 
1583 3 0.0133695 0.0576824 -0.0355 0 0 0 1.68055e-173 -4.71515e-20 2.36061e-12 -1.73467e-173 0 -2.22045e-16 0 0 0 0 0 0 0 0 0 0 0 0 0 0 0 0 7 0.0008 0 
8195 2 0.0153327 0.0581086 -0.0355 0 0 0 1.48533e-293 9.37481e-21 -2.25553e-15 3.65268e-294 0 0 0 0 0 0 0 0 0 0 0 0 0 0 0 0 0 0 0 0.0008 0 
7394 6 0.0089629 0.0602776 -0.0355 0 0 0 2.2437e-302 3.77209e-20 4.72345e-12 -9.30113e-308 0 2.22045e-16 0 0 0 0 0 0 0 0 0 0 0 0 0 0 0 0 0 0.0008 0 
10333 5 0.017121 0.0610113 -0.0355 0 0 0 5.43312e-111 5.65997e-20 -3.53502e-12 1.51926e-111 0 2.22045e-16 0 0 0 0 0 0 0 0 0 0 0 0 0 0 0 0 0 0.0008 0 