ITEM: TIMESTEP
4900000
ITEM: NUMBER OF ATOMS
9071
ITEM: BOX BOUNDS ff ff ff
-0.01 0.45
-0.15 0.15
-0.08 0.1
ITEM: ATOMS id type x y z ix iy iz vx vy vz fx fy fz c_cc_1 c_cc_2 c_cc_3 c_cc_4 c_cc_5 c_cc_6 c_cc_7 c_cc_8 c_cc_9 c_cc_10 c_cc_11 c_cc_12 c_cc_13 c_cc_14 c_cc_15 c_cc_16 f_fppacc radius c_cc_17 
7072 4 0.00337921 -0.00683644 -0.0605361 0 0 0 0.729676 -0.264716 -0.122364 0 -1.05196e-05 0 0 0 0 0 0 0 0 0 0 0 0 0 0 0 0 0 0 0.0008 0 
8712 10 0.0127691 -0.0142452 -0.0591607 0 0 0 -0.0118938 -0.0622807 0.0887037 0 -1.05196e-05 0 0 0 0 0 0 0 0 0 0 0 0 0 0 0 0 0 0 0.0008 0 
8603 2 0.0175784 -0.0145207 -0.0590655 0 0 0 -0.00163607 -0.090311 0.0449862 0 -1.05196e-05 0 0 0 0 0 0 0 0 0 0 0 0 0 0 0 0 0 0 0.0008 0 
8382 2 0.0091644 -0.0166823 -0.0582321 0 0 0 0.0857848 -1.20585 0.448824 0 -1.05196e-05 0 0 0 0 0 0 0 0 0 0 0 0 0 0 0 0 0 1 0.0008 0 
3670 4 0.00212794 -0.0120515 -0.0578672 0 0 0 0.030627 -10.2914 5.08916 -0.000152866 -0.0137389 -0.0286884 0 0 0 0 0 0 0 0 0 0 0 0 0 0 0 0 15 0.0008 0 
9045 6 0.0150197 -0.0133643 -0.0569132 0 0 0 -7.41836 -16.6161 2.00334 0 -1.05196e-05 0 0 0 0 0 0 0 0 0 0 0 0 0 0 0 0 0 0 0.0008 0 
7629 1 0.00373878 -0.00345803 -0.0561553 0 0 0 -0.988655 -1.74942 0.0437628 0 -1.05196e-05 0 0 0 0 0 0 0 0 0 0 0 0 0 0 0 0 0 9 0.0008 0 
9160 14 0.0143216 -0.0247576 -0.0554974 0 0 0 -0.000261539 -0.113072 0.0094495 0 -1.05196e-05 0 0 0 0 0 0 0 0 0 0 0 0 0 0 0 0 0 0 0.0008 0 
9333 4 0.00564245 -0.0201778 -0.0554013 0 0 0 0.341874 -2.18783 -0.32723 0 -1.05196e-05 0 0 0 0 0 0 0 0 0 0 0 0 0 0 0 0 0 0 0.0008 0 
9432 10 0.0135117 -0.00512589 -0.0535629 0 0 0 -0.00072626 -16.1863 5.23986 0 -1.05196e-05 0 0 0 0 0 0 0 0 0 0 0 0 0 0 0 0 0 0 0.0008 0 
9411 5 0.00212266 -0.00192427 -0.0527764 0 0 0 0.578364 -4.16593 -1.38373 0 -1.05196e-05 0 0 0 0 0 0 0 0 0 0 0 0 0 0 0 0 0 0 0.0008 0 
894 6 0.0152336 -0.0340135 -0.0506355 0 0 0 -0.0415006 -0.297997 0.206194 0 -1.05196e-05 0 0 0 0 0 0 0 0 0 0 0 0 0 0 0 0 0 3 0.0008 0 
9389 1 0.0125522 -0.0292787 -0.0511346 0 0 0 -0.00775407 -7.03313 3.92035 0 -1.05196e-05 0 0 0 0 0 0 0 0 0 0 0 0 0 0 0 0 0 0 0.0008 0 
9410 2 0.0173276 -0.0266304 -0.0509779 0 0 0 -0.000151428 -10.1623 1.22438 0 -1.05196e-05 0 0 0 0 0 0 0 0 0 0 0 0 0 0 0 0 0 0 0.0008 0 
9387 3 0.0103523 -0.0413751 -0.0447756 0 0 0 1.06544 -2.47165 1.7601 0 -1.05196e-05 0 0 0 0 0 0 0 0 0 0 0 0 0 0 0 0 0 0 0.0008 0 
4071 8 0.0171068 -0.0446281 -0.0414886 0 0 0 0.116457 -0.337777 0.386498 0 -1.05196e-05 0 0 0 0 0 0 0 0 0 0 0 0 0 0 0 0 0 3 0.0008 0 
7937 2 0.00255169 -0.0457092 -0.0403051 0 0 0 0.0408794 -0.157021 0.178575 0 -1.05196e-05 0 0 0 0 0 0 0 0 0 0 0 0 0 0 0 0 0 0 0.0008 0 
2799 2 0.009569 -0.0490796 -0.0364305 0 0 0 -0.321668 -0.263725 0.491327 0 -1.05196e-05 0 0 0 0 0 0 0 0 0 0 0 0 0 0 0 0 0 4 0.0008 0 
7800 4 0.0109131 -0.0533419 -0.0296026 0 0 0 0.000770636 -0.318208 0.528228 4.00446e-10 -1.42196e-06 1.47474e-05 0 0 0 0 0 0 0 0 0 0 0 0 0 0 0 0 0 0.0008 0 
9372 4 0.00744962 -0.0180057 -0.026638 0 0 0 0.328932 -2.00754 1.36899 0 -1.05196e-05 0 0 0 0 0 0 0 0 0 0 0 0 0 0 0 0 0 0 0.0008 0 
4603 1 0.016377 -0.0572412 -0.0209273 0 0 0 -0.337895 -0.0559598 0.144449 -8.52323e-17 -9.80505e-07 2.53098e-06 0 0 0 0 0 0 0 0 0 0 0 0 0 0 0 0 1 0.0008 0 
9371 3 0.011909 -0.055586 -0.0161149 0 0 0 1.33318 -1.49064 8.0475 0 -1.05196e-05 0 0 0 0 0 0 0 0 0 0 0 0 0 0 0 0 0 0 0.0008 0 
5167 8 0.00135611 -0.0606676 -0.00708025 0 0 0 0.0169335 -0.00106619 0.00640823 3.26809e-08 -2.45034e-07 1.38963e-06 0 0 0 0 0 0 0 0 0 0 0 0 0 0 0 0 1 0.0008 0 
7649 2 0.00277039 -0.0605297 -0.00781773 0 0 0 -0.00772796 0.00743128 -0.0404068 -4.4878e-06 -1.73142e-06 2.20976e-06 0 0 0 0 0 0 0 0 0 0 0 0 0 0 0 0 0 0.0008 0 
7286 3 0.0187164 -0.0606341 -0.00725958 0 0 0 -0.0553065 -0.00696318 0.0372497 9.82426e-18 -2.53692e-07 1.35713e-06 0 0 0 0 0 0 0 0 0 0 0 0 0 0 0 0 0 0.0008 0 
5540 9 0.000857461 -0.0609356 -0.00555821 0 0 0 0.00415913 -2.56718e-07 -0.00153814 -3.00315e-13 1.27669e-09 1.11063e-13 0 0 0 0 0 0 0 0 0 0 0 0 0 0 0 0 4 0.0008 0 
3512 5 0.00351493 -0.0608605 -0.00533759 0 0 0 0.159931 -0.0254671 -0.0117899 0 -1.05196e-05 0 0 0 0 0 0 0 0 0 0 0 0 0 0 0 0 0 20 0.0008 0 
9156 4 0.0171681 -0.0608997 -0.00583725 0 0 0 0.0143209 0.0179983 -0.0893236 0 -1.05196e-05 0 0 0 0 0 0 0 0 0 0 0 0 0 0 0 0 0 0 0.0008 0 
4164 1 0.000888315 -0.0609356 -0.00394563 0 0 0 -0.0160125 3.86262e-09 0.00114598 -1.77526e-14 -1.07884e-10 1.2705e-15 0 0 0 0 0 0 0 0 0 0 0 0 0 0 0 0 10 0.0008 0 
6408 2 0.00446823 -0.0609356 -0.00403073 0 0 0 0.0316078 1.93298e-07 0.000411239 1.77192e-12 -7.69085e-09 2.30538e-14 0 0 0 0 0 0 0 0 0 0 0 0 0 0 0 0 3 0.0008 0 
8128 3 0.0100272 -0.0609356 -0.00409678 0 0 0 -0.00337373 -4.26038e-12 0.0434083 0 0 0 0 0 0 0 0 0 0 0 0 0 0 0 0 0 0 0 0 0.0008 0 
7121 2 0.0153409 -0.0609356 -0.00417494 0 0 0 0.042018 4.92432e-12 -0.012488 1.07167e-19 0 1.19809e-18 0 0 0 0 0 0 0 0 0 0 0 0 0 0 0 0 0 0.0008 0 
9293 1 0.00424233 -0.0577962 -0.00452782 0 0 0 2.22065 -0.441536 11.3518 0 -1.05196e-05 0 0 0 0 0 0 0 0 0 0 0 0 0 0 0 0 0 0 0.0008 0 
72 4 0.0028192 -0.0609356 -0.00287354 0 0 0 0.00407914 -1.68601e-09 -0.00295769 -1.95241e-15 2.61243e-11 1.41568e-15 0 0 0 0 0 0 0 0 0 0 0 0 0 0 0 0 4 0.0008 0 
6702 2 0.00563466 -0.0609356 -0.00279878 0 0 0 0.0158808 7.48462e-05 0.00196441 -2.63018e-06 -8.47046e-07 -7.22383e-06 0 1 0 0 0 0 0 0 0 0 0 0 0 0 0 0 1 0.0008 0 
7390 5 0.0121261 -0.0609356 -0.00369169 0 0 0 0.0635928 8.99474e-14 -0.0275048 -9.66844e-18 2.08878e-18 3.47456e-18 0 0 0 0 0 0 0 0 0 0 0 0 0 0 0 0 0 0.0008 0 
1200 7 0.00115997 -0.0609356 -0.00236045 0 0 0 0.00155414 7.64327e-07 -0.0023885 3.36159e-13 -1.30812e-08 -5.20689e-13 0 0 0 0 0 0 0 0 0 0 0 0 0 0 0 0 2 0.0008 0 
7431 2 0.00419612 -0.0609356 -0.00203765 0 0 0 0.0055397 -2.00164e-12 -0.00375654 -5.53232e-18 -4.93772e-14 3.7076e-18 0 0 0 0 0 0 0 0 0 0 0 0 0 0 0 0 0 0.0008 0 
3427 4 0.00765239 -0.0609356 -0.00265498 0 0 0 -0.00374912 6.6968e-12 0.0106163 3.92345e-19 0 -1.19806e-18 0 0 0 0 0 0 0 0 0 0 0 0 0 0 0 0 3 0.0008 0 
3630 1 0.00988454 -0.0609356 -0.00235308 0 0 0 0.0213969 -4.67688e-10 -0.00971379 -2.81688e-15 1.98277e-12 1.27898e-15 0 0 0 0 0 0 0 0 0 0 0 0 0 0 0 0 3 0.0008 0 
7313 1 0.0124163 -0.0609356 -0.00197253 0 0 0 0.0198953 2.82956e-12 -0.000940575 2.41715e-18 0 1.49753e-19 0 0 0 0 0 0 0 0 0 0 0 0 0 0 0 0 0 0.0008 0 
4780 5 0.0144718 -0.0609356 -0.00265227 0 0 0 -0.0188321 -4.90492e-12 -0.0283243 -2.3958e-18 0 -4.79203e-18 0 0 0 0 0 0 0 0 0 0 0 0 0 0 0 0 0 0.0008 0 
3509 2 0.0168913 -0.0609356 -0.00197596 0 0 0 -0.0660353 3.63524e-12 0.0313641 9.66905e-18 0 -4.79176e-18 0 0 0 0 0 0 0 0 0 0 0 0 0 0 0 0 4 0.0008 0 
1871 2 0.000802743 -0.0609356 -0.000793428 0 0 0 -0.00109139 -6.3078e-10 -5.00508e-05 1.95331e-16 9.61462e-12 8.95816e-18 0 0 0 0 0 0 0 0 0 0 0 0 0 0 0 0 8 0.0008 0 
414 7 0.00238048 -0.0609356 -0.00132547 0 0 0 0.00019975 -6.3881e-05 -0.00195687 -1.65796e-06 1.53569e-06 -4.9272e-07 0 0 0 0 0 0 1 0 0 0 0 0 0 0 0 0 6 0.0008 0 
4185 5 0.00565315 -0.0609356 -0.00119908 0 0 0 0.00678896 -4.54302e-05 0.00233925 4.85376e-06 7.75774e-07 1.72971e-06 0 1 0 0 1 0 0 0 0 0 0 0 0 0 0 0 13 0.0008 0 
4095 1 0.00723363 -0.0609356 -0.000933036 0 0 0 0.00296277 -3.29589e-07 0.0105393 -2.46466e-13 -1.15044e-08 -9.37916e-13 0 0 0 0 0 0 0 0 0 0 0 0 0 0 0 0 6 0.0008 0 
3491 3 0.00894996 -0.0609356 -0.0010436 0 0 0 0.00912262 5.66002e-10 -0.0162241 1.44212e-15 1.71806e-12 -2.56485e-15 0 0 0 0 0 0 0 0 0 0 0 0 0 0 0 0 3 0.0008 0 
209 4 0.0105417 -0.0609356 -0.000665559 0 0 0 0.00955836 -3.93138e-13 -0.00784242 -1.1981e-18 0 1.198e-18 0 0 0 0 0 0 0 0 0 0 0 0 0 0 0 0 7 0.0008 0 
690 7 0.00234606 -0.0609356 0.000286259 0 0 0 0.00100993 6.41514e-06 -0.00106345 -9.0115e-07 5.81891e-09 1.99131e-07 0 0 0 0 0 0 1 0 0 0 0 0 0 0 0 0 6 0.0008 0 
553 2 0.00374499 -0.0609356 -0.00049022 0 0 0 0.00020856 0.000202767 -0.00178437 3.66931e-06 -2.54799e-06 -1.16963e-06 0 1 0 0 0 0 2 0 0 0 0 0 0 0 0 0 9 0.0008 0 
1002 3 0.00512886 -0.0609356 0.000312477 0 0 0 -0.000583471 -0.000262084 -0.000497356 1.36879e-06 1.20658e-06 1.20231e-06 0 1 0 0 1 0 0 0 0 0 0 0 0 0 0 0 14 0.0008 0 
634 1 0.0124091 -0.0609356 -0.000349945 0 0 0 -0.00357455 -1.97522e-06 -0.00723268 1.03169e-12 -3.81023e-08 8.45329e-12 0 0 0 0 0 0 0 0 0 0 0 0 0 0 0 0 4 0.0008 0 
7843 6 0.0151056 -0.0609356 9.80562e-06 0 0 0 -0.00337815 8.42536e-05 0.00790418 1.10614e-05 1.16263e-06 -1.4711e-06 0 0 0 0 0 1 0 0 0 0 0 0 0 0 0 0 3 0.0008 0 
7053 4 0.0166699 -0.0609356 0.000346689 0 0 0 -0.00303962 -0.00135886 0.0084212 -6.02341e-06 6.97587e-06 6.34358e-06 0 0 0 0 0 0 0 0 0 0 0 0 0 0 0 0 7 0.0008 0 
206 1 0.000806953 -0.0609356 0.000818207 0 0 0 0.00102641 -7.41935e-13 0.00141006 1.52485e-19 -6.12821e-15 1.50428e-19 0 0 0 0 0 0 0 0 0 0 0 0 0 0 0 0 20 0.0008 0 
101 5 0.00373382 -0.0609356 0.00112119 0 0 0 -0.000498388 3.62777e-09 -0.000849484 -5.07392e-16 -9.15897e-12 -8.64841e-16 0 0 0 0 0 0 0 0 0 0 0 0 0 0 0 0 16 0.0008 0 
4165 3 0.00659233 -0.0609356 0.00102702 0 0 0 0.0056694 -2.13321e-11 -0.000588769 -3.0698e-17 -5.36157e-14 3.21072e-18 0 0 0 0 0 0 0 0 0 0 0 0 0 0 0 0 1 0.0008 0 
7185 2 0.00956639 -0.0609356 0.00108923 0 0 0 0.0020116 -5.8436e-07 0.00179757 -1.79756e-12 5.87195e-08 2.3803e-13 0 0 0 0 0 0 0 0 0 0 0 0 0 0 0 0 5 0.0008 0 
1887 11 0.0116723 -0.0609356 0.00107235 0 0 0 0.0274848 4.81972e-07 0.0110577 4.58259e-12 1.01717e-08 5.70417e-13 0 0 0 0 0 0 0 0 0 0 0 0 0 0 0 0 2 0.0008 0 
7844 8 0.0136538 -0.0609356 0.00068233 0 0 0 -0.0029129 -9.28273e-05 0.00171615 -8.20475e-06 -1.17408e-06 2.5326e-07 0 0 0 0 0 1 0 0 0 0 0 0 0 0 0 0 1 0.0008 0 
398 2 0.0180782 -0.0609357 0.00122023 0 0 0 0.00205832 -0.000136712 0.0221393 9.54059e-08 8.87973e-06 1.01539e-06 0 1 0 0 0 0 0 0 0 0 0 0 0 0 0 0 16 0.0008 0 
1972 6 0.000808492 -0.0609356 0.00242375 0 0 0 -0.000460776 -2.11561e-11 0.00214873 2.70304e-18 2.64494e-13 -1.26157e-17 0 0 0 0 0 0 0 0 0 0 0 0 0 0 0 0 28 0.0008 0 
280 2 0.0023171 -0.0609356 0.00188892 0 0 0 -0.00139435 -6.52372e-12 -0.000664024 5.81588e-19 9.50026e-15 2.59003e-19 0 0 0 0 0 0 0 0 0 0 0 0 0 0 0 0 18 0.0008 0 
585 3 0.00513093 -0.0609356 0.00191227 0 0 0 0.000116246 -1.50343e-05 -0.000596901 -2.39859e-06 -1.03318e-06 1.20809e-06 0 0 2 0 0 0 0 0 0 0 0 0 0 0 0 0 11 0.0008 0 
1920 3 0.00807014 -0.0609355 0.00166322 0 0 0 -0.00153774 -0.000329335 0.00151484 -8.19892e-07 -8.14182e-06 -1.38046e-06 0 0 0 0 0 0 0 0 0 0 0 0 0 0 0 0 10 0.0008 0 
5892 2 0.0108961 -0.0609356 0.00248524 0 0 0 0.00155507 -8.10415e-12 -0.00102779 -3.75987e-18 3.20153e-13 2.49548e-18 0 0 0 0 0 0 0 0 0 0 0 0 0 0 0 0 6 0.0008 0 
5313 7 0.0125688 -0.0609356 0.00258264 0 0 0 0.00282852 1.10137e-09 -0.00322366 8.70023e-16 3.05547e-12 -9.91561e-16 0 0 0 0 0 0 0 0 0 0 0 0 0 0 0 0 1 0.0008 0 
4298 7 0.014147 -0.0609356 0.00220471 0 0 0 0.0011368 5.62925e-07 0.00116036 -7.50759e-10 -3.23494e-09 -1.82922e-09 0 0 0 0 0 0 0 0 0 0 0 0 0 0 0 0 6 0.0008 0 
316 1 0.0165499 -0.0609356 0.0019824 0 0 0 -0.0242678 1.72386e-06 0.0232012 4.60906e-07 4.01589e-07 -5.44109e-06 0 0 0 0 0 0 0 0 0 0 0 0 0 0 0 0 16 0.0008 0 
1894 5 0.00232734 -0.0609356 0.00349947 0 0 0 0.000104656 -2.05978e-12 0.00107268 2.10148e-20 4.97191e-14 2.08639e-19 0 0 0 0 0 0 0 0 0 0 0 0 0 0 0 0 39 0.0008 0 
317 1 0.00373481 -0.0609356 0.0027217 0 0 0 0.000425161 -8.60558e-08 -0.00127638 -1.19004e-07 2.88401e-09 -2.00824e-07 1 0 0 0 0 0 0 0 0 0 0 0 0 0 0 0 11 0.0008 0 
2069 4 0.00513148 -0.0609356 0.00351227 0 0 0 -0.00075341 -4.63248e-05 -0.000339111 -4.04755e-07 -2.29151e-07 -7.03883e-07 0 0 1 1 0 0 0 0 0 0 0 0 0 0 0 0 38 0.0008 0 
1470 6 0.00652404 -0.0609356 0.00269877 0 0 0 4.83052e-05 1.3461e-05 0.000243988 9.49116e-07 -2.29839e-09 -1.936e-06 0 0 1 0 0 2 0 0 0 0 0 0 0 0 0 0 22 0.0008 0 
18 2 0.00791765 -0.0609356 0.00348466 0 0 0 0.0012684 0.000154962 -0.000884702 4.13378e-07 1.61832e-07 6.56735e-09 0 1 0 0 0 1 0 0 0 0 0 0 0 0 0 0 15 0.0008 0 
1118 3 0.00930584 -0.0609357 0.0026794 0 0 0 0.00178641 0.000533793 -0.000174103 -1.68712e-06 4.02822e-06 -3.74672e-07 0 0 0 0 0 0 0 0 0 0 0 0 0 0 0 0 10 0.0008 0 
733 3 0.000803769 -0.0609356 0.00406182 0 0 0 0.000576413 -1.49901e-12 0.00808417 -2.40747e-19 1.38481e-13 -3.10812e-18 0 0 0 0 0 0 0 0 0 0 0 0 0 0 0 0 40 0.0008 0 
1705 8 0.00375039 -0.0609356 0.00432161 0 0 0 -0.000898798 1.63494e-06 -0.00126299 1.46161e-07 -5.49033e-09 -1.50075e-07 1 0 0 0 0 0 0 1 0 0 0 0 0 0 0 0 58 0.0008 0 
154 3 0.00652593 -0.0609356 0.00429863 0 0 0 0.000865358 -9.55192e-05 0.000162466 1.23275e-06 -3.3959e-07 -1.57596e-06 0 0 1 0 0 1 0 0 0 0 0 0 0 0 0 0 43 0.0008 0 
1890 2 0.00953597 -0.0609356 0.00426288 0 0 0 -0.00137861 9.60737e-06 -0.00144481 2.85043e-08 6.17566e-08 -3.57592e-07 0 1 0 0 0 0 0 0 0 0 0 0 0 0 0 0 24 0.0008 0 
5191 1 0.0116401 -0.0609356 0.00390212 0 0 0 0.00328622 1.84832e-07 -0.00202318 -2.76586e-08 4.81375e-09 -2.12309e-08 1 0 0 0 0 0 0 0 0 0 0 0 0 0 0 0 18 0.0008 0 
2966 5 0.0134675 -0.0609356 0.00390692 0 0 0 0.000176651 -4.98533e-06 -0.00133528 8.86547e-08 -4.07296e-08 -2.08229e-07 0 0 0 0 1 0 0 0 0 0 0 0 0 0 0 0 7 0.0008 0 
604 2 0.0150705 -0.0609356 0.00385579 0 0 0 0.000277223 -7.15407e-13 -0.00451067 -3.77703e-20 0 5.98995e-19 0 0 0 0 0 0 0 0 0 0 0 0 0 0 0 0 7 0.0008 0 
1937 15 0.0166732 -0.0609356 0.00380162 0 0 0 -0.000215403 1.41715e-09 -0.015482 -8.52041e-17 4.85057e-12 -6.12423e-15 0 0 0 0 0 0 0 0 0 0 0 0 0 0 0 0 19 0.0008 0 
2641 8 0.000818437 -0.0609253 0.0057017 0 0 0 0.00111444 0.00177393 0.00948968 -2.96181e-16 -2.53477e-07 -1.3562e-06 0 0 0 0 0 0 0 0 0 0 0 0 0 0 0 0 31 0.0008 0 
210 4 0.00232747 -0.0609356 0.00510745 0 0 0 -0.000161205 -8.39955e-12 0.00228883 5.27827e-19 1.22544e-13 -7.55311e-18 0 0 0 0 0 0 0 0 0 0 0 0 0 0 0 0 51 0.0008 0 
531 10 0.005146 -0.0609356 0.00511212 0 0 0 0.000198914 -0.000170754 -3.66884e-05 -6.49358e-07 2.27801e-07 -4.9212e-07 0 0 0 1 0 0 0 0 0 2 0 0 0 0 0 0 53 0.0008 0 
1367 1 0.00792771 -0.0609356 0.00508461 0 0 0 -0.00049787 6.97129e-07 -0.00089398 1.4045e-07 -1.42647e-07 2.98959e-08 1 1 0 0 0 0 0 0 0 0 0 0 0 0 0 0 33 0.0008 0 
6574 6 0.0108542 -0.0609356 0.00529586 0 0 0 0.000745595 1.72667e-06 -0.00413375 2.50963e-10 -6.15102e-08 -1.58665e-08 0 0 0 0 0 0 0 0 0 0 0 0 0 0 0 0 22 0.0008 0 
570 3 0.0125504 -0.0609356 0.00521794 0 0 0 0.00126507 -2.54461e-05 -0.00065571 3.79892e-07 4.05664e-08 -2.96028e-07 1 0 1 0 1 0 0 0 0 0 0 0 0 0 0 0 30 0.0008 0 
1039 2 0.0142061 -0.0609356 0.00539118 0 0 0 0.00650042 1.6888e-08 -0.00375531 3.68659e-08 9.67967e-13 -2.78571e-07 0 1 0 0 0 0 0 0 0 0 0 0 0 0 0 0 15 0.0008 0 
510 4 0.0158022 -0.0609356 0.00551108 0 0 0 0.00614165 -3.77697e-12 -2.80628e-05 4.49961e-19 0 3.91527e-21 0 0 0 0 0 0 0 0 0 0 0 0 0 0 0 0 17 0.0008 0 
6920 6 0.0179247 -0.0609356 0.00481393 0 0 0 -0.00843638 4.17771e-09 -0.00116607 -9.97542e-15 -5.093e-11 -1.37881e-15 0 0 0 0 0 0 0 0 0 0 0 0 0 0 0 0 5 0.0008 0 
3865 4 0.00232681 -0.0607394 0.00669621 0 0 0 -0.00133088 -0.000303288 -0.00162244 2.85569e-19 -2.53692e-07 -1.35713e-06 0 0 0 0 0 0 0 0 0 0 0 0 0 0 0 0 30 0.0008 0 
2352 2 0.00374462 -0.0608844 0.00592072 0 0 0 6.10063e-05 -0.000233403 -0.00124456 -3.12458e-08 -6.27321e-08 -1.69956e-07 0 1 0 0 0 0 0 1 0 0 0 0 0 0 0 0 46 0.0008 0 
2116 2 0.0051382 -0.0607387 0.00669977 0 0 0 0.00059585 3.91831e-05 -0.000786 -1.11562e-06 2.42977e-06 8.83685e-06 0 0 0 0 0 0 0 0 0 1 0 0 0 0 0 0 43 0.0008 0 
3087 1 0.00653896 -0.0608887 0.00589775 0 0 0 0.00049642 -0.000313938 -0.000113792 1.10592e-06 1.41484e-06 -1.63744e-08 2 0 1 0 0 0 0 0 0 1 0 0 0 0 0 0 42 0.0008 0 
3081 3 0.00793105 -0.0607437 0.00667301 0 0 0 0.000146083 -0.000181111 -0.000917094 2.15565e-06 -9.44889e-07 -2.80092e-06 2 0 1 0 0 0 0 0 0 0 0 0 0 0 0 0 30 0.0008 0 
4938 7 0.00934708 -0.0608974 0.00585118 0 0 0 0.000840958 -0.00021583 -0.00112126 -1.1402e-07 -8.25257e-08 -2.11472e-07 0 1 0 0 0 0 0 0 0 0 0 0 0 0 0 0 37 0.0008 0 
2951 1 0.0123003 -0.060723 0.00678383 0 0 0 -2.74484e-05 -0.000170041 -0.000965581 1.36509e-06 4.25955e-07 9.03451e-07 1 0 1 0 0 0 0 0 0 0 0 0 0 0 0 0 12 0.0008 0 
5113 5 0.000800317 -0.0606178 0.00734659 0 0 0 5.51788e-05 0.0035546 0.0190154 -2.2701e-20 -2.53692e-07 -1.35713e-06 0 0 0 0 0 0 0 0 0 0 0 0 0 0 0 0 16 0.0008 0 
3869 8 0.00372563 -0.0605904 0.00749332 0 0 0 -7.41329e-05 -0.000231218 -0.00123628 -9.05149e-09 -2.83754e-08 -3.47727e-07 0 1 0 0 0 0 0 0 0 0 0 0 0 0 0 0 33 0.0008 0 
4248 10 0.006536 -0.0605947 0.00747026 0 0 0 -0.000311452 1.43651e-05 -0.000791549 1.4497e-06 4.37048e-06 7.96713e-06 1 0 0 0 0 0 0 0 0 1 0 0 0 0 0 0 26 0.0008 0 
5900 8 0.00925923 -0.0605798 0.00754993 0 0 0 0.00103145 -0.000405763 -0.00241054 -1.44385e-06 2.32916e-07 -1.68438e-07 0 0 1 0 0 0 0 1 0 0 0 0 0 0 0 0 9 0.0008 0 
1352 4 0.010703 -0.0607065 0.00687214 0 0 0 -0.00025335 -0.000760542 -0.00398225 -2.00874e-06 -7.12005e-07 -8.85814e-07 1 0 0 0 0 0 0 1 0 0 0 0 0 0 0 0 10 0.0008 0 
6135 3 0.0138951 -0.0606935 0.00694183 0 0 0 -0.002052 -0.000993626 -0.00531535 -1.70766e-07 -6.77774e-08 -3.62573e-07 0 1 0 0 0 0 0 0 0 0 0 0 0 0 0 0 4 0.0008 0 
1165 1 0.00229608 -0.0604387 0.00830498 0 0 0 -0.00339548 0.000679304 0.00363395 -7.55852e-19 -2.53692e-07 -1.35713e-06 0 0 0 0 0 0 0 0 0 0 0 0 0 0 0 0 42 0.0008 0 
1045 8 0.00516089 -0.0604445 0.00827386 0 0 0 0.000219189 0.000210372 0.00079909 -7.08151e-06 -2.40414e-06 5.26275e-06 0 0 0 0 0 0 0 0 0 1 0 0 0 0 0 0 4 0.0008 0 
4325 3 0.000800053 -0.0603064 0.00901262 0 0 0 2.15248e-05 0.00605963 0.0324161 -4.05272e-20 -2.53692e-07 -1.35713e-06 0 0 0 0 0 0 0 0 0 0 0 0 0 0 0 0 16 0.0008 0 
6076 6 0.00371721 -0.0602941 0.00907842 0 0 0 0.00569389 -0.000803789 -0.00407614 9.32588e-11 -2.35726e-07 -1.35805e-06 0 0 0 0 0 0 0 0 0 0 0 0 0 0 0 0 5 0.0008 0 
2858 2 0.00236787 -0.0601357 0.00992596 0 0 0 0.0151648 0.00259548 0.0136309 8.45375e-10 7.39485e-08 -1.42325e-06 0 0 0 0 0 0 0 0 0 0 0 0 0 0 0 0 14 0.0008 0 
9120 7 0.0150893 -0.0599011 0.0111807 0 0 0 -0.0265744 -0.016016 -0.0856777 -3.76902e-18 -2.53692e-07 -1.35713e-06 0 0 0 0 0 0 0 0 0 0 0 0 0 0 0 0 0 0.0008 0 
6264 4 0.0176317 -0.054565 0.0219818 0 0 0 -12.0942 7.25651 16.1314 0 -1.05196e-05 0 0 0 0 0 0 0 0 0 0 0 0 0 0 0 0 0 1 0.0008 0 
8267 8 0.00990307 -0.0564946 0.0228544 0 0 0 -0.000665212 -0.0458837 -0.11844 1.8908e-18 -9.80505e-07 -2.53098e-06 0 0 0 0 0 0 0 0 0 0 0 0 0 0 0 0 0 0.0008 0 
5067 2 0.00174414 -0.0541892 0.0231761 0 0 0 -0.983101 3.86937 9.14684 0.16212 -0.0271187 -0.0763928 0 0 0 0 0 0 0 0 0 0 0 0 0 0 0 0 12 0.0008 0 
1305 4 0.00313354 -0.0521986 0.0247782 0 0 0 -3.75259 9.95021 16.6975 0 -1.05196e-05 0 0 0 0 0 0 0 0 0 0 0 0 0 0 0 0 0 5 0.0008 0 
7086 2 0.00822875 -0.0494984 0.0298988 0 0 0 0.863431 4.996 7.26088 0 -1.05196e-05 0 0 0 0 0 0 0 0 0 0 0 0 0 0 0 0 0 5 0.0008 0 
1067 2 0.00615856 -0.049657 0.0306147 0 0 0 -0.499878 4.79217 5.62026 0 -1.05196e-05 0 0 0 0 0 0 0 0 0 0 0 0 0 0 0 0 0 17 0.0008 0 
9394 1 0.00443555 -0.0173333 0.0318637 0 0 0 4.69923 -13.5477 -2.24665 0 -1.05196e-05 0 0 0 0 0 0 0 0 0 0 0 0 0 0 0 0 0 0 0.0008 0 
9374 9 0.00241327 -0.0410581 0.0420484 0 0 0 -0.0249314 6.54635 6.46197 0 -1.05196e-05 0 0 0 0 0 0 0 0 0 0 0 0 0 0 0 0 0 0 0.0008 0 
4634 2 0.0107524 -0.000763245 0.0477105 0 0 0 0.0465771 -2.89979 1.47683 0 -1.05196e-05 0 0 0 0 0 0 0 0 0 0 0 0 0 0 0 0 0 11 0.0008 0 
9392 5 0.00600616 -0.0286399 0.0515913 0 0 0 -2.36869 14.6026 9.79304 -0.00152472 0.0212376 -0.0349826 0 0 0 0 0 0 0 0 0 0 0 0 0 0 0 0 0 0.0008 0 
9210 2 0.0186612 -0.0301807 0.0530572 0 0 0 -3.41506e-05 -0.202272 -0.0892832 0 -1.05196e-05 0 0 0 0 0 0 0 0 0 0 0 0 0 0 0 0 0 0 0.0008 0 
1457 4 0.0181276 -0.0242542 0.0537372 0 0 0 -20.0989 32.3347 14.2095 0 -1.05196e-05 0 0 0 0 0 0 0 0 0 0 0 0 0 0 0 0 0 15 0.0008 0 
4739 3 0.00257401 -0.00572937 0.0586355 0 0 0 -2.57089 9.63219 0.373205 0 -1.05196e-05 0 0 0 0 0 0 0 0 0 0 0 0 0 0 0 0 0 16 0.0008 0 
9274 2 0.00765169 -0.00492449 0.0578256 0 0 0 0.290757 10.6007 2.35724 0 -1.05196e-05 0 0 0 0 0 0 0 0 0 0 0 0 0 0 0 0 0 0 0.0008 0 
7737 2 0.0161097 -0.00473134 0.0587343 0 0 0 -28.1937 47.4448 1.902 0 -1.05196e-05 0 0 0 0 0 0 0 0 0 0 0 0 0 0 0 0 0 2 0.0008 0 
9398 2 0.0173792 0.00540904 -0.0587544 0 0 0 0.377299 -13.5537 0.99139 -0.00205907 -0.0139257 0.0690627 0 0 0 0 0 0 0 0 0 0 0 0 0 0 0 0 0 0.0008 0 
9214 1 0.0161533 0.0214706 -0.0568936 0 0 0 0.00173712 -0.0802458 -0.044704 0 -1.05196e-05 0 0 0 0 0 0 0 0 0 0 0 0 0 0 0 0 0 0 0.0008 0 
5033 8 0.00809861 0.00768978 -0.0563094 0 0 0 -0.150169 -21.0336 2.07783 0 -1.05196e-05 0 0 0 0 0 0 0 0 0 0 0 0 0 0 0 0 0 14 0.0008 0 
9413 9 0.0124733 0.00433288 -0.0536977 0 0 0 0.000362902 -4.52748 -7.38775 0 -1.05196e-05 0 0 0 0 0 0 0 0 0 0 0 0 0 0 0 0 0 0 0.0008 0 
9385 8 0.00862165 0.0255586 -0.0509998 0 0 0 4.37981 -26.2341 1.63191 0 -1.05196e-05 0 0 0 0 0 0 0 0 0 0 0 0 0 0 0 0 0 0 0.0008 0 
1735 4 0.00320553 0.0299109 -0.049403 0 0 0 0.097091 -12.0423 -3.07951 0 -1.05196e-05 0 0 0 0 0 0 0 0 0 0 0 0 0 0 0 0 0 9 0.0008 0 
9079 12 0.0139399 0.0185258 -0.0476678 0 0 0 1.0465 -2.97976 -21.2244 0 -1.05196e-05 0 0 0 0 0 0 0 0 0 0 0 0 0 0 0 0 0 0 0.0008 0 
2260 2 0.0114411 0.0202708 -0.0475749 0 0 0 0.67311 -3.52727 -1.78781 0 -1.05196e-05 0 0 0 0 0 0 0 0 0 0 0 0 0 0 0 0 0 17 0.0008 0 
9393 6 0.0100586 0.033664 -0.0444041 0 0 0 -0.946947 -12.8594 -8.56558 0 -1.05196e-05 0 0 0 0 0 0 0 0 0 0 0 0 0 0 0 0 0 0 0.0008 0 
6512 1 0.0101845 0.0370151 -0.0447689 0 0 0 -0.8534 -6.65804 -8.16435 0 -1.05196e-05 0 0 0 0 0 0 0 0 0 0 0 0 0 0 0 0 0 5 0.0008 0 
8694 4 0.0152402 0.0339982 -0.0421479 0 0 0 3.55466 -3.66511 -5.80609 0 -1.05196e-05 0 0 0 0 0 0 0 0 0 0 0 0 0 0 0 0 0 0 0.0008 0 
9416 1 0.00778372 0.0404135 -0.0407857 0 0 0 -2.66795 -10.233 -7.53906 0 -1.05196e-05 0 0 0 0 0 0 0 0 0 0 0 0 0 0 0 0 0 0 0.0008 0 
9307 7 0.0118022 0.0456278 -0.0398802 0 0 0 -0.0119064 -0.0678593 -0.034617 0 -1.05196e-05 0 0 0 0 0 0 0 0 0 0 0 0 0 0 0 0 0 0 0.0008 0 
2321 7 0.0103359 0.0511048 -0.0355 0 0 0 -1.04492e-306 8.49439e-20 2.36053e-12 9.3873e-308 0 2.22045e-16 0 0 0 0 0 0 0 0 0 0 0 0 0 0 0 0 0 0.0008 0 
283 5 0.00810449 0.0522187 -0.0355 0 0 0 2.10469e-302 5.64588e-20 2.36056e-12 9.36131e-308 -8.47033e-22 -2.22045e-16 0 0 0 0 0 0 0 0 0 0 0 0 0 0 0 0 0 0.0008 0 
478 2 0.00645403 0.0529574 -0.0355 0 0 0 2.54808e-292 -8.49422e-20 4.72341e-12 1.17738e-295 0 -2.22045e-16 0 0 0 0 0 0 0 0 0 0 0 0 0 0 0 0 0 0.0008 0 
7581 4 0.0102231 0.0534929 -0.0355 0 0 0 -2.89043e-18 -4.89402e-18 5.89786e-12 3.38813e-20 -2.71051e-20 0 0 0 0 1 0 0 0 0 0 0 0 0 0 0 0 0 10 0.0008 0 
871 8 0.00614236 0.0558652 -0.0355 0 0 0 4.55855e-303 6.6144e-20 1.18149e-12 -9.37605e-308 0 2.22045e-16 0 0 0 0 0 0 0 0 0 0 0 0 0 0 0 0 1 0.0008 0 
5520 7 0.00960683 0.0549666 -0.0355 0 0 0 2.88794e-18 4.67091e-18 5.89791e-12 2.71051e-20 0 0 0 0 0 1 0 0 0 0 0 0 0 0 0 0 0 0 6 0.0008 0 
6540 8 0.0080394 0.056463 -0.0354999 0 0 0 -2.63667e-17 1.44747e-16 5.90193e-12 2.1684e-19 0 0 0 0 0 0 0 0 0 1 0 0 0 0 0 0 0 0 19 0.0008 0 
2565 7 0.00831894 0.0580135 -0.0355001 0 0 0 2.62907e-17 -1.35537e-16 5.90211e-12 0 0 0 0 0 0 0 0 0 0 1 0 0 0 0 0 0 0 0 19 0.0008 0 
1583 3 0.0133939 0.0576778 -0.0355 0 0 0 2.00516e-302 -5.63144e-20 -1.18145e-12 9.34318e-308 0 -2.22045e-16 0 0 0 0 0 0 0 0 0 0 0 0 0 0 0 0 7 0.0008 0 
8195 2 0.0153325 0.0581071 -0.0355 0 0 0 2.01355e-302 -1.85055e-23 3.53497e-12 9.38468e-308 0 2.22045e-16 0 0 0 0 0 0 0 0 0 0 0 0 0 0 0 0 0 0.0008 0 
7394 6 0.00896599 0.0602744 -0.0355 0 0 0 -3.89799e-291 -6.57269e-20 1.18145e-12 2.53269e-292 0 -2.22045e-16 0 0 0 0 0 0 0 0 0 0 0 0 0 0 0 0 0 0.0008 0 
3089 3 0.0107016 0.061745 -0.0355 0 0 0 -4.37892e-302 -6.59194e-20 2.36056e-12 -9.19445e-308 -8.47033e-22 -2.22045e-16 0 0 0 0 0 0 0 0 0 0 0 0 0 0 0 0 0 0.0008 0 
3064 5 0.00572229 0.0664187 -0.0355 0 0 0 3.62856e-302 -7.54504e-20 -3.53499e-12 9.45274e-308 8.47033e-22 -2.22045e-16 0 0 0 0 0 0 0 0 0 0 0 0 0 0 0 0 0 0.0008 0 
7839 6 0.0122574 0.0669967 -0.0355 0 0 0 1.57248e-302 9.54467e-21 -3.53501e-12 9.14996e-308 0 -2.22045e-16 0 0 0 0 0 0 0 0 0 0 0 0 0 0 0 0 0 0.0008 0 
5230 4 0.00286341 0.0725738 -0.0355 0 0 0 -2.44847e-219 4.72197e-20 -2.36058e-12 2.8857e-220 0 2.22045e-16 0 0 0 0 0 0 0 0 0 0 0 0 0 0 0 0 0 0.0008 0 
2130 11 0.0169238 0.0756724 -0.0354997 0 0 0 5.39601e-16 8.32882e-17 2.94838e-12 0 -3.46945e-18 0 0 0 0 0 0 0 0 0 0 0 1 0 0 0 0 0 34 0.0008 0 
4708 6 0.0184175 0.0757533 -0.0355003 0 0 0 -5.36271e-16 -8.48095e-17 2.9485e-12 0 3.90313e-18 0 0 0 0 0 0 0 0 0 0 0 1 0 0 0 0 0 37 0.0008 0 
1962 1 0.00586729 0.0767885 -0.0355 0 0 0 -7.44371e-05 -1.82725e-05 0.000127214 -4.59585e-06 -3.07972e-07 -1.12555e-05 0 0 0 0 0 0 0 0 0 0 0 0 0 0 0 0 3 0.0008 0 
5274 5 0.0152254 0.0938765 -0.0355 0 0 0 1.62799e-87 -8.47815e-20 -5.8979e-12 -9.77026e-90 0 2.22045e-16 0 0 0 0 0 0 0 0 0 0 0 0 0 0 0 0 0 0.0008 0 
5139 6 0.0109901 0.0697078 -0.0334216 0 0 0 0.110848 0.458258 0.739254 0 -1.05196e-05 0 0 0 0 0 0 0 0 0 0 0 0 0 0 0 0 0 10 0.0008 0 
5962 1 0.00338039 0.0733935 -0.0341729 0 0 0 0.756681 0.360352 -2.07283 0 -1.05196e-05 0 0 0 0 0 0 0 0 0 0 0 0 0 0 0 0 0 6 0.0008 0 
4916 6 0.00261815 0.0759813 -0.0339947 0 0 0 0.312355 -0.583382 -0.0115085 0 -1.05196e-05 0 0 0 0 0 0 0 0 0 0 0 0 0 0 0 0 0 12 0.0008 0 
2446 3 0.00502725 0.0773681 -0.0338915 0 0 0 -0.545591 1.84739 1.48667 0 -1.05196e-05 0 0 0 0 0 0 0 0 0 0 0 0 0 0 0 0 0 17 0.0008 0 
8261 3 0.00246511 0.0803789 -0.0339455 0 0 0 0.132977 -1.59815 -0.702505 0 -1.05196e-05 0 0 0 0 0 0 0 0 0 0 0 0 0 0 0 0 0 2 0.0008 0 
7068 1 0.0151141 0.0822266 -0.0341909 0 0 0 0.0770192 -0.461991 0.0576326 0 -1.05196e-05 0 0 0 0 0 0 0 0 0 0 0 0 0 0 0 0 0 4 0.0008 0 
9256 9 0.00330937 0.0831706 -0.0335257 0 0 0 0.313388 -0.619895 0.361741 0 -1.05196e-05 0 0 0 0 0 0 0 0 0 0 0 0 0 0 0 0 0 0 0.0008 0 
9379 3 0.00528219 0.0839428 -0.0334853 0 0 0 1.12222 -1.07734 0.673751 0 -1.05196e-05 0 0 0 0 0 0 0 0 0 0 0 0 0 0 0 0 0 0 0.0008 0 
5861 3 0.00440151 0.0908104 -0.0335646 0 0 0 -0.610765 1.34481 -0.225003 0 -1.05196e-05 0 0 0 0 0 0 0 0 0 0 0 0 0 0 0 0 0 10 0.0008 0 
54 5 0.00730923 0.0913287 -0.0338499 0 0 0 0.204088 1.15431 0.198615 0 -1.05196e-05 0 0 0 0 0 0 0 0 0 0 0 0 0 0 0 0 0 9 0.0008 0 
1599 1 0.00833911 0.0925892 -0.0339452 0 0 0 0.194892 1.50448 0.311029 0 -1.05196e-05 0 0 0 0 0 0 0 0 0 0 0 0 0 0 0 0 0 20 0.0008 0 
4744 14 0.0130464 0.0934533 -0.033926 0 0 0 1.55926 0.361383 0.767539 0 -1.05196e-05 0 0 0 0 0 0 0 0 0 0 0 0 0 0 0 0 0 0 0.0008 0 
9081 6 0.00429449 0.0942221 -0.0341892 0 0 0 0.537216 2.48895 0.51631 0 -1.05196e-05 0 0 0 0 0 0 0 0 0 0 0 0 0 0 0 0 0 0 0.0008 0 
4291 1 0.0173824 0.0971694 -0.0337745 0 0 0 2.35161 -1.84587 0.32567 0 -1.05196e-05 0 0 0 0 0 0 0 0 0 0 0 0 0 0 0 0 0 9 0.0008 0 
9272 1 0.0179098 0.0987553 -0.0340481 0 0 0 0.154372 -0.0331648 0.17451 0 -1.05196e-05 0 0 0 0 0 0 0 0 0 0 0 0 0 0 0 0 0 0 0.0008 0 
2209 1 0.0019009 0.100773 -0.03373 0 0 0 -0.0401656 -0.0203553 0.0687748 0 -1.05196e-05 0 0 0 0 0 0 0 0 0 0 0 0 0 0 0 0 0 9 0.0008 0 
138 1 0.00565218 0.101868 -0.0341268 0 0 0 -0.403432 0.039966 0.0125407 0 -1.05196e-05 0 0 0 0 0 0 0 0 0 0 0 0 0 0 0 0 0 16 0.0008 0 
1616 3 0.0073652 0.101624 -0.033886 0 0 0 -0.0467913 -0.102811 0.200059 0 -1.05196e-05 0 0 0 0 0 0 0 0 0 0 0 0 0 0 0 0 0 11 0.0008 0 
8919 7 0.0018079 0.103179 -0.0341839 0 0 0 0.0493597 -0.0358386 -0.0416498 0 -1.05196e-05 0 0 0 0 0 0 0 0 0 0 0 0 0 0 0 0 0 0 0.0008 0 
9229 11 0.00343131 0.102683 -0.034172 0 0 0 0.0429529 0.0284786 0.00301261 0 -1.05196e-05 0 0 0 0 0 0 0 0 0 0 0 0 0 0 0 0 0 0 0.0008 0 
2410 9 0.00667401 0.103438 -0.0341976 0 0 0 0.109208 0.225259 0.0114696 0 -1.05196e-05 0 0 0 0 0 0 0 0 0 0 0 0 0 0 0 0 0 13 0.0008 0 
9196 1 0.0083741 0.103214 -0.0341826 0 0 0 -0.0756979 -0.14141 0.0904969 0 -1.05196e-05 0 0 0 0 0 0 0 0 0 0 0 0 0 0 0 0 0 0 0.0008 0 
8699 3 0.0165934 0.10304 -0.034183 0 0 0 0.164511 -0.176866 0.00720441 0 -1.05196e-05 0 0 0 0 0 0 0 0 0 0 0 0 0 0 0 0 0 0 0.0008 0 
4734 1 0.0034181 0.104382 -0.0341924 0 0 0 -0.00323637 -0.0217913 0.00516322 -4.2294e-05 -0.00013167 -0.000103201 1 0 0 0 0 0 0 0 0 0 0 0 0 0 0 0 6 0.0008 0 
7727 2 0.00496198 0.103948 -0.0341724 0 0 0 0.0140195 -0.00210268 -0.0544396 0 -1.05196e-05 0 0 0 0 0 0 0 0 0 0 0 0 0 0 0 0 0 0 0.0008 0 
1416 7 0.00995815 0.103949 -0.033772 0 0 0 -0.06024 -0.196791 0.0452803 0 -1.05196e-05 0 0 0 0 0 0 0 0 0 0 0 0 0 0 0 0 0 0 0.0008 0 
8361 1 0.0136014 0.104226 -0.0339382 0 0 0 0.283217 0.25945 0.0940254 0 -1.05196e-05 0 0 0 0 0 0 0 0 0 0 0 0 0 0 0 0 0 3 0.0008 0 
521 4 0.0173791 0.104505 -0.0341623 0 0 0 0.0462592 -0.0587847 0.0189911 0 -1.05196e-05 0 0 0 0 0 0 0 0 0 0 0 0 0 0 0 0 0 16 0.0008 0 
8859 7 0.0018306 0.104791 -0.0341761 0 0 0 -0.0691686 -0.00668024 0.0143745 0 -1.05196e-05 0 0 0 0 0 0 0 0 0 0 0 0 0 0 0 0 0 0 0.0008 0 
2413 2 0.00447518 0.10532 -0.033446 0 0 0 -0.00510202 -0.0132884 0.0104281 4.2294e-05 0.000110631 0.000103201 1 0 0 0 0 0 0 0 0 0 0 0 0 0 0 0 10 0.0008 0 
5495 1 0.00606315 0.105115 -0.0341476 0 0 0 0.0271795 -0.010753 -0.0290078 -2.62712e-06 -5.09725e-06 2.26156e-06 1 0 0 0 0 0 0 0 0 0 0 0 0 0 0 0 20 0.0008 0 
2189 4 0.00791198 0.104815 -0.0341145 0 0 0 -0.0270217 -0.0260023 0.00219495 0 -1.05196e-05 0 0 0 0 0 0 0 0 0 0 0 0 0 0 0 0 0 13 0.0008 0 
7576 4 0.0151248 0.104592 -0.0336104 0 0 0 0.162781 -0.0902248 0.047828 -2.30532e-05 -3.00133e-05 2.51236e-06 0 0 0 1 0 0 0 0 0 0 0 0 0 0 0 0 4 0.0008 0 
1210 6 0.00187305 0.106438 -0.0341849 0 0 0 0.0139311 0.0158013 0.043605 0 -1.05196e-05 0 0 0 0 0 0 0 0 0 0 0 0 0 0 0 0 0 21 0.0008 0 
1984 3 0.00358021 0.106418 -0.0341946 0 0 0 -0.047594 -0.0406634 0.00211062 0 -1.05196e-05 0 0 0 0 0 0 0 0 0 0 0 0 0 0 0 0 0 17 0.0008 0 
6876 1 0.00540413 0.106573 -0.0342006 0 0 0 -0.00201715 -0.0190603 0.00587354 1.7627e-05 1.49563e-05 7.70669e-05 0 0 0 0 0 0 0 0 0 0 0 0 0 0 0 0 6 0.0008 0 
5741 2 0.0071899 0.10625 -0.0341695 0 0 0 0.0228276 0.00349041 0.0201424 2.62712e-06 -1.59419e-05 -2.26156e-06 1 0 0 0 0 0 0 0 0 0 0 0 0 0 0 0 6 0.0008 0 
8727 8 0.0100109 0.105736 -0.0341964 0 0 0 0.0500707 -0.0447629 0.003754 0 -1.05196e-05 0 0 0 0 0 0 0 0 0 0 0 0 0 0 0 0 0 0 0.0008 0 
4015 8 0.012683 0.106208 -0.0341728 0 0 0 -0.0448336 3.56738e-05 0.00776935 0 -1.05196e-05 0 0 0 0 0 0 0 0 0 0 0 0 0 0 0 0 0 13 0.0008 0 
9074 6 0.014297 0.106103 -0.0341494 0 0 0 -0.112706 -0.0751042 -0.000315205 0 -1.05196e-05 0 0 0 0 0 0 0 0 0 0 0 0 0 0 0 0 0 0 0.0008 0 