ITEM: TIMESTEP
3550000
ITEM: NUMBER OF ATOMS
6655
ITEM: BOX BOUNDS ff ff ff
-0.01 0.45
-0.15 0.15
-0.08 0.1
ITEM: ATOMS id type x y z ix iy iz vx vy vz fx fy fz c_cc_1 c_cc_2 c_cc_3 c_cc_4 c_cc_5 c_cc_6 c_cc_7 c_cc_8 c_cc_9 c_cc_10 c_cc_11 c_cc_12 c_cc_13 c_cc_14 c_cc_15 c_cc_16 f_fppacc radius c_cc_17 
6702 2 0.010884 -0.00853046 -0.060337 0 0 0 -0.0138824 -0.319173 0.00293954 0 -1.05196e-05 0 0 0 0 0 0 0 0 0 0 0 0 0 0 0 0 0 0 0.0008 0 
6537 6 0.00940826 -0.0127713 -0.0596909 0 0 0 0.00219914 -0.0225634 0.0554682 0 -1.05196e-05 0 0 0 0 0 0 0 0 0 0 0 0 0 0 0 0 0 0 0.0008 0 
6055 5 0.0160444 -0.01858 -0.0580558 0 0 0 2.09722e-06 -0.259053 0.0727663 0 -1.05196e-05 0 0 0 0 0 0 0 0 0 0 0 0 0 0 0 0 0 0 0.0008 0 
2761 4 0.00946225 -0.010734 -0.0580558 0 0 0 1.64166 -9.91771 1.4055 0 -1.05196e-05 0 0 0 0 0 0 0 0 0 0 0 0 0 0 0 0 0 3 0.0008 0 
6743 2 0.0154379 -0.0107846 -0.0582569 0 0 0 1.02043 -19.9957 2.22915 -0.014832 0.0516912 0.193095 0 0 0 0 0 0 0 0 0 0 0 0 0 0 0 0 0 0.0008 0 
6639 4 0.0102484 -0.00590528 -0.0585561 0 0 0 1.14642 -20.2364 4.90399 0 -1.05196e-05 0 0 0 0 0 0 0 0 0 0 0 0 0 0 0 0 0 0 0.0008 0 
2145 2 0.00210224 -0.0157432 -0.0567886 0 0 0 0.0789473 -5.80492 1.96096 0 -1.05196e-05 0 0 0 0 0 0 0 0 0 0 0 0 0 0 0 0 0 9 0.0008 0 
1043 5 0.0160397 -0.0152089 -0.0568451 0 0 0 0.306166 -6.93973 -0.962337 0 -1.05196e-05 0 0 0 0 0 0 0 0 0 0 0 0 0 0 0 0 0 7 0.0008 0 
6831 3 0.00800501 -0.0136857 -0.0569702 0 0 0 -0.757117 -14.1018 7.72521 0 -1.05196e-05 0 0 0 0 0 0 0 0 0 0 0 0 0 0 0 0 0 0 0.0008 0 
1914 3 0.0138554 -0.0142092 -0.0545387 0 0 0 -0.524364 -3.36547 0.534183 0 -1.05196e-05 0 0 0 0 0 0 0 0 0 0 0 0 0 0 0 0 0 6 0.0008 0 
1854 4 0.0128064 -0.000628703 -0.0542445 0 0 0 0.943933 -28.2478 3.08204 0 -1.05196e-05 0 0 0 0 0 0 0 0 0 0 0 0 0 0 0 0 0 19 0.0008 0 
6737 12 0.00575904 -0.0192963 -0.0534245 0 0 0 -0.212737 -5.37182 1.68722 0 -1.05196e-05 0 0 0 0 0 0 0 0 0 0 0 0 0 0 0 0 0 0 0.0008 0 
6704 3 0.0141006 -0.0199509 -0.0530623 0 0 0 1.9128 -12.3874 5.22441 0 -1.05196e-05 0 0 0 0 0 0 0 0 0 0 0 0 0 0 0 0 0 0 0.0008 0 
5333 6 0.00798341 -0.0105061 -0.0528896 0 0 0 1.13144 -1.79994 1.10095 0 -1.05196e-05 0 0 0 0 0 0 0 0 0 0 0 0 0 0 0 0 0 0 0.0008 0 
3905 4 0.0170465 -0.0341218 -0.050563 0 0 0 0.00906039 -0.300279 0.204774 0 -1.05196e-05 0 0 0 0 0 0 0 0 0 0 0 0 0 0 0 0 0 1 0.0008 0 
6783 6 0.00697798 -0.0131027 -0.0509144 0 0 0 0.0313108 -6.26027 -1.10099 0 -1.05196e-05 0 0 0 0 0 0 0 0 0 0 0 0 0 0 0 0 0 0 0.0008 0 
6209 3 0.0180842 -0.0385497 -0.0472474 0 0 0 0.468301 0.0634521 -0.0479168 -2.95618e-06 -7.61191e-06 5.74825e-06 0 0 0 0 0 0 0 0 0 0 0 0 0 0 0 0 0 0.0008 0 
1659 2 0.011094 -0.0419429 -0.0398725 0 0 0 1.89942 -2.03435 3.82911 0 -1.05196e-05 0 0 0 0 0 0 0 0 0 0 0 0 0 0 0 0 0 12 0.0008 0 
6794 6 0.0127228 -0.0324338 -0.0367897 0 0 0 -1.88896 -10.1903 10.2349 0 -1.05196e-05 0 0 0 0 0 0 0 0 0 0 0 0 0 0 0 0 0 0 0.0008 0 
389 6 0.007304 -0.0467709 -0.0360631 0 0 0 -0.81592 -4.84574 6.28327 0 -1.05196e-05 0 0 0 0 0 0 0 0 0 0 0 0 0 0 0 0 0 7 0.0008 0 
6598 1 0.00256333 -0.0383905 -0.0355799 0 0 0 0.0951365 -1.31211 0.420006 0 -1.05196e-05 0 0 0 0 0 0 0 0 0 0 0 0 0 0 0 0 0 0 0.0008 0 
1181 6 0.0156574 -0.0406611 -0.0308936 0 0 0 9.60659 -10.8131 15.1947 0 -1.05196e-05 0 0 0 0 0 0 0 0 0 0 0 0 0 0 0 0 0 8 0.0008 0 
2062 8 0.0128419 -0.0598033 -0.011704 0 0 0 -0.243706 -0.00255119 0.0136477 -9.80719e-18 -2.53692e-07 1.35713e-06 0 0 0 0 0 0 0 0 0 0 0 0 0 0 0 0 3 0.0008 0 
6774 3 0.0053629 -0.0573828 -0.0116945 0 0 0 1.2062 -5.72587 5.22885 0 -1.05196e-05 0 0 0 0 0 0 0 0 0 0 0 0 0 0 0 0 0 0 0.0008 0 
3491 3 0.00315364 -0.0599098 -0.0111341 0 0 0 0.028989 -0.0431342 0.230747 -3.34085e-18 -2.53692e-07 1.35713e-06 0 0 0 0 0 0 0 0 0 0 0 0 0 0 0 0 0 0.0008 0 
3427 4 0.00527733 -0.0600225 -0.0105314 0 0 0 0.0755097 0.00114971 -0.00615037 3.56396e-18 -2.53692e-07 1.35713e-06 0 0 0 0 0 0 0 0 0 0 0 0 0 0 0 0 2 0.0008 0 
221 5 0.017058 -0.0600158 -0.0105672 0 0 0 -0.185779 0.000797272 -0.00426503 6.247e-18 -2.53692e-07 1.35713e-06 0 0 0 0 0 0 0 0 0 0 0 0 0 0 0 0 0 0.0008 0 
4247 3 0.0170326 -0.0575042 -0.0100126 0 0 0 1.04679 -4.94342 18.4571 0 -1.05196e-05 0 0 0 0 0 0 0 0 0 0 0 0 0 0 0 0 0 2 0.0008 0 
4165 3 0.00479642 -0.0605865 -0.00751421 0 0 0 -0.0696705 0.0026084 -0.0139537 -2.86394e-18 -2.53692e-07 1.35713e-06 0 0 0 0 0 0 0 0 0 0 0 0 0 0 0 0 0 0.0008 0 
607 1 0.013242 -0.0607357 -0.00671621 0 0 0 -0.231111 -0.0262613 0.140485 1.14625e-12 -2.53679e-07 1.35713e-06 0 0 0 0 0 0 0 0 0 0 0 0 0 0 0 0 2 0.0008 0 
72 4 0.00140285 -0.0609256 -0.0056999 0 0 0 0.00522705 0.000149489 -0.000964323 -1.17447e-06 -8.4543e-07 -2.40833e-06 0 0 0 0 0 0 0 0 0 0 0 0 0 0 0 0 1 0.0008 0 
4459 4 0.00194981 -0.0609356 -0.00419646 0 0 0 0.00612848 5.98802e-05 -0.000800728 2.54214e-07 1.97965e-06 9.07917e-07 0 0 0 0 0 0 0 0 0 0 0 0 0 0 0 0 3 0.0008 0 
5313 7 0.0044574 -0.0609356 -0.00468629 0 0 0 -0.000713224 -2.00449e-12 -0.00813797 7.48772e-20 1.69407e-21 7.02701e-19 0 0 0 0 0 0 0 0 0 0 0 0 0 0 0 0 0 0.0008 0 
3742 14 0.00923762 -0.0609356 -0.00469433 0 0 0 0.0343916 -1.52108e-12 -0.0142044 0 0 1.91236e-18 0 0 0 0 0 0 0 0 0 0 0 0 0 0 0 0 4 0.0008 0 
1200 7 0.000800121 -0.0609356 -0.00306233 0 0 0 0.000631887 0.000147059 -0.00451161 -2.14548e-07 -2.5722e-07 -8.33971e-08 0 0 0 0 0 0 0 0 0 0 0 0 0 0 0 0 0 0.0008 0 
4095 1 0.00338664 -0.0609356 -0.00348517 0 0 0 0.00564873 -4.09924e-12 -0.000605302 5.99013e-19 -3.21873e-20 -7.48686e-20 0 0 0 0 0 0 0 0 0 0 0 0 0 0 0 0 1 0.0008 0 
414 7 0.00211456 -0.0609356 -0.00214955 0 0 0 0.000989794 -2.69136e-05 -0.0074291 -1.57515e-10 1.19169e-07 2.64636e-11 0 0 0 0 0 0 0 0 0 0 0 0 0 0 0 0 4 0.0008 0 
690 7 0.00365678 -0.0609356 -0.00172286 0 0 0 -0.000439692 2.34907e-05 -0.00128014 -2.2913e-10 -2.05457e-07 -1.56627e-10 0 0 0 0 0 0 0 0 0 0 0 0 0 0 0 0 1 0.0008 0 
693 3 0.00512994 -0.0609356 -0.00252201 0 0 0 -0.00125434 -3.93137e-13 -0.00495966 -1.49754e-19 0 -5.98988e-19 0 0 0 0 0 0 0 0 0 0 0 0 0 0 0 0 1 0.0008 0 
2843 9 0.0103967 -0.0609356 -0.00225548 0 0 0 0.0378867 2.51403e-13 -0.00860177 4.79158e-18 0 -7.1303e-20 0 0 0 0 0 0 0 0 0 0 0 0 0 0 0 0 3 0.0008 0 
1871 2 0.000801781 -0.0609356 -0.00119205 0 0 0 6.86824e-05 -7.15407e-13 -0.00617858 9.35904e-21 0 -5.69772e-19 0 0 0 0 0 0 0 0 0 0 0 0 0 0 0 0 4 0.0008 0 
209 4 0.00480114 -0.0609356 -0.000604267 0 0 0 0.000674628 2.21884e-05 -0.00189113 -1.54246e-07 -5.09771e-07 -4.37879e-08 0 0 0 0 0 0 0 0 0 0 0 0 0 0 0 0 3 0.0008 0 
1887 11 0.00653416 -0.0609356 -0.00157151 0 0 0 0.00657554 7.06448e-07 -0.0133296 -9.79714e-08 1.79448e-08 1.79158e-07 0 0 0 0 0 0 0 0 0 0 0 0 0 0 0 0 1 0.0008 0 
206 1 0.000799832 -0.0609351 0.00046814 0 0 0 0.00065664 0.00224676 -0.00448131 3.97489e-06 1.70446e-06 2.60356e-06 1 0 0 0 0 0 0 0 0 0 0 0 0 0 0 0 8 0.0008 0 
101 5 0.00218053 -0.0609357 -0.000339736 0 0 0 0.00062049 0.000626547 -0.00767306 4.15001e-06 1.91927e-06 -1.50461e-06 1 0 0 0 1 0 0 0 0 0 0 0 0 0 0 0 12 0.0008 0 
585 3 0.00627389 -0.0609356 2.1033e-05 0 0 0 0.00400021 -4.20771e-05 -0.00884558 1.90657e-07 7.24676e-07 5.4854e-08 0 0 0 0 0 0 0 0 0 0 0 0 0 0 0 0 6 0.0008 0 
1920 3 0.00784734 -0.0609356 -0.000297893 0 0 0 0.0034345 -5.38832e-12 0.0125833 -4.14812e-19 0 8.04206e-19 0 0 0 0 0 0 0 0 0 0 0 0 0 0 0 0 3 0.0008 0 
1118 3 0.00947217 -0.0609356 -0.000333647 0 0 0 0.00696399 -5.71059e-12 -0.010455 -1.20336e-18 0 -8.95307e-19 0 0 0 0 0 0 0 0 0 0 0 0 0 0 0 0 0 0.0008 0 
4050 3 0.0120963 -0.0609356 -0.000312325 0 0 0 0.0483549 -1.52108e-12 0.0325967 -4.79238e-18 0 -4.79163e-18 0 0 0 0 0 0 0 0 0 0 0 0 0 0 0 0 3 0.0008 0 
280 2 0.00213658 -0.0609356 0.00134882 0 0 0 -0.00257359 1.5042e-05 -0.000604047 -7.16369e-11 -6.14571e-08 2.5064e-11 0 0 0 0 0 0 0 0 0 0 0 0 0 0 0 0 8 0.0008 0 
1002 3 0.00352058 -0.0609355 0.000534349 0 0 0 0.00259334 0.000165639 -0.00836785 -6.84971e-07 -1.04958e-05 -6.91164e-07 0 0 0 0 1 0 0 0 0 0 0 0 0 0 0 0 9 0.0008 0 
553 2 0.00504001 -0.0609356 0.00104003 0 0 0 0.000811738 8.92282e-05 -0.0125738 -6.41134e-08 -7.97867e-07 2.08952e-06 0 0 0 0 0 0 0 0 0 0 0 0 0 0 0 0 2 0.0008 0 
18 2 0.0081977 -0.0609356 0.00150812 0 0 0 0.00679347 5.97774e-08 0.00951864 1.04097e-13 7.10315e-10 1.53348e-13 0 0 0 0 0 0 0 0 0 0 0 0 0 0 0 0 3 0.0008 0 
5892 2 0.01268 -0.0609353 0.00151228 0 0 0 -0.11793 0.000972918 0.00266473 0 -1.05196e-05 0 0 0 0 0 0 0 0 0 0 0 0 0 0 0 0 0 0 0.0008 0 
1972 6 0.00080294 -0.0609356 0.00227058 0 0 0 0.00102435 4.05917e-07 -0.000577384 1.14602e-13 5.85506e-09 -5.71914e-14 0 0 0 0 0 0 0 0 0 0 0 0 0 0 0 0 14 0.0008 0 
317 1 0.00352899 -0.0609356 0.00216037 0 0 0 0.00340824 -1.07373e-07 -0.0026883 -1.00269e-13 -2.51441e-09 7.95336e-14 0 0 0 0 0 0 0 0 0 0 0 0 0 0 0 0 2 0.0008 0 
1470 6 0.00659891 -0.0609356 0.00159265 0 0 0 0.00531337 -2.92516e-05 -0.00620786 -5.32007e-10 -1.89093e-07 -2.13618e-08 0 0 0 0 0 0 0 0 0 0 0 0 0 0 0 0 10 0.0008 0 
2966 5 0.00959867 -0.0609356 0.00228402 0 0 0 0.016003 8.1042e-09 -0.0241968 -2.48227e-06 6.0222e-09 4.64062e-06 0 0 0 0 0 0 0 0 0 0 0 0 0 0 0 0 3 0.0008 0 
1779 5 0.0162109 -0.0587588 0.00185789 0 0 0 -11.1456 0.593048 11.2263 0 -1.05196e-05 0 0 0 0 0 0 0 0 0 0 0 0 0 0 0 0 0 4 0.0008 0 
1894 5 0.0022032 -0.0609356 0.00305663 0 0 0 0.00402386 1.329e-07 -0.00145044 1.45975e-13 8.61696e-10 -5.21325e-14 0 0 0 0 0 0 0 0 0 0 0 0 0 0 0 0 14 0.0008 0 
2069 4 0.00507293 -0.0609356 0.00263988 0 0 0 0.0123908 -7.01143e-05 -0.0135944 4.51178e-09 -9.08003e-08 -1.41629e-08 0 0 0 0 0 0 0 0 0 0 0 0 0 0 0 0 13 0.0008 0 
154 3 0.00661754 -0.0609356 0.00319329 0 0 0 0.0181795 6.81757e-05 -0.00541158 3.97912e-09 5.68862e-07 -2.38885e-09 0 0 0 0 0 0 0 0 0 0 0 0 0 0 0 0 16 0.0008 0 
1367 1 0.00823178 -0.0609356 0.00318098 0 0 0 0.0210353 2.3683e-07 0.0092666 -5.99866e-06 2.09364e-06 -1.94662e-06 0 0 0 0 0 0 0 0 0 0 0 0 0 0 0 0 10 0.0008 0 
604 2 0.0122015 -0.0609332 0.00304005 0 0 0 -0.0248973 -0.00659472 0.0529403 0 -1.05196e-05 0 0 0 0 0 0 0 0 0 0 0 0 0 0 0 0 0 1 0.0008 0 
398 2 0.0152211 -0.0609356 0.00275364 0 0 0 0.0584789 -2.64903e-12 0.0334135 -6.23813e-18 0 4.83423e-18 0 0 0 0 0 0 0 0 0 0 0 0 0 0 0 0 9 0.0008 0 
733 3 0.000800446 -0.0609356 0.00387225 0 0 0 0.000195592 -3.29977e-07 0.000326399 -1.7513e-14 -3.78142e-09 -3.38405e-14 0 0 0 0 0 0 0 0 0 0 0 0 0 0 0 0 20 0.0008 0 
1705 8 0.00363633 -0.0609356 0.00377762 0 0 0 0.00539417 -1.00642e-06 -0.000966657 -1.52201e-12 1.3224e-09 2.72735e-13 0 0 0 0 0 0 0 0 0 0 0 0 0 0 0 0 21 0.0008 0 
531 10 0.00536074 -0.0609356 0.00422381 0 0 0 0.00375974 4.11676e-06 -0.0132119 4.33292e-12 -2.05559e-08 -1.52611e-11 0 0 0 0 0 0 0 0 0 0 0 0 0 0 0 0 20 0.0008 0 
3087 1 0.00718106 -0.0609356 0.00469753 0 0 0 -0.0105859 -3.41275e-06 0.0053393 -5.98553e-08 1.30693e-08 -1.42435e-07 1 0 0 0 0 0 0 0 0 0 0 0 0 0 0 0 8 0.0008 0 
1890 2 0.00940403 -0.0609356 0.00431712 0 0 0 0.0259888 3.41977e-06 0.0245077 -3.35542e-06 -5.15855e-09 -4.04713e-06 0 0 0 0 0 0 0 0 0 0 0 0 0 0 0 0 4 0.0008 0 
316 1 0.0128364 -0.0609356 0.00451858 0 0 0 -0.00804124 -1.92959e-06 0.0120873 3.80484e-12 -2.13054e-07 -5.11876e-12 0 0 0 0 0 0 0 0 0 0 0 0 0 0 0 0 0 0.0008 0 
2641 8 0.000801741 -0.0609356 0.0054741 0 0 0 0.000506798 -4.10552e-08 0.000787242 -5.88625e-15 4.72886e-10 -9.14366e-15 0 0 0 0 0 0 0 0 0 0 0 0 0 0 0 0 10 0.0008 0 
210 4 0.00229305 -0.0609336 0.00486073 0 0 0 -0.0124528 0.00988191 -0.0246066 0 -1.05196e-05 0 0 0 0 0 0 0 0 0 0 0 0 0 0 0 0 0 36 0.0008 0 
2352 2 0.00421713 -0.0609356 0.00534951 0 0 0 0.0296777 -8.90609e-06 0.0130892 4.88804e-09 4.74633e-07 -1.20476e-08 0 0 0 0 0 0 0 0 0 0 0 0 0 0 0 0 9 0.0008 0 
2116 2 0.00591882 -0.0609168 0.00574698 0 0 0 -0.0199449 -0.00165622 -0.00885999 8.74203e-19 -2.53692e-07 -1.35713e-06 0 0 0 0 0 0 0 0 0 0 0 0 0 0 0 0 14 0.0008 0 
1039 2 0.0114365 -0.0609356 0.00543364 0 0 0 0.00419989 1.85452e-07 0.0397519 2.19209e-13 -1.07577e-09 2.07481e-12 0 0 0 0 0 0 0 0 0 0 0 0 0 0 0 0 5 0.0008 0 
3865 4 0.00209086 -0.0604731 0.00638013 0 0 0 0.0875386 0.105069 -0.03294 0 -1.05196e-05 0 0 0 0 0 0 0 0 0 0 0 0 0 0 0 0 0 3 0.0008 0 
1165 1 0.00362813 -0.0607161 0.00682093 0 0 0 0.0276883 0.00224415 0.0119279 -1.05077e-10 5.06383e-09 -1.4066e-06 0 0 0 0 0 0 0 0 0 0 0 0 0 0 0 0 21 0.0008 0 
4938 7 0.00826588 -0.0608933 0.00587282 0 0 0 0.00452305 -0.00160322 -0.00858386 2.14963e-07 -2.00628e-07 -1.02273e-06 1 0 0 0 0 0 0 0 0 0 0 0 0 0 0 0 12 0.0008 0 
833 7 0.012909 -0.0608407 0.00615419 0 0 0 0.024128 0.0045522 0.0217039 -1.39375e-07 -6.21022e-06 -3.26092e-06 0 0 0 0 0 0 0 0 0 0 0 0 0 0 0 0 5 0.0008 0 
839 1 0.0153656 -0.0607593 0.00658999 0 0 0 0.0332026 0.00471278 0.0252111 -2.55408e-16 -2.53692e-07 -1.35713e-06 0 0 0 0 0 0 0 0 0 0 0 0 0 0 0 0 2 0.0008 0 
5113 5 0.00106493 -0.0602845 0.00759568 0 0 0 0.0322209 0.0387716 -0.0425281 0 -1.05196e-05 0 0 0 0 0 0 0 0 0 0 0 0 0 0 0 0 0 3 0.0008 0 
3869 8 0.00503738 -0.0605491 0.00771425 0 0 0 0.0473027 0.00330725 0.0166099 -4.89199e-06 5.1015e-08 -4.82932e-06 0 0 0 0 0 0 0 0 0 0 0 0 0 0 0 0 12 0.0008 0 
4248 10 0.00660616 -0.0606511 0.00716833 0 0 0 -0.0160141 -0.00196284 -0.0105002 1.12113e-18 -2.53692e-07 -1.35713e-06 0 0 0 0 0 0 0 0 0 0 0 0 0 0 0 0 6 0.0008 0 
3081 3 0.00852443 -0.060603 0.00742603 0 0 0 -0.014754 -0.000949267 -0.00508572 -5.75407e-12 -2.49716e-07 -1.35799e-06 0 0 0 0 0 0 0 0 0 0 0 0 0 0 0 0 3 0.0008 0 
5191 1 0.0101639 -0.0605392 0.00776725 0 0 0 0.00275676 -0.00590052 -0.031565 1.14803e-14 -2.54261e-07 -1.35702e-06 0 0 0 0 0 0 0 0 0 0 0 0 0 0 0 0 0 0.0008 0 
510 4 0.0117081 -0.0606399 0.00722835 0 0 0 0.0251092 0.00311282 0.0166521 -5.40478e-22 -2.53692e-07 -1.35713e-06 0 0 0 0 0 0 0 0 0 0 0 0 0 0 0 0 2 0.0008 0 
570 3 0.0135146 -0.0605639 0.00763508 0 0 0 0.00211761 0.00813773 0.0435525 -1.9922e-06 -1.15741e-06 -6.65014e-06 0 0 0 0 0 0 0 0 0 0 0 0 0 0 0 0 6 0.0008 0 
248 8 0.0169877 -0.060678 0.00702484 0 0 0 0.0361543 0.0177395 0.0948979 -3.68924e-18 -2.53692e-07 -1.35713e-06 0 0 0 0 0 0 0 0 0 0 0 0 0 0 0 0 5 0.0008 0 
4294 3 0.0125087 -0.0573727 0.00803806 0 0 0 2.19679 1.04621 8.11278 0 -1.05196e-05 0 0 0 0 0 0 0 0 0 0 0 0 0 0 0 0 0 2 0.0008 0 
5373 2 0.0163763 -0.0602536 0.00929509 0 0 0 0.00709101 0.00256689 0.0137316 1.88442e-18 -2.53692e-07 -1.35713e-06 0 0 0 0 0 0 0 0 0 0 0 0 0 0 0 0 1 0.0008 0 
4325 3 0.00417132 -0.0601501 0.00984883 0 0 0 0.0460303 -0.0179742 -0.0961534 2.89372e-18 -2.53692e-07 -1.35713e-06 0 0 0 0 0 0 0 0 0 0 0 0 0 0 0 0 0 0.0008 0 
1352 4 0.00772063 -0.0600208 0.0105404 0 0 0 0.00119233 0.00475393 0.0254312 7.76848e-20 -2.53692e-07 -1.35713e-06 0 0 0 0 0 0 0 0 0 0 0 0 0 0 0 0 1 0.0008 0 
5900 8 0.010178 -0.0600142 0.0105757 0 0 0 0.035997 -0.000597423 -0.00319593 3.11108e-18 -2.53692e-07 -1.35713e-06 0 0 0 0 0 0 0 0 0 0 0 0 0 0 0 0 0 0.0008 0 
5632 2 0.0162587 -0.0592042 0.0149087 0 0 0 -0.0589905 0.018872 0.100956 -6.27598e-18 -2.53692e-07 -1.35713e-06 0 0 0 0 0 0 0 0 0 0 0 0 0 0 0 0 1 0.0008 0 
6574 6 0.0134018 -0.0590086 0.0153631 0 0 0 -0.539544 -0.102352 -1.20414 0 -1.05196e-05 0 0 0 0 0 0 0 0 0 0 0 0 0 0 0 0 0 0 0.0008 0 
6782 5 0.0132747 -0.0504269 0.0341288 0 0 0 -0.00153966 -0.0425141 -0.0475 0 -1.05196e-05 0 0 0 0 0 0 0 0 0 0 0 0 0 0 0 0 0 0 0.0008 0 
713 2 0.0064658 -0.00954183 0.0335805 0 0 0 -0.228726 8.6675 12.1134 0 -1.05196e-05 0 0 0 0 0 0 0 0 0 0 0 0 0 0 0 0 0 0 0.0008 0 
6546 2 0.0123878 -0.0200536 0.0415962 0 0 0 0.389039 -0.186272 -0.574347 0 -1.05196e-05 0 0 0 0 0 0 0 0 0 0 0 0 0 0 0 0 0 0 0.0008 0 
5376 2 0.00702646 -0.0108169 0.0426315 0 0 0 0.62196 -3.67488 1.01679 0 -1.05196e-05 0 0 0 0 0 0 0 0 0 0 0 0 0 0 0 0 0 0 0.0008 0 
6259 5 0.013711 -0.0329766 0.047707 0 0 0 2.01188 6.94712 5.51409 0 -1.05196e-05 0 0 0 0 0 0 0 0 0 0 0 0 0 0 0 0 0 0 0.0008 0 
6580 1 0.0156783 -0.0299054 0.0509569 0 0 0 1.4784 8.51701 3.53959 -0.000522729 -0.00278381 0.00565505 0 0 0 0 0 0 0 0 0 0 0 0 0 0 0 0 0 0.0008 0 
1344 5 0.00233542 -0.0192031 0.0520043 0 0 0 0.233771 -1.04088 -1.49709 0 -1.05196e-05 0 0 0 0 0 0 0 0 0 0 0 0 0 0 0 0 0 3 0.0008 0 
75 7 0.0105528 -0.019474 0.0556264 0 0 0 -8.6615 17.365 7.52714 0 -1.05196e-05 0 0 0 0 0 0 0 0 0 0 0 0 0 0 0 0 0 3 0.0008 0 
6755 7 0.0122588 -0.0172993 0.0563354 0 0 0 0.00722933 10.5247 2.40062 0 -1.05196e-05 0 0 0 0 0 0 0 0 0 0 0 0 0 0 0 0 0 0 0.0008 0 
6214 1 0.00859268 -0.00092039 0.0569855 0 0 0 0.780247 -3.04706 -0.446747 0 -1.05196e-05 0 0 0 0 0 0 0 0 0 0 0 0 0 0 0 0 0 0 0.0008 0 
6453 13 0.0116033 0.00400966 -0.0607965 0 0 0 -0.171385 -0.414667 -0.0550119 0 -1.05196e-05 0 0 0 0 0 0 0 0 0 0 0 0 0 0 0 0 0 0 0.0008 0 
6772 2 0.0023136 0.00438372 -0.058316 0 0 0 -0.347261 -3.20327 -0.00240324 0 -1.05196e-05 0 0 0 0 0 0 0 0 0 0 0 0 0 0 0 0 0 0 0.0008 0 
6754 5 0.0162503 0.00738435 -0.0582661 0 0 0 -0.0469768 -5.29693 0.443073 0 -1.05196e-05 0 0 0 0 0 0 0 0 0 0 0 0 0 0 0 0 0 0 0.0008 0 
4164 1 0.0150347 0.0167522 -0.0581944 0 0 0 -0.0401616 -0.0797553 -0.0995041 0 -1.05196e-05 0 0 0 0 0 0 0 0 0 0 0 0 0 0 0 0 0 8 0.0008 0 
6617 2 0.0141522 0.0185373 -0.0527266 0 0 0 0.115457 -18.9362 -0.540664 0 -1.05196e-05 0 0 0 0 0 0 0 0 0 0 0 0 0 0 0 0 0 0 0.0008 0 
6792 4 0.0160672 0.0322472 -0.0448937 0 0 0 0.963346 -2.19654 -11.5354 0 -1.05196e-05 0 0 0 0 0 0 0 0 0 0 0 0 0 0 0 0 0 0 0.0008 0 
5411 7 0.0161197 0.0383579 -0.0413358 0 0 0 -0.127001 5.06631 -15.934 0 -1.05196e-05 0 0 0 0 0 0 0 0 0 0 0 0 0 0 0 0 0 1 0.0008 0 
3146 2 0.0137965 0.0376172 -0.0387583 0 0 0 0.0788062 -5.23083 3.13636 0 -1.05196e-05 0 0 0 0 0 0 0 0 0 0 0 0 0 0 0 0 0 2 0.0008 0 
6811 2 0.00462973 0.0436007 -0.0378288 0 0 0 2.86729 -15.5253 -7.61522 0 -1.05196e-05 0 0 0 0 0 0 0 0 0 0 0 0 0 0 0 0 0 0 0.0008 0 
2321 7 0.0103957 0.0511125 -0.0355 0 0 0 3.60066e-78 2.80586e-20 5.89795e-12 -2.87065e-79 0 -2.22045e-16 0 0 0 0 0 0 0 0 0 0 0 0 0 0 0 0 0 0.0008 0 
283 5 0.00822601 0.0521944 -0.0355 0 0 0 4.58428e-303 -8.48857e-20 -5.89787e-12 -9.42764e-308 0 2.22045e-16 0 0 0 0 0 0 0 0 0 0 0 0 0 0 0 0 0 0.0008 0 
478 2 0.00649625 0.0529406 -0.0355 0 0 0 3.06555e-302 2.82306e-20 -5.89791e-12 -9.24576e-308 0 -2.22045e-16 0 0 0 0 0 0 0 0 0 0 0 0 0 0 0 0 0 0.0008 0 
871 8 0.00625639 0.0558148 -0.0355 0 0 0 2.3264e-257 8.48293e-20 -5.8979e-12 -1.60999e-258 0 2.22045e-16 0 0 0 0 0 0 0 0 0 0 0 0 0 0 0 0 1 0.0008 0 
5520 7 0.00964429 0.0549405 -0.0355 0 0 0 3.07534e-302 -2.83805e-20 -4.72347e-12 9.25622e-308 -8.47033e-22 2.22045e-16 0 0 0 0 0 0 0 0 0 0 0 0 0 0 0 0 0 0.0008 0 
2565 7 0.00832037 0.0580035 -0.0355 0 0 0 1.17239e-170 5.6663e-20 -4.72343e-12 -2.76461e-171 0 2.22045e-16 0 0 0 0 0 0 0 0 0 0 0 0 0 0 0 0 0 0.0008 0 
3089 3 0.0107774 0.0616874 -0.0355 0 0 0 -4.21034e-302 -9.39226e-21 -5.89789e-12 9.15439e-308 0 2.22045e-16 0 0 0 0 0 0 0 0 0 0 0 0 0 0 0 0 0 0.0008 0 
3064 5 0.00572382 0.0664167 -0.0355 0 0 0 -3.93697e-125 2.83836e-20 5.89787e-12 4.22924e-126 8.47033e-22 -2.22045e-16 0 0 0 0 0 0 0 0 0 0 0 0 0 0 0 0 0 0.0008 0 
5230 4 0.00290973 0.0725339 -0.0355 0 0 0 -1.02658e-306 -4.7236e-20 3.535e-12 9.2225e-308 0 -2.22045e-16 0 0 0 0 0 0 0 0 0 0 0 0 0 0 0 0 0 0.0008 0 
2130 11 0.0169237 0.0756714 -0.0354994 0 0 0 0.0286893 -0.0474114 -0.232957 0.00382585 0.00230546 0.000236766 0 0 0 0 0 0 0 0 0 0 1 0 0 0 0 0 7 0.0008 0 
4708 6 0.0184177 0.0757522 -0.0354991 0 0 0 -0.00015419 0.0592091 -0.018589 0.00268498 -0.000592326 -0.00156715 0 0 0 0 0 0 0 0 0 0 1 0 0 0 0 0 10 0.0008 0 
5274 5 0.0152258 0.0938758 -0.0355 0 0 0 3.32113e-130 7.55313e-20 1.1814e-12 4.58639e-131 0 -2.22045e-16 0 0 0 0 0 0 0 0 0 0 0 0 0 0 0 0 0 0.0008 0 
6441 5 0.00478516 0.023322 -0.0338122 0 0 0 0.969527 -1.44343 0.0163496 0 -1.05196e-05 0 0 0 0 0 0 0 0 0 0 0 0 0 0 0 0 0 0 0.0008 0 
5089 6 0.00832026 0.051643 -0.033427 0 0 0 3.74261 5.87782 3.5677 0 -1.05196e-05 0 0 0 0 0 0 0 0 0 0 0 0 0 0 0 0 0 7 0.0008 0 
2157 5 0.0161294 0.0761436 -0.0341446 0 0 0 2.4337 7.10495 3.3531 0 -1.05196e-05 0 0 0 0 0 0 0 0 0 0 0 0 0 0 0 0 0 3 0.0008 0 
5489 1 0.0058924 0.0833306 -0.0338604 0 0 0 1.00313 -1.82632 0.370172 0 -1.05196e-05 0 0 0 0 0 0 0 0 0 0 0 0 0 0 0 0 0 0 0.0008 0 
3229 8 0.0153278 0.0894519 -0.0338589 0 0 0 -0.908063 0.546459 -0.639829 0 -1.05196e-05 0 0 0 0 0 0 0 0 0 0 0 0 0 0 0 0 0 14 0.0008 0 
6177 3 0.0142493 0.102328 -0.033713 0 0 0 0.401591 -0.850348 -1.11597 0 -1.05196e-05 0 0 0 0 0 0 0 0 0 0 0 0 0 0 0 0 0 1 0.0008 0 
480 3 0.00293086 0.104387 -0.0341842 0 0 0 0.183474 0.237218 -0.0199004 0.00112641 0.000510585 -2.73743e-05 0 0 1 0 0 0 0 0 0 0 0 0 0 0 0 0 11 0.0008 0 
6176 2 0.0110308 0.104282 -0.0340203 0 0 0 -0.0761932 -0.129015 -0.070066 -0.000304756 -0.000336848 -0.000261046 0 1 0 0 0 0 0 0 0 0 0 0 0 0 0 0 1 0.0008 0 
5231 4 0.0141183 0.10415 -0.0340434 0 0 0 -0.171948 0.0916209 0.291211 0 -1.05196e-05 0 0 0 0 0 0 0 0 0 0 0 0 0 0 0 0 0 3 0.0008 0 
3911 2 0.00450123 0.10467 -0.0340718 0 0 0 0.502746 0.253523 -0.041712 -0.00112641 -0.000531624 2.73743e-05 0 0 1 0 0 0 0 0 0 0 0 0 0 0 0 0 9 0.0008 0 
819 6 0.00782421 0.104666 -0.0336985 0 0 0 -0.0812567 0.0553839 -0.347304 0 -1.05196e-05 0 0 0 0 0 0 0 0 0 0 0 0 0 0 0 0 0 8 0.0008 0 
6173 2 0.00950074 0.104825 -0.0339471 0 0 0 0.118181 -0.0163117 -0.132306 0 -1.05196e-05 0 0 0 0 0 0 0 0 0 0 0 0 0 0 0 0 0 1 0.0008 0 
4911 2 0.00195433 0.105739 -0.0340424 0 0 0 0.0818927 0.119586 -0.448236 0 -1.05196e-05 0 0 0 0 0 0 0 0 0 0 0 0 0 0 0 0 0 2 0.0008 0 
844 10 0.00362905 0.106389 -0.0341809 0 0 0 -0.0590193 0.0645851 0.100075 0 -1.05196e-05 0 0 0 0 0 0 0 0 0 0 0 0 0 0 0 0 0 4 0.0008 0 
4203 2 0.00686301 0.106065 -0.0340403 0 0 0 0.0620877 -0.103517 0.0220819 0 -1.05196e-05 0 0 0 0 0 0 0 0 0 0 0 0 0 0 0 0 0 3 0.0008 0 
4313 4 0.00865957 0.106362 -0.034194 0 0 0 -0.266841 0.0230538 0.0379365 0 -1.05196e-05 0 0 0 0 0 0 0 0 0 0 0 0 0 0 0 0 0 4 0.0008 0 
4025 7 0.010393 0.106142 -0.0341866 0 0 0 -0.109632 -0.00321902 0.134656 0 -1.05196e-05 0 0 0 0 0 0 0 0 0 0 0 0 0 0 0 0 0 3 0.0008 0 
2074 4 0.0120723 0.106106 -0.0341977 0 0 0 0.0227439 -0.0694135 0.0167356 0 -1.05196e-05 0 0 0 0 0 0 0 0 0 0 0 0 0 0 0 0 0 3 0.0008 0 
5300 3 0.0145219 0.105772 -0.0339209 0 0 0 0.127483 0.380059 0.0149617 0 -1.05196e-05 0 0 0 0 0 0 0 0 0 0 0 0 0 0 0 0 0 1 0.0008 0 
5087 3 0.0161412 0.105842 -0.0341497 0 0 0 0.108237 -0.18308 0.0247236 0 -1.05196e-05 0 0 0 0 0 0 0 0 0 0 0 0 0 0 0 0 0 5 0.0008 0 
3115 1 0.00562922 0.107491 -0.0342004 0 0 0 -0.0183151 -0.0940766 -0.0164344 0.000121663 -9.61397e-06 0.000243334 0 0 0 0 0 0 0 0 0 0 0 0 0 0 0 0 4 0.0008 0 
3993 2 0.00757963 0.10756 -0.034205 0 0 0 -0.0847533 0.0306228 0.0445874 0.00141995 -0.00128782 0.00209042 0 1 0 0 0 0 0 0 0 0 0 0 0 0 0 0 8 0.0008 0 
1328 9 0.0113466 0.107652 -0.0342005 0 0 0 0.0041682 -0.0338595 0.0208597 1.74793e-06 -4.49761e-06 -0.000160657 0 0 0 0 0 0 0 0 1 0 0 0 0 0 0 0 5 0.0008 0 
5535 2 0.0131303 0.107372 -0.0341733 0 0 0 0.018437 0.0406529 0.0173848 0 -1.05196e-05 0 0 0 0 0 0 0 0 0 0 0 0 0 0 0 0 0 4 0.0008 0 
4607 5 0.014736 0.107522 -0.034056 0 0 0 -0.0225643 -0.0654857 0.0178486 0 -1.05196e-05 0 0 0 0 0 0 0 0 0 0 0 0 0 0 0 0 0 4 0.0008 0 
42 4 0.0168625 0.107574 -0.0341956 0 0 0 0.0211208 -0.00887622 -0.0130205 8.87539e-05 0.000127773 -0.000155368 0 0 0 1 0 0 0 0 0 0 0 0 0 0 0 0 5 0.0008 0 
3942 2 0.0185236 0.107261 -0.0341692 0 0 0 -0.0771466 -0.148501 0.0334129 0 -1.05196e-05 0 0 0 0 0 0 0 0 0 0 0 0 0 0 0 0 0 1 0.0008 0 
2633 3 0.002296 0.107808 -0.0341858 0 0 0 0.0636789 -0.0362048 0.0138927 0 -1.05196e-05 0 0 0 0 0 0 0 0 0 0 0 0 0 0 0 0 0 5 0.0008 0 
1888 3 0.00395459 0.107899 -0.0337592 0 0 0 0.0249284 0.00603116 -0.0396589 -0.000629009 -0.000301924 0.000178539 0 0 1 0 0 0 0 0 0 0 0 0 0 0 0 0 9 0.0008 0 
5775 13 0.00927333 0.107908 -0.0341999 0 0 0 -0.0581483 -0.0660122 -0.0399166 1.35919e-05 -4.80103e-06 5.5816e-05 0 0 0 0 0 0 0 0 0 0 0 0 1 0 0 0 5 0.0008 0 
5086 3 0.00312736 0.109204 -0.034199 0 0 0 0.0466641 -0.00306828 0.0281314 0.00030017 -0.00259403 -5.43787e-05 0 0 1 0 0 0 0 0 0 0 0 0 0 0 0 0 3 0.0008 0 
5605 6 0.00507274 0.109034 -0.0336873 0 0 0 0.0992644 0.0379604 -0.0465037 -0.00145364 -0.000175952 0.000188509 0 0 1 0 0 1 0 0 0 0 0 0 0 0 0 0 5 0.0008 0 
3042 3 0.00661426 0.109041 -0.0340898 0 0 0 0.099528 -0.0437955 0.0218792 0.00208265 0.000446317 -0.000367048 0 0 0 0 0 1 0 0 0 0 0 0 0 0 0 0 7 0.0008 0 
4014 6 0.00823948 0.109139 -0.0340332 0 0 0 -0.0757184 -0.0321759 -0.0507903 0 -1.05196e-05 0 0 0 0 0 0 0 0 0 0 0 0 0 0 0 0 0 7 0.0008 0 
576 2 0.0104697 0.109042 -0.0341963 0 0 0 -0.0134001 -0.0201852 0.00760015 0 -1.05196e-05 0 0 0 0 0 0 0 0 0 0 0 0 0 0 0 0 0 7 0.0008 0 
3755 1 0.0120678 0.109103 -0.0341412 0 0 0 0.0114221 -0.00639608 -0.131724 0 -1.05196e-05 0 0 0 0 0 0 0 0 0 0 0 0 0 0 0 0 0 7 0.0008 0 
4771 7 0.013719 0.108985 -0.0338475 0 0 0 0.0103083 -0.073589 -0.0973491 0.000562743 -0.000272739 -0.000555472 0 0 0 0 0 0 1 0 0 0 0 0 0 0 0 0 3 0.0008 0 
5891 9 0.0153562 0.109046 -0.0339714 0 0 0 -0.163352 -0.0477101 0.00930921 0 -1.05196e-05 0 0 0 0 0 0 0 0 0 0 0 0 0 0 0 0 0 5 0.0008 0 
1651 9 0.0170318 0.109164 -0.0341439 0 0 0 -0.171018 0.0225476 0.00455824 8.15001e-06 -3.53839e-05 -6.18669e-06 0 0 0 1 0 0 0 0 0 0 0 0 0 0 0 0 8 0.0008 0 
3843 2 0.0186307 0.109029 -0.0340387 0 0 0 -0.10158 0.0321546 -0.170377 0 -1.05196e-05 0 0 0 0 0 0 0 0 0 0 0 0 0 0 0 0 0 2 0.0008 0 
4714 2 0.00215732 0.0218197 -0.0332406 0 0 0 0.308353 -1.17046 0.111422 0 -1.05196e-05 0 0 0 0 0 0 0 0 0 0 0 0 0 0 0 0 0 2 0.0008 0 
2390 5 0.00871423 0.0680047 -0.0329768 0 0 0 -0.120894 1.41011 0.938073 0 -1.05196e-05 0 0 0 0 0 0 0 0 0 0 0 0 0 0 0 0 0 6 0.0008 0 
5515 2 0.00966982 0.0755489 -0.0333768 0 0 0 -0.00813282 -0.932439 -1.10395 0 -1.05196e-05 0 0 0 0 0 0 0 0 0 0 0 0 0 0 0 0 0 3 0.0008 0 
6786 9 0.00317561 0.0783371 -0.0327686 0 0 0 0.517081 -4.49189 1.0774 0 -1.05196e-05 0 0 0 0 0 0 0 0 0 0 0 0 0 0 0 0 0 0 0.0008 0 
6596 1 0.0175535 0.0885538 -0.0327068 0 0 0 -3.8422 2.17885 -6.21331 0 -1.05196e-05 0 0 0 0 0 0 0 0 0 0 0 0 0 0 0 0 0 0 0.0008 0 
4140 4 0.0023457 0.0950875 -0.0325182 0 0 0 -0.935122 3.53578 1.24513 0 -1.05196e-05 0 0 0 0 0 0 0 0 0 0 0 0 0 0 0 0 0 2 0.0008 0 
5 6 0.00195281 0.103334 -0.0333738 0 0 0 -0.823913 1.26665 0.579634 0 -1.05196e-05 0 0 0 0 0 0 0 0 0 0 0 0 0 0 0 0 0 2 0.0008 0 
4290 4 0.00560807 0.10263 -0.0329986 0 0 0 0.0800943 -0.182518 0.227341 0 -1.05196e-05 0 0 0 0 0 0 0 0 0 0 0 0 0 0 0 0 0 6 0.0008 0 
1061 4 0.0092511 0.103232 -0.0332218 0 0 0 -0.254501 -0.133064 -0.0429744 0 -1.05196e-05 0 0 0 0 0 0 0 0 0 0 0 0 0 0 0 0 0 8 0.0008 0 
6184 2 0.00325198 0.104533 -0.0326088 0 0 0 -0.854881 -0.718187 -0.414501 0 -1.05196e-05 0 0 0 0 0 0 0 0 0 0 0 0 0 0 0 0 0 2 0.0008 0 
2450 4 0.00177838 0.105211 -0.0324616 0 0 0 -0.43502 0.30637 -0.530656 0.0423157 -0.00484576 -0.00173306 0 0 0 0 0 0 0 0 0 0 0 0 0 0 0 0 3 0.0008 0 
3790 4 0.011734 0.105195 -0.0329166 0 0 0 0.0671294 -0.178995 -0.0132358 -9.55313e-05 0.000456213 -9.87704e-05 0 1 0 1 0 0 0 0 0 0 0 0 0 0 0 0 12 0.0008 0 
2446 3 0.0132559 0.105094 -0.0324393 0 0 0 0.0342209 -0.152293 -0.0486372 0.000400287 -0.000150925 0.000359816 0 0 0 1 0 0 0 0 0 0 0 0 0 0 0 0 8 0.0008 0 
3196 2 0.0150572 0.10471 -0.0324187 0 0 0 -0.143317 0.286264 -0.0591429 0 -1.05196e-05 0 0 0 0 0 0 0 0 0 0 0 0 0 0 0 0 0 5 0.0008 0 
5453 8 0.0165041 0.105371 -0.0325942 0 0 0 0.201344 -0.0497687 0.0511528 -0.00283512 -0.000344318 0.000138289 0 0 0 0 0 0 0 1 0 0 0 0 0 0 0 0 1 0.0008 0 
1925 5 0.0180077 0.104852 -0.0324875 0 0 0 -0.0122423 -0.304287 -0.0651583 0.00283512 0.000323279 -0.000138289 0 0 0 0 0 0 0 1 0 0 0 0 0 0 0 0 5 0.0008 0 
5505 6 0.00299148 0.106379 -0.0326488 0 0 0 -0.53486 0.22715 0.275257 0.0110541 -0.00961194 0.000266694 0 0 0 0 0 1 0 0 0 0 0 0 0 0 0 0 2 0.0008 0 
6386 1 0.00482544 0.10656 -0.0330904 0 0 0 0.14593 -0.0137504 0.00370465 0 -1.05196e-05 0 0 0 0 0 0 0 0 0 0 0 0 0 0 0 0 0 0 0.0008 0 
5969 12 0.0061585 0.105872 -0.0324191 0 0 0 -0.0188587 -0.100202 -0.0360837 0 -1.05196e-05 0 0 0 0 0 0 0 0 0 0 0 0 0 0 0 0 0 0 0.0008 0 
5706 1 0.00789095 0.106271 -0.0327835 0 0 0 -0.025886 -0.105975 0.00839508 0 -1.05196e-05 0 0 0 0 0 0 0 0 0 0 0 0 0 0 0 0 0 9 0.0008 0 
2159 6 0.00950313 0.106281 -0.0328271 0 0 0 -0.0869753 -0.0427664 -0.00256064 0 -1.05196e-05 0 0 0 0 0 0 0 0 0 0 0 0 0 0 0 0 0 4 0.0008 0 
6013 2 0.0180587 0.106527 -0.032813 0 0 0 -0.0390391 -0.129091 -0.0501356 0 -1.05196e-05 0 0 0 0 0 0 0 0 0 0 0 0 0 0 0 0 0 0 0.0008 0 
3912 3 0.00180388 0.107413 -0.032683 0 0 0 -0.22122 0.439824 -0.0627128 -0.0110541 0.0095909 -0.000266694 0 0 0 0 0 1 0 0 0 0 0 0 0 0 0 0 4 0.0008 0 
5917 5 0.00667566 0.107305 -0.0329119 0 0 0 -0.0348113 -0.0153281 -0.0216911 -0.000434147 0.000328027 0.000632121 0 1 0 0 0 0 0 0 0 0 0 0 0 0 0 0 4 0.0008 0 
534 5 0.0117494 0.106877 -0.0328261 0 0 0 -0.0740291 -0.0969007 0.0620506 0 -1.05196e-05 0 0 0 0 0 0 0 0 0 0 0 0 0 0 0 0 0 6 0.0008 0 
5577 7 0.0135153 0.107608 -0.0326242 0 0 0 -0.127151 -0.118349 0.011838 0 -1.05196e-05 0 0 0 0 0 0 0 0 0 0 0 0 0 0 0 0 0 6 0.0008 0 
2134 4 0.0166123 0.107201 -0.0326618 0 0 0 0.00362452 -0.00650708 0.00103579 -9.69039e-05 -0.000123947 0.000161555 0 0 0 0 0 0 0 0 0 0 0 0 0 0 0 0 5 0.0008 0 
4734 1 0.010307 0.107756 -0.0329893 0 0 0 -0.0210822 0.0472947 -0.0173959 -3.20451e-05 -2.5668e-05 4.58957e-06 0 0 0 0 0 0 0 0 1 0 0 0 1 0 0 0 4 0.0008 0 
4251 1 0.00182004 0.109109 -0.0332848 0 0 0 -0.0159613 -0.0144344 -0.0283757 -0.00010503 1.35562e-05 0.000179086 0 0 1 0 0 0 0 0 0 0 0 0 0 0 0 0 7 0.0008 0 
2957 5 0.00334442 0.1092 -0.0326103 0 0 0 0.0121055 -0.0280394 0.0391953 -0.000118831 4.25239e-05 9.50506e-06 0 0 0 0 1 0 0 0 0 0 0 0 0 0 0 0 9 0.0008 0 
5682 2 0.00644715 0.108987 -0.0324659 0 0 0 -0.0592415 -0.0616449 -0.0413907 -0.000547217 4.25273e-05 -0.000351785 0 1 0 0 0 0 0 0 0 0 0 0 0 0 0 0 3 0.0008 0 
3135 4 0.00944569 0.109192 -0.0329692 0 0 0 -0.0388094 0.00116304 -0.0274713 0 -1.05196e-05 0 0 0 0 0 0 0 0 0 0 0 0 0 0 0 0 0 12 0.0008 0 
5072 8 0.0110218 0.109151 -0.0326617 0 0 0 0.00446926 0.0326448 -0.0981335 0 -1.05196e-05 0 0 0 0 0 0 0 0 0 0 0 0 0 0 0 0 0 5 0.0008 0 
1473 1 0.0126758 0.109196 -0.0326585 0 0 0 0.00054955 -0.0341609 -0.0797366 -0.000562743 0.000251699 0.000555472 0 0 0 0 0 0 1 0 0 0 0 0 0 0 0 0 8 0.0008 0 
716 6 0.0172551 0.109171 -0.0325177 0 0 0 -0.0119397 -0.0300602 0.0535537 0 -1.05196e-05 0 0 0 0 0 0 0 0 0 0 0 0 0 0 0 0 0 6 0.0008 0 
6756 11 0.0169234 0.092193 -0.0320132 0 0 0 -3.78787 2.04648 -2.38076 0 -1.05196e-05 0 0 0 0 0 0 0 0 0 0 0 0 0 0 0 0 0 0 0.0008 0 