ITEM: TIMESTEP
19800000
ITEM: NUMBER OF ATOMS
2389
ITEM: BOX BOUNDS ff ff ff
-0.01 0.45
-0.15 0.15
-0.08 0.1
ITEM: ATOMS id type x y z ix iy iz vx vy vz fx fy fz c_cc_1 c_cc_2 c_cc_3 c_cc_4 c_cc_5 c_cc_6 c_cc_7 c_cc_8 c_cc_9 c_cc_10 c_cc_11 c_cc_12 c_cc_13 c_cc_14 c_cc_15 c_cc_16 f_fppacc radius 
1915 8 0.0173716 -0.0526745 -0.0232216 0 0 0 10.4678 -18.0486 36.8072 0 -0.000164368 0 0 0 0 0 0 0 0 0 0 0 0 0 0 0 0 0 101 0.002 
652 4 0.00820572 -0.0433756 -0.0319841 0 0 0 1.51463 -5.69713 6.01485 0 -0.000164368 0 0 0 0 0 0 0 0 0 0 0 0 0 0 0 0 0 208 0.002 
1780 6 0.00329212 -0.051147 0.0261232 0 0 0 0.631337 5.0057 10.4975 0 -0.000164368 0 0 0 0 0 0 0 0 0 0 0 0 0 0 0 0 0 97 0.002 
2294 4 0.00365577 -0.0450125 0.0364385 0 0 0 0.253194 6.31264 7.77723 0.0118907 0.27291 -0.26173 0 0 0 0 0 0 0 0 0 0 0 0 0 0 0 0 52 0.002 
1059 3 0.0119729 -0.0568831 0.0101444 0 0 0 6.10236 4.97579 19.4906 0.017422 -0.0711451 0.0606727 0 0 0 0 0 0 0 0 0 0 0 0 0 0 0 0 201 0.002 
2427 5 0.00617144 -0.0083931 -0.0564416 0 0 0 -2.25487 -2.70301 1.42259 0 -0.000164368 0 0 0 0 0 0 0 0 0 0 0 0 0 0 0 0 0 0 0.002 
862 3 0.0102725 -0.0208523 -0.0530196 0 0 0 1.12537 -7.83189 3.77107 0 -0.000164368 0 0 0 0 0 0 0 0 0 0 0 0 0 0 0 0 0 182 0.002 
1225 1 0.00868698 -0.0283365 -0.0475078 0 0 0 0.457166 -9.99494 2.89684 0 -0.000164368 0 0 0 0 0 0 0 0 0 0 0 0 0 0 0 0 0 130 0.002 
1858 3 0.00584272 -0.0358209 -0.0435645 0 0 0 0.865524 -5.68086 3.17315 0 -0.000164368 0 0 0 0 0 0 0 0 0 0 0 0 0 0 0 0 0 124 0.002 
2468 5 0.0113815 -0.0201244 -0.0421292 0 0 0 -0.245481 -7.9855 2.46014 0 -0.000164368 0 0 0 0 0 0 0 0 0 0 0 0 0 0 0 0 0 0 0.002 
1921 3 0.00378167 -0.0150181 0.0557082 0 0 0 0.584283 14.6798 3.34774 0 -0.000164368 0 0 0 0 0 0 0 0 0 0 0 0 0 0 0 0 0 46 0.002 
1271 4 0.00659384 0.0118045 -0.0597113 0 0 0 -7.27298e-11 2.20168e-12 6.42326e-12 3.17144e-11 -3.23025e-12 3.59601e-13 0 0 0 0 0 0 0 0 0 0 0 0 0 0 0 0 131 0.002 
1671 3 0.00780084 0.0099776 -0.0449571 0 0 0 1.04413 -4.16022 -1.75726 0 -0.000164368 0 0 0 0 0 0 0 0 0 0 0 0 0 0 0 0 0 111 0.002 
2291 3 0.00717543 0.0293745 -0.0358703 0 0 0 0.972222 -4.40728 -0.963806 0 -0.000164368 0 0 0 0 0 0 0 0 0 0 0 0 0 0 0 0 0 48 0.002 
1551 3 0.0105838 0.0229977 -0.0315104 0 0 0 -0.207102 -2.89969 -0.152074 0 -0.000164368 0 0 0 0 0 0 0 0 0 0 0 0 0 0 0 0 0 108 0.002 
944 4 0.00369058 0.0283894 -0.0304701 0 0 0 0.0730934 -1.81302 0.119905 0 -0.000164368 0 0 0 0 0 0 0 0 0 0 0 0 0 0 0 0 0 120 0.002 
71 5 0.00703851 0.0305424 -0.0294236 0 0 0 -1.63202 -3.67684 0.237354 0 -0.000164368 0 0 0 0 0 0 0 0 0 0 0 0 0 0 0 0 0 128 0.002 
1105 7 0.0114835 0.0344056 -0.017105 0 0 0 -1.4115 -3.44321 1.10526 0 -0.000164368 0 0 0 0 0 0 0 0 0 0 0 0 0 0 0 0 0 180 0.002 
1755 6 0.0131158 0.0337739 -0.0071872 0 0 0 0.150522 -0.951061 0.837757 0 -0.000164368 0 0 0 0 0 0 0 0 0 0 0 0 0 0 0 0 0 107 0.002 
1897 2 0.00425885 0.0318883 0.0480964 0 0 0 -0.792669 5.98361 -4.02497 0 -0.000164368 0 0 0 0 0 0 0 0 0 0 0 0 0 0 0 0 0 103 0.002 
1714 4 0.0109908 0.014378 0.0560657 0 0 0 -1.79061 20.1547 -6.2769 0.0437984 -0.158184 -0.496521 0 0 0 0 0 0 0 0 0 0 0 0 0 0 0 0 86 0.002 
2449 5 0.00474193 0.0128063 0.0531685 0 0 0 6.21266 21.2141 -3.16259 0 -0.000164368 0 0 0 0 0 0 0 0 0 0 0 0 0 0 0 0 0 2 0.002 
41 1 0.0150591 0.0528769 -0.0355023 0 0 0 -4.61623e-16 -5.62446e-16 1.1243e-12 0 0 0 1 0 0 0 0 0 0 0 0 0 0 0 0 0 0 0 183 0.002 
480 3 0.0160522 0.0564905 -0.0354977 0 0 0 4.44721e-16 6.48889e-16 1.12804e-12 0 0 0 1 0 0 0 0 0 0 0 0 0 0 0 0 0 0 0 228 0.002 
1707 1 0.0127303 0.0625999 -0.0355 0 0 0 -1.10646e-11 -5.10723e-12 -6.91651e-12 3.10365e-12 2.86257e-12 -1.48148e-12 0 0 0 0 0 0 0 0 0 0 0 0 0 0 0 0 2 0.002 
286 14 0.0158492 0.0688613 -0.0355 0 0 0 1.12777e-24 -4.05782e-20 -2.81406e-12 -2.11067e-23 1.35525e-20 0 0 0 0 0 0 0 0 0 0 0 0 0 0 0 0 0 132 0.002 
2423 5 0.00373691 0.0561536 -0.0320149 0 0 0 0.578872 -0.55037 0.369092 0 -0.000164368 0 0 0 0 0 0 0 0 0 0 0 0 0 0 0 0 0 1 0.002 
134 2 0.00303132 0.0623439 -0.0308871 0 0 0 -1.4222 1.85694 1.80778 0 -0.000164368 0 0 0 0 0 0 0 0 0 0 0 0 0 0 0 0 0 12 0.002 
2117 3 0.00737209 0.0666589 -0.0328113 0 0 0 -0.368825 1.47706 -0.393932 0.229115 -0.306279 -0.102957 0 0 1 0 0 0 0 0 0 0 0 0 0 0 0 0 60 0.002 
1633 5 0.00296596 0.0669006 -0.0331486 0 0 0 -0.322634 -0.92381 0.243136 -0.0267706 0.148841 0.574922 0 0 0 0 1 0 0 0 0 0 0 0 0 0 0 0 196 0.002 
2085 6 0.0127379 0.0681284 -0.0323895 0 0 0 1.2046 -0.400766 0.263612 0 -0.000164368 0 0 0 0 0 0 0 0 0 0 0 0 0 0 0 0 0 57 0.002 
228 11 0.00523341 0.0718855 -0.0324402 0 0 0 -0.0340493 -0.447758 -1.54531 -0.0781124 0.145545 -0.0981495 0 0 0 0 0 0 0 0 0 0 1 0 0 0 0 0 188 0.002 
1588 1 0.0133008 0.0731986 -0.0329892 0 0 0 1.93501 -0.550008 0.0304704 0 -0.000164368 0 0 0 0 0 0 0 0 0 0 0 0 0 0 0 0 0 143 0.002 
689 12 0.00676008 0.0563304 -0.0289636 0 0 0 0.991195 1.18129 1.51671 0 -0.000164368 0 0 0 0 0 0 0 0 0 0 0 0 0 0 0 0 0 83 0.002 
293 1 0.00506699 0.0685459 -0.0304283 0 0 0 -0.851009 1.16452 1.00468 0.0990488 0.155594 0.596469 1 0 1 0 1 0 0 0 0 0 1 0 0 0 0 0 185 0.002 
527 8 0.00504975 0.0529033 -0.0271014 0 0 0 1.04323 -1.03969 1.66761 0 -0.000164368 0 0 0 0 0 0 0 0 0 0 0 0 0 0 0 0 0 113 0.002 
1572 2 0.00294058 0.0579548 -0.027721 0 0 0 -1.64469 -0.331663 1.12105 0.486778 -0.19034 -0.179674 0 0 0 0 0 0 0 0 0 0 0 0 0 0 0 0 143 0.002 
2222 4 0.00806458 0.0669436 -0.027918 0 0 0 1.39728 3.12544 -0.374449 0.364862 -0.822099 -0.786781 0 0 0 1 0 0 0 0 0 0 0 0 0 0 0 0 37 0.002 
29 5 0.00841413 0.0669549 -0.000952737 0 0 0 5.14173 13.9431 -40.7449 0 -0.000164368 0 0 0 0 0 0 0 0 0 0 0 0 0 0 0 0 0 179 0.002 
682 2 0.005535 0.0615788 -0.0234085 0 0 0 0.679541 -0.517323 3.17441 0 -0.000164368 0 0 0 0 0 0 0 0 0 0 0 0 0 0 0 0 0 146 0.002 
1119 4 0.0114971 0.0634949 -0.0267717 0 0 0 0.903791 1.66506 -1.11828 0 -0.000164368 0 0 0 0 0 0 0 0 0 0 0 0 0 0 0 0 0 159 0.002 
2460 2 0.00618169 0.0700081 -0.0269237 0 0 0 1.42867 -1.81709 3.59105 -0.402313 0.823006 0.726397 1 0 0 1 0 0 0 0 0 0 0 0 0 0 0 0 2 0.002 
696 4 0.0144159 0.0489335 -0.0235433 0 0 0 -0.255078 -4.39395 0.823197 0 -0.000164368 0 0 0 0 0 0 0 0 0 0 0 0 0 0 0 0 0 147 0.002 
2263 2 0.00502475 0.0662346 -0.0233832 0 0 0 -0.620214 0.578499 1.70016 0 -0.000164368 0 0 0 0 0 0 0 0 0 0 0 0 0 0 0 0 0 20 0.002 
1088 8 0.0104676 0.0668523 -0.0189123 0 0 0 -1.9129 -0.253229 5.17877 0 -0.000164368 0 0 0 0 0 0 0 0 0 0 0 0 0 0 0 0 0 176 0.002 
710 2 0.0144661 0.0421701 -0.0192304 0 0 0 1.30856 -1.46938 -0.264733 0 -0.000164368 0 0 0 0 0 0 0 0 0 0 0 0 0 0 0 0 0 176 0.002 
1757 5 0.00353158 0.0501188 -0.0160151 0 0 0 0.12997 -0.315131 0.539939 0 -0.000164368 0 0 0 0 0 0 0 0 0 0 0 0 0 0 0 0 0 120 0.002 
2475 6 0.00713548 0.0644634 -0.0155964 0 0 0 1.1378 -0.072734 1.0573 0 -0.000164368 0 0 0 0 0 0 0 0 0 0 0 0 0 0 0 0 0 0 0.002 
243 5 0.00965902 0.0494066 -0.0120561 0 0 0 0.620041 -0.105519 0.0522179 0 -0.000164368 0 0 0 0 0 0 0 0 0 0 0 0 0 0 0 0 0 178 0.002 
2105 5 0.00306539 0.0665846 -0.0116378 0 0 0 -0.0077871 -0.368057 1.54098 0 -0.000164368 0 0 0 0 0 0 0 0 0 0 0 0 0 0 0 0 0 43 0.002 
1726 5 0.00643275 0.0412771 -0.00915796 0 0 0 -0.300373 -0.984049 1.71526 0 -0.000164368 0 0 0 0 0 0 0 0 0 0 0 0 0 0 0 0 0 142 0.002 
420 3 0.00531486 0.0744969 -0.0101788 0 0 0 0.85379 0.176713 -2.20258 0 -0.000164368 0 0 0 0 0 0 0 0 0 0 0 0 0 0 0 0 0 103 0.002 
1959 12 0.00342025 0.0544518 -0.00686714 0 0 0 0.301303 -0.848005 1.16977 0 -0.000164368 0 0 0 0 0 0 0 0 0 0 0 0 0 0 0 0 0 92 0.002 
1982 1 0.00325837 0.04847 -0.00154783 0 0 0 -1.13921 -1.23205 2.34462 0 -0.000164368 0 0 0 0 0 0 0 0 0 0 0 0 0 0 0 0 0 67 0.002 
305 5 0.00410833 0.0420975 0.000124632 0 0 0 0.651652 -2.20848 1.91804 0 -0.000164368 0 0 0 0 0 0 0 0 0 0 0 0 0 0 0 0 0 232 0.002 
2426 11 0.00421868 0.0614975 0.00134796 0 0 0 1.48308 -2.70272 1.46285 0 -0.000164368 0 0 0 0 0 0 0 0 0 0 0 0 0 0 0 0 0 1 0.002 
1670 5 0.00638048 0.0748139 -0.00121764 0 0 0 0.0824294 1.38944 -0.135491 0 -0.000164368 0 0 0 0 0 0 0 0 0 0 0 0 0 0 0 0 0 110 0.002 
2124 3 0.00396394 0.0499184 0.00643972 0 0 0 -1.01988 -1.39129 2.64945 0 -0.000164368 0 0 0 0 0 0 0 0 0 0 0 0 0 0 0 0 0 2 0.002 
61 8 0.01071 0.0627675 -0.00466146 0 0 0 5.16014 8.00445 -28.3118 0 -0.000164368 0 0 0 0 0 0 0 0 0 0 0 0 0 0 0 0 0 176 0.002 
570 1 0.0124554 0.065948 0.00795985 0 0 0 -1.63032 0.825823 -2.27048 0 -0.000164368 0 0 0 0 0 0 0 0 0 0 0 0 0 0 0 0 0 170 0.002 
1020 3 0.0169468 0.0747228 0.00977444 0 0 0 -0.132752 -0.293438 -0.264421 0 -0.000164368 0 0 0 0 0 0 0 0 0 0 0 0 0 0 0 0 0 177 0.002 
2198 9 0.00364482 0.0633408 0.00681798 0 0 0 3.1147 6.32515 -7.0754 0 -0.000164368 0 0 0 0 0 0 0 0 0 0 0 0 0 0 0 0 0 49 0.002 
2220 7 0.0146198 0.0550627 0.00584839 0 0 0 2.67859 1.01465 -9.8396 0 -0.000164368 0 0 0 0 0 0 0 0 0 0 0 0 0 0 0 0 0 58 0.002 
1728 7 0.018662 0.074437 -0.0163177 0 0 0 -0.421875 -1.87997 -2.94983 0.202146 -0.345543 0.714977 0 0 0 0 0 0 1 0 0 0 0 0 0 0 0 0 69 0.002 
2230 3 0.00627048 0.0474291 0.0125884 0 0 0 -0.668395 -1.73133 3.24393 0 -0.000164368 0 0 0 0 0 0 0 0 0 0 0 0 0 0 0 0 0 47 0.002 
1715 4 0.0068907 0.073274 0.0330056 0 0 0 -0.0552319 0.0259065 0.0550903 0.00489819 -0.000749808 -0.0114314 0 0 0 0 0 0 0 0 0 0 0 0 0 0 0 0 134 0.002 
1984 2 0.0152793 0.0739289 0.0329449 0 0 0 -0.0647888 0.0394248 -0.0169518 -1.44883e-05 -0.000194582 -1.24222e-05 0 1 0 0 0 0 0 0 0 0 0 0 0 0 0 0 100 0.002 
2033 10 0.0112686 0.0484362 0.0151385 0 0 0 0.77327 -0.991475 2.84692 0 -0.000164368 0 0 0 0 0 0 0 0 0 0 0 0 0 0 0 0 0 87 0.002 
1162 3 0.0134541 0.0717231 0.0104924 0 0 0 -1.31873 6.32993 -5.01439 0 -0.000164368 0 0 0 0 0 0 0 0 0 0 0 0 0 0 0 0 0 133 0.002 
699 9 0.0139673 0.0739463 0.0143387 0 0 0 -0.269329 0.0731338 -0.310692 0 -0.000164368 0 0 0 0 0 0 0 0 0 0 0 0 0 0 0 0 0 190 0.002 
1065 3 0.0178154 0.0464002 0.0152479 0 0 0 0.850889 -0.840614 1.30537 0 -0.000164368 0 0 0 0 0 0 0 0 0 0 0 0 0 0 0 0 0 145 0.002 
2457 1 0.00594085 0.0679484 0.0152986 0 0 0 3.73008 4.84931 -3.61934 0.00809 -0.0192809 -0.00685762 1 0 0 0 0 0 0 0 0 0 0 0 0 0 0 0 1 0.002 
252 6 0.00358818 0.0704096 0.0110718 0 0 0 2.48029 10.7092 -7.32502 0 -0.000164368 0 0 0 0 0 0 0 0 0 0 0 0 0 0 0 0 0 208 0.002 
397 3 0.00300217 0.0705009 0.0159875 0 0 0 0.361973 1.71974 -3.0119 0.0717846 -0.127923 -0.0462124 1 0 1 0 0 0 0 0 0 0 0 0 0 0 0 0 190 0.002 
1175 4 0.0102314 0.0699069 0.0175688 0 0 0 0.892884 0.412902 -0.491668 -0.0486463 -0.0352064 -0.0248536 0 0 0 1 0 0 0 0 0 0 0 0 0 0 0 0 194 0.002 
1309 2 0.0146779 0.0693324 0.0171958 0 0 0 0.735691 1.44147 -2.11825 -0.0403588 -0.039572 -0.0350449 0 1 0 0 0 0 0 0 0 0 0 0 0 0 0 0 68 0.002 
126 2 0.0173141 0.0721952 0.0178092 0 0 0 0.402736 0.618325 -0.646703 0.0544531 0.0987468 -0.0431539 0 1 0 0 0 0 0 0 0 0 0 0 0 0 0 0 190 0.002 
1176 6 0.00292841 0.073994 0.0176581 0 0 0 0.338389 1.43265 0.325615 0.169345 -0.182643 -0.00481213 0 0 1 0 0 0 0 0 0 0 0 0 0 0 0 0 196 0.002 
627 2 0.00707371 0.0740203 0.0182012 0 0 0 0.275932 0.926647 0.333571 0.102254 0.451107 0.0311309 0 0 0 0 0 0 0 0 0 0 0 0 0 0 0 0 189 0.002 
1730 4 0.0104289 0.0712772 0.0329948 0 0 0 0.0336361 0.0493321 0.0140045 -0.000148653 0.000209254 -7.0254e-05 0 0 0 1 0 0 0 0 0 0 0 0 0 0 0 0 122 0.002 
1184 1 0.0173461 0.0676695 0.0130418 0 0 0 6.11005 9.80596 -12.3605 0 -0.000164368 0 0 0 0 0 0 0 0 0 0 0 0 0 0 0 0 0 61 0.002 
455 1 0.0152558 0.0671309 0.0203714 0 0 0 1.55438 1.9953 -0.837482 -0.046563 -0.0779775 0.071846 0 1 0 0 0 0 0 0 0 0 0 0 0 0 0 0 228 0.002 
1374 2 0.00643058 0.0702942 0.0189823 0 0 0 0.393773 2.50348 -1.4807 -0.0533252 -0.527189 -0.103173 0 2 0 0 0 0 0 0 0 0 0 0 0 0 0 0 161 0.002 
615 3 0.00319562 0.0713771 0.0209073 0 0 0 -0.0507153 2.0409 0.018371 -0.0688584 0.00707564 0.00683682 0 1 0 0 0 0 0 0 0 0 0 0 0 0 0 0 129 0.002 
1145 1 0.0118884 0.0721964 0.0203364 0 0 0 0.398938 0.507864 -0.414831 0.0196627 -0.0125732 0.025793 1 0 0 1 0 0 0 0 0 0 0 0 0 0 0 0 139 0.002 
819 2 0.0183344 0.074549 0.0209697 0 0 0 0.199925 -0.160666 0.0760481 -0.00418081 0.0174376 -0.00639059 0 2 0 0 0 0 0 0 0 0 0 0 0 0 0 0 218 0.002 
1589 1 0.0122553 0.0650397 0.0219112 0 0 0 2.04383 -0.933491 -1.69031 0.0178749 0.00531691 -0.000866916 0 0 0 0 0 0 0 0 0 0 0 0 0 0 0 0 110 0.002 
584 8 0.0178252 0.064421 0.0229198 0 0 0 -0.184581 -0.273086 -0.719393 0 -0.000164368 0 0 0 0 0 0 0 0 0 0 0 0 0 0 0 0 0 271 0.002 
1017 2 0.00312105 0.0677449 0.0226481 0 0 0 1.1974 1.15916 -0.0824313 0 -0.000164368 0 0 0 0 0 0 0 0 0 0 0 0 0 0 0 0 0 112 0.002 
1089 6 0.00727481 0.0676685 0.0222969 0 0 0 -0.269283 1.12737 0.581213 0.0022081 -0.0230289 0.00953231 0 0 0 0 0 1 0 0 0 0 0 0 0 0 0 0 182 0.002 
1040 3 0.011882 0.0692348 0.0229939 0 0 0 0.0290835 0.930633 0.195411 0.00409027 -0.0119816 0.00475996 1 0 0 0 0 0 0 0 0 0 0 0 0 0 0 0 149 0.002 
137 1 0.00687955 0.0716021 0.0225752 0 0 0 0.068409 1.345 2.00223 -0.100839 -0.378722 -0.0688532 1 1 0 0 0 1 0 0 0 0 0 0 0 0 0 0 205 0.002 
875 2 0.0166695 0.0711862 0.0222431 0 0 0 0.246741 -0.125293 -0.105119 -0.018436 -0.0182694 0.0146582 0 2 0 0 0 0 0 0 0 0 0 0 0 0 0 0 124 0.002 
2321 1 0.00921655 0.0746368 0.0229241 0 0 0 0.54338 1.72655 1.14507 0.115274 0.0656997 0.0597955 1 0 0 0 0 0 0 0 0 0 0 0 0 0 0 0 31 0.002 
1697 1 0.0156931 0.0692962 0.0256219 0 0 0 0.595914 -0.172617 -0.162899 -0.00494159 -0.00553506 0.00480105 0 1 0 0 0 0 0 0 0 0 0 0 0 0 0 0 117 0.002 
1471 6 0.00335914 0.0720634 0.0251881 0 0 0 0.0745068 -0.03189 -0.0392825 0 -0.000164368 0 0 0 0 0 0 0 0 0 0 0 0 0 0 0 0 0 147 0.002 
740 1 0.0106252 0.0720593 0.0255856 0 0 0 0.519718 0.69536 0.622458 -0.0131918 -0.187524 -0.0338688 0 0 0 0 0 0 0 0 0 0 0 0 0 0 0 0 131 0.002 
1804 2 0.016241 0.0585047 0.0278868 0 0 0 -0.281902 -0.233942 -0.0509891 0 -0.000164368 0 0 0 0 0 0 0 0 0 0 0 0 0 0 0 0 0 130 0.002 
1999 7 0.0130658 0.0654705 0.0261941 0 0 0 0.753273 0.0784695 -0.594095 0 -0.000164368 0 0 0 0 0 0 0 0 0 0 0 0 0 0 0 0 0 53 0.002 
1609 14 0.0179509 0.0634261 0.0277119 0 0 0 0.789579 -0.683848 -0.159801 0 -0.000164368 0 0 0 0 0 0 0 0 0 0 0 0 0 0 0 0 0 154 0.002 
1911 2 0.0068281 0.0674984 0.0270684 0 0 0 -0.0582853 -0.0325317 -0.306026 0 -0.000164368 0 0 0 0 0 0 0 0 0 0 0 0 0 0 0 0 0 121 0.002 
933 1 0.00662173 0.0743242 0.0259076 0 0 0 -0.0195743 0.072062 0.141766 -0.0202652 0.0160048 0.044782 1 0 0 0 0 0 0 0 0 0 0 0 0 0 0 0 194 0.002 
2299 2 0.0156916 0.0739145 0.0257771 0 0 0 -0.016399 -0.0511055 -0.104453 0.00195391 -0.000891244 -0.00157948 0 1 0 0 0 0 0 0 0 0 0 0 0 0 0 0 46 0.002 
1383 2 0.00635005 0.0596507 0.0283421 0 0 0 -0.0305387 0.261613 -0.936194 0 -0.000164368 0 0 0 0 0 0 0 0 0 0 0 0 0 0 0 0 0 142 0.002 
2271 6 0.00388611 0.0648564 0.0290348 0 0 0 0.215826 -0.306715 -0.0263008 0 -0.000164368 0 0 0 0 0 0 0 0 0 0 0 0 0 0 0 0 0 53 0.002 
1347 4 0.00939063 0.0631686 0.0289783 0 0 0 0.482989 -0.3041 -0.269723 0 -0.000164368 0 0 0 0 0 0 0 0 0 0 0 0 0 0 0 0 0 155 0.002 
1302 3 0.0185695 0.0676232 0.0285411 0 0 0 0.135482 -0.335498 -0.165722 -0.0015144 -0.000706802 -0.000231206 0 0 0 0 0 0 0 0 0 0 0 0 0 0 0 0 158 0.002 
1634 4 0.00371627 0.0694125 0.0293318 0 0 0 0.15942 -0.231686 -0.00824463 0 -0.000164368 0 0 0 0 0 0 0 0 0 0 0 0 0 0 0 0 0 161 0.002 
1262 8 0.0116399 0.068863 0.0281684 0 0 0 0.300185 -0.134726 -0.175809 0 -0.000164368 0 0 0 0 0 0 0 0 0 0 0 0 0 0 0 0 0 138 0.002 
300 1 0.00767036 0.0713247 0.0283411 0 0 0 0.079487 -0.0818342 -0.109225 0 -0.000164368 0 0 0 0 0 0 0 0 0 0 0 0 0 0 0 0 0 224 0.002 
1096 8 0.0154624 0.0715879 0.029706 0 0 0 0.0654284 -0.0300976 0.0370077 0 -0.000164368 0 0 0 0 0 0 0 0 0 0 0 0 0 0 0 0 0 190 0.002 
693 8 0.00349056 0.0741223 0.0286461 0 0 0 0.102776 -0.0626917 -0.0323758 0 -0.000164368 0 0 0 0 0 0 0 0 0 0 0 0 0 0 0 0 0 205 0.002 
1385 1 0.0112137 0.0730183 0.029475 0 0 0 0.0270099 -0.0087007 -0.0618965 -0.00293629 -0.00135214 0.00149148 1 0 0 0 0 0 0 0 0 0 0 0 0 0 0 0 166 0.002 
2283 7 0.0181893 0.0745221 0.0297135 0 0 0 0.0798174 -0.052025 -0.00083647 -2.35387e-05 -0.00078317 0.00106537 0 0 0 0 0 0 1 0 0 0 0 0 0 0 0 0 41 0.002 
1390 1 0.0145997 0.0571802 0.0313571 0 0 0 0.0540465 -0.543949 0.171861 0 -0.000164368 0 0 0 0 0 0 0 0 0 0 0 0 0 0 0 0 0 147 0.002 
1568 2 0.0123793 0.0639478 0.0316617 0 0 0 0.512729 0.372658 0.0458142 0 -0.000164368 0 0 0 0 0 0 0 0 0 0 0 0 0 0 0 0 0 144 0.002 
742 3 0.0030683 0.072355 0.0322099 0 0 0 -0.00299166 -0.128939 -0.0630189 0 -0.000164368 0 0 0 0 0 0 0 0 0 0 0 0 0 0 0 0 0 181 0.002 
1767 3 0.0134674 0.0536659 0.0329843 0 0 0 -0.121628 -0.441342 -0.00644123 0 -0.000164368 0 0 0 0 0 0 0 0 0 0 0 0 0 0 0 0 0 118 0.002 
1809 5 0.0105374 0.0572503 0.0325662 0 0 0 0.0685142 -0.218174 -0.161642 0 -0.000164368 0 0 0 0 0 0 0 0 0 0 0 0 0 0 0 0 0 90 0.002 
1862 2 0.0183954 0.0580493 0.0326698 0 0 0 0.124021 -0.321804 0.203967 0 -0.000164368 0 0 0 0 0 0 0 0 0 0 0 0 0 0 0 0 0 92 0.002 
2089 4 0.00312933 0.0588194 0.0328016 0 0 0 0.0282626 -0.516086 -0.0232599 0 -0.000164368 0 0 0 0 0 0 0 0 0 0 0 0 0 0 0 0 0 36 0.002 
1257 5 0.00315794 0.0645409 0.0329848 0 0 0 0.0517436 -0.220112 -0.0155701 0 -0.000164368 0 0 0 0 0 0 0 0 0 0 0 0 0 0 0 0 0 78 0.002 
1827 1 0.0072859 0.0639978 0.0325312 0 0 0 0.175916 0.0819497 -0.234054 0 -0.000164368 0 0 0 0 0 0 0 0 0 0 0 0 0 0 0 0 0 100 0.002 
524 5 0.0167122 0.0645206 0.0329354 0 0 0 0.257307 0.086208 0.110659 0 -0.000164368 0 0 0 0 0 0 0 0 0 0 0 0 0 0 0 0 0 214 0.002 
2063 4 0.00977741 0.0673291 0.0329986 0 0 0 0.0347444 0.118927 -0.00696293 0 -0.000164368 0 0 0 0 0 0 0 0 0 0 0 0 0 0 0 0 0 59 0.002 
880 6 0.0137619 0.0679109 0.0327779 0 0 0 0.103374 0.025256 -0.0402029 0 -0.000164368 0 0 0 0 0 0 0 0 0 0 0 0 0 0 0 0 0 108 0.002 
1027 1 0.00600941 0.0687692 0.0327427 0 0 0 -0.0246359 -0.0278172 -0.00140595 0 -0.000164368 0 0 0 0 0 0 0 0 0 0 0 0 0 0 0 0 0 200 0.002 
1392 6 0.0172599 0.0701144 0.0330011 0 0 0 0.123623 -0.00703237 -0.0619564 -0.000849478 -0.000827279 0.00304126 0 0 0 0 0 0 0 0 0 0 0 0 0 0 0 0 158 0.002 
1517 5 0.0166068 0.0414256 0.0404963 0 0 0 8.39214 20.2118 -21.1545 0.0224466 -0.852297 -0.64503 0 0 0 0 0 0 0 0 0 0 0 0 0 0 0 0 140 0.002 
1361 5 0.00310897 0.078087 -0.0327825 0 0 0 0.0491927 -0.235299 0.091941 0 -0.000164368 0 0 0 0 0 0 0 0 0 0 0 0 0 0 0 0 0 140 0.002 
2218 7 0.00763223 0.0796324 -0.0329828 0 0 0 1.11472 -0.0769201 0.375806 0.00433478 -0.0505479 0.000255817 0 0 0 0 0 0 1 0 0 0 0 0 0 0 0 0 64 0.002 
905 3 0.0137356 0.0813548 -0.0328129 0 0 0 -0.509113 0.0407627 0.00537136 -0.000694259 -0.0057246 -0.00203737 0 0 2 0 0 0 0 0 0 0 0 0 0 0 0 0 156 0.002 
1469 6 0.00300598 0.0830292 -0.032971 0 0 0 0.00252172 -0.0239539 0.0244389 0 -0.000164368 0 0 0 0 0 0 0 0 0 0 0 0 0 0 0 0 0 155 0.002 
1620 1 0.0107421 0.0842542 -0.0316728 0 0 0 -0.0736469 -0.335392 0.323115 0.0265184 -0.0246103 0.0162057 1 0 0 0 0 0 0 0 0 0 0 0 0 0 0 0 89 0.002 
770 4 0.0158454 0.0847413 -0.0329718 0 0 0 -0.155864 -0.256916 0.050036 0.0533394 -0.0110092 -0.0165517 0 0 1 2 0 0 0 0 0 0 0 0 0 0 0 0 61 0.002 
731 2 0.00295743 0.0882336 -0.0325492 0 0 0 0.0654899 0.305247 -0.0912049 -0.00593983 0.0673627 -0.0192883 0 0 0 0 0 0 0 0 0 0 0 0 0 0 0 0 195 0.002 
964 2 0.00660514 0.0869015 -0.0329706 0 0 0 0.167496 0.210179 -0.30767 0.0342734 0.0193276 -0.0247959 0 2 0 0 0 0 0 0 0 0 0 0 0 0 0 0 176 0.002 
2431 1 0.0132072 0.0873527 -0.0316076 0 0 0 0.0590459 -0.203846 0.409063 0.0108509 -0.00354038 0.010899 2 0 0 1 0 0 0 0 0 0 0 0 0 0 0 0 6 0.002 
960 3 0.0166651 0.0887412 -0.0330397 0 0 0 -0.420288 0.249412 0.451194 0.0151817 0.00308073 -0.00674295 1 0 0 0 0 0 0 0 0 0 0 0 0 0 0 0 223 0.002 
1579 5 0.00990268 0.0890808 -0.0329311 0 0 0 0.265436 -0.0662284 -0.0138335 0.010269 0.0272783 -0.053777 1 1 0 0 2 0 0 0 0 0 0 0 0 0 0 0 135 0.002 
1479 5 0.00297355 0.0925585 -0.032936 0 0 0 0.0450622 -0.0209316 0.1406 -0.0216189 0.00445791 -0.00785619 0 0 0 0 1 0 0 0 0 0 0 0 0 0 0 0 151 0.002 
1329 3 0.00676724 0.0914955 -0.0330278 0 0 0 -0.0199648 -0.0429744 0.0709328 -0.0312076 0.020251 -0.0018735 0 0 1 0 2 0 0 0 0 0 0 0 0 0 0 0 123 0.002 
2435 3 0.0102702 0.0932763 -0.0330154 0 0 0 -0.399531 0.208101 0.0915124 0.0361795 0.0455313 -0.0313095 0 0 1 0 0 0 0 0 0 0 0 0 0 0 0 0 4 0.002 
2380 3 0.0136465 0.0915801 -0.0319116 0 0 0 -0.439863 0.0738367 -0.0163549 0.0796369 0.00301503 0.046858 0 0 0 0 0 0 0 0 0 0 0 0 0 0 0 0 5 0.002 
1238 1 0.0169706 0.0935809 -0.0330009 0 0 0 -0.581602 0.326382 0.00313278 0.0105126 -0.0121663 -0.00551942 0 0 0 0 0 0 0 0 0 0 0 0 0 0 0 0 166 0.002 
1180 3 0.00662782 0.0953556 -0.0320028 0 0 0 0.109078 0.0651077 -0.0670164 -0.0235061 -0.00325005 0.0040791 0 0 3 0 0 0 0 0 0 0 0 0 0 0 0 0 173 0.002 
888 1 0.0135593 0.0956365 -0.0329127 0 0 0 -0.655055 0.0549687 -0.0310159 0.0590843 -0.00705155 -0.00517181 3 0 0 0 0 0 0 0 0 0 0 0 0 0 0 0 175 0.002 
1391 4 0.00299335 0.096658 -0.0329899 0 0 0 0.0750632 0.0676433 -0.215155 -0.00562134 -0.00912344 0.000114676 0 0 1 1 0 0 0 0 0 0 0 0 0 0 0 0 73 0.002 
679 5 0.0100167 0.0973633 -0.0325543 0 0 0 -0.178122 0.140924 -0.122671 -0.041083 -0.00101311 -0.0105213 1 0 1 0 2 0 0 0 0 0 0 0 0 0 0 0 248 0.002 
1716 2 0.0176514 0.0977965 -0.0330032 0 0 0 -0.209721 -0.152894 0.0704868 -0.000256854 -0.000654789 -0.00068542 0 2 0 0 0 0 0 0 0 0 0 0 0 0 0 0 97 0.002 
635 4 0.00694278 0.0998741 -0.032986 0 0 0 -0.0728574 0.231886 -0.32984 0.0105676 0.00895328 -0.0320824 0 0 0 1 1 0 0 0 0 0 0 0 0 0 0 0 197 0.002 
1382 2 0.0133072 0.099607 -0.032785 0 0 0 -0.0303027 0.167631 -0.0162035 0.0171942 -0.00777686 0.00543009 1 1 0 0 1 0 0 0 0 0 0 0 0 0 0 0 154 0.002 
1473 2 0.0103797 0.102289 -0.0329027 0 0 0 0.0314124 0.466787 -0.189632 0.0208019 -0.0230447 0.00203313 0 3 0 0 0 0 0 0 0 0 0 0 0 0 0 0 108 0.002 
1459 3 0.0167034 0.101676 -0.0330033 0 0 0 0.0708511 -0.0540022 0.0370103 -0.013788 0.00505397 0.00904919 0 2 2 0 0 0 0 0 0 0 0 0 0 0 0 0 123 0.002 
1360 1 0.00296933 0.104154 -0.0320137 0 0 0 0.0541105 0.146784 0.0945839 0.00483318 0.00233464 -0.000308942 2 0 0 0 0 0 0 0 0 0 0 0 0 0 0 0 128 0.002 
2349 1 0.00678418 0.103943 -0.032999 0 0 0 0.011578 0.289381 -0.138306 0.0209468 0.00656887 -0.0093343 0 1 0 0 0 0 0 0 0 0 0 0 0 0 0 0 27 0.002 
1161 6 0.0136637 0.104539 -0.0330137 0 0 0 -0.108493 0.330821 0.094403 -0.0278862 0.00242647 -0.0205072 0 1 0 0 0 2 0 0 0 0 0 0 0 0 0 0 172 0.002 
2282 6 0.0183793 0.105291 -0.0330154 0 0 0 -0.323863 0.131266 0.0140991 0.00674167 -0.00718191 -0.00442108 0 0 1 0 0 3 0 0 0 0 0 0 0 0 0 0 44 0.002 
784 7 0.0036446 0.107965 -0.0329916 0 0 0 -0.175467 -0.00309268 -0.00179092 -0.00163572 0.0123687 0.00388389 1 0 0 0 0 0 1 0 0 0 0 0 0 0 0 0 209 0.002 
1090 12 0.007633 0.108006 -0.033003 0 0 0 -0.122944 -0.00721433 -0.0053798 -0.00359819 -0.000800757 -0.00290474 0 0 0 0 0 0 1 0 0 0 0 2 0 0 0 0 139 0.002 
1270 6 0.0116075 0.108017 -0.0329985 0 0 0 -0.127017 -0.024138 -0.019542 -0.00661385 -0.00583527 -0.00517608 0 0 0 0 0 1 0 0 0 0 0 1 0 0 0 0 165 0.002 
17 4 0.0155685 0.108024 -0.0330142 0 0 0 -0.174696 0.0665788 -0.0447954 -0.00496341 0.00369573 -0.0051685 0 0 0 1 0 3 0 0 0 0 0 0 0 0 0 0 134 0.002 
22 2 0.00820095 0.0770038 -0.0299627 0 0 0 1.45124 -0.0849566 0.821278 0 -0.000164368 0 0 0 0 0 0 0 0 0 0 0 0 0 0 0 0 0 22 0.002 
823 9 0.0143889 0.077978 -0.0307842 0 0 0 -0.662487 0.406968 0.755471 -0.0377742 0.00248934 0.000837254 0 0 1 0 0 0 0 0 0 0 0 0 0 0 0 0 182 0.002 
446 9 0.0181028 0.0794077 -0.0309378 0 0 0 -0.698421 -0.761902 0.0912229 0.0453063 -0.0749005 -0.02753 0 0 0 0 0 0 0 0 1 0 0 0 0 0 0 0 178 0.002 
2030 2 0.00445386 0.0801995 -0.0292805 0 0 0 0.029181 -0.852167 -0.876262 -0.00343987 -0.0347233 -0.0634833 0 1 0 0 0 0 0 0 0 0 0 0 0 0 0 0 67 0.002 
1628 6 0.00692254 0.0832611 -0.0315946 0 0 0 -0.383389 -0.0148384 0.160156 -0.00921857 -0.0750837 0.0173499 1 1 0 0 0 0 1 0 0 0 0 0 0 0 0 0 151 0.002 
1822 3 0.00351395 0.0849112 -0.0294298 0 0 0 0.0948405 -0.31006 0.22703 0 -0.000164368 0 0 0 0 0 0 0 0 0 0 0 0 0 0 0 0 0 108 0.002 
2040 7 0.0163916 0.0859087 -0.0291955 0 0 0 -1.15584 0.0300545 0.177 0.00154405 0.000200577 0.00232072 0 0 0 1 0 0 0 0 0 0 0 0 0 0 0 0 39 0.002 
912 8 0.00577937 0.0893188 -0.0298544 0 0 0 -0.183648 0.275306 -0.306839 0.0108273 -0.0345848 0.0405038 0 0 1 0 0 0 0 0 0 0 0 0 0 0 0 0 201 0.002 
2253 10 0.011903 0.0943331 -0.029534 0 0 0 -0.524256 0.0673825 0.135504 0.0300097 0.015744 -0.0193628 1 0 1 0 0 0 0 0 0 1 0 0 0 0 0 0 44 0.002 
1787 1 0.00595617 0.0983501 -0.0294648 0 0 0 0.0648977 0.297932 -0.153639 0.00414478 -0.0194412 0.00439463 3 0 1 1 0 0 0 0 0 0 0 0 0 0 0 0 121 0.002 
555 5 0.00297218 0.100237 -0.0312403 0 0 0 -0.0108911 0.0289911 -0.00446466 0.000179742 -0.00328458 0.00541926 2 0 0 1 0 0 0 0 0 0 0 0 0 0 0 0 213 0.002 
1756 2 0.013369 0.10256 -0.0295902 0 0 0 -0.373518 0.568915 0.180698 0.00752585 -0.0371606 -0.0292899 0 2 0 0 0 1 0 0 0 0 0 0 0 0 0 0 133 0.002 
906 5 0.0104723 0.105293 -0.0302796 0 0 0 -0.166329 0.517352 0.117675 -0.000505996 -7.2144e-05 -0.0108396 0 1 0 0 1 0 0 0 0 0 0 0 0 0 0 0 240 0.002 
481 2 0.0170331 0.104114 -0.029413 0 0 0 -0.33761 0.348903 -0.227248 0.00570527 0.00664124 -0.0248012 0 1 0 0 0 0 0 0 0 0 0 0 0 0 0 0 195 0.002 
1934 2 0.00653349 0.106163 -0.029649 0 0 0 -0.0700836 0.0686839 -0.0237813 0.00816086 0.0112469 -0.00111707 0 3 0 0 0 0 0 0 0 0 0 1 0 0 0 0 96 0.002 
1866 2 0.0137815 0.107771 -0.0294674 0 0 0 -0.0344406 -0.0190896 0.0685359 0.00484164 -0.00677154 -0.00126947 0 1 0 1 0 0 0 0 0 0 0 0 0 0 0 0 122 0.002 
708 1 0.00973485 0.0824423 -0.0282512 0 0 0 -0.448307 -0.415084 0.571688 0 -0.000164368 0 0 0 0 0 0 0 0 0 0 0 0 0 0 0 0 0 187 0.002 
2462 4 0.00799411 0.0861084 -0.0284918 0 0 0 0.00986383 0.174233 -0.398353 -0.00724428 -0.0141259 -0.0125782 0 0 0 1 0 0 0 0 0 0 0 0 0 0 0 0 2 0.002 
1498 5 0.0126701 0.0861871 -0.0277171 0 0 0 -1.23712 -0.233686 0.261608 0 -0.000164368 0 0 0 0 0 0 0 0 0 0 0 0 0 0 0 0 0 143 0.002 
485 2 0.0105494 0.0893405 -0.0290359 0 0 0 -1.16487 -0.0664933 -0.124695 -0.0642329 -0.00410458 0.0590599 0 2 0 0 1 0 0 0 0 0 0 0 0 0 0 0 54 0.002 
1955 3 0.0144153 0.0897237 -0.0284919 0 0 0 -0.734033 0.0196619 0.272385 0.0276697 0.0172791 0.062114 0 1 1 0 0 0 0 0 0 0 0 0 0 0 0 0 61 0.002 
2141 7 0.00301994 0.0918662 -0.0284236 0 0 0 0.00560264 0.0156772 0.0282416 0 -0.000164368 0 0 0 0 0 0 0 0 0 0 0 0 0 0 0 0 0 66 0.002 
1602 3 0.00767734 0.0933214 -0.0283966 0 0 0 -0.304757 0.100859 0.0820291 0 -0.000164368 0 0 0 0 0 0 0 0 0 0 0 0 0 0 0 0 0 137 0.002 
1564 1 0.00298577 0.0959393 -0.0284284 0 0 0 0.129884 0.0128669 0.117786 -0.0118065 -0.00846358 0.000948982 0 0 0 0 0 0 0 0 0 0 0 0 0 0 0 0 98 0.002 
1868 4 0.0156788 0.09568 -0.0292815 0 0 0 -0.431328 0.109389 -0.968362 0.0161984 -0.0187693 0.00104661 0 0 0 2 0 0 0 0 0 0 0 0 0 0 0 0 78 0.002 
108 2 0.00940613 0.0970503 -0.0280911 0 0 0 -0.0446415 0.403849 0.184141 0.00865164 -0.0257811 -0.000340921 1 1 0 0 0 0 0 0 0 1 0 0 0 0 0 0 217 0.002 
154 5 0.0130593 0.0986242 -0.0287706 0 0 0 0.139399 0.455319 -0.228918 -0.00614079 0.013953 -0.00548626 0 0 0 1 1 0 0 0 0 0 0 0 0 0 0 0 169 0.002 
2247 8 0.0031128 0.100019 -0.0271488 0 0 0 0.0407674 -0.0641072 0.104094 0 -0.000164368 0 0 0 0 0 0 0 0 0 0 0 0 0 0 0 0 0 41 0.002 
1310 1 0.0161731 0.100828 -0.0273578 0 0 0 -0.538822 0.581486 0.416268 -0.00957799 0.0302446 0.00126529 1 2 0 0 0 0 0 0 0 0 0 0 0 0 0 0 165 0.002 
559 5 0.00606458 0.102273 -0.0290157 0 0 0 -0.122578 0.194552 -0.178993 0.0205441 0.00547227 -0.000793187 1 1 0 0 2 0 0 0 0 0 0 0 0 0 0 0 191 0.002 
1099 2 0.00979248 0.100883 -0.0290767 0 0 0 -0.0411181 0.238382 -0.0685737 -0.00451622 0.0155709 -0.0120982 0 1 0 0 2 0 0 0 0 0 0 0 0 0 0 0 143 0.002 
1877 11 0.00297778 0.104177 -0.0274318 0 0 0 -0.0486111 0.131473 -0.0398054 0.0227163 0.0142452 0.00211785 0 0 0 0 1 0 0 0 0 0 1 0 0 0 0 0 96 0.002 
1306 4 0.0177473 0.107811 -0.0278718 0 0 0 -0.354326 0.122431 -0.083484 -0.0235362 0.0198437 -0.0200242 0 0 0 1 0 0 0 0 0 0 0 0 0 0 0 0 117 0.002 
2214 8 0.00299125 0.107866 -0.0290338 0 0 0 -0.0122283 0.0537029 0.0452135 -0.00244069 0.0131638 0.00104673 0 1 0 0 0 0 0 0 0 0 0 0 0 0 0 0 40 0.002 
1272 4 0.00338768 0.0808079 -0.0255501 0 0 0 -0.971326 0.0204239 -0.638315 0.00343987 0.0343945 0.0634833 0 1 0 0 0 0 0 0 0 0 0 0 0 0 0 0 141 0.002 
445 5 0.0159339 0.0843894 -0.0253233 0 0 0 -1.82539 0.0466972 -0.585603 0 -0.000164368 0 0 0 0 0 0 0 0 0 0 0 0 0 0 0 0 0 16 0.002 
171 3 0.0178143 0.0879638 -0.0260313 0 0 0 -0.666755 -0.328292 0.63536 0.0153343 -0.00741575 -0.0181385 0 0 1 0 0 0 0 0 0 0 0 0 0 0 0 0 31 0.002 
1016 8 0.00767653 0.0893646 -0.0262141 0 0 0 -0.381112 0.201673 -0.841811 0.0153933 0.00354509 0.00740349 0 0 0 1 0 0 0 1 0 0 0 0 0 0 0 0 170 0.002 
701 10 0.0118375 0.0919805 -0.0263304 0 0 0 -0.489642 0.185403 -0.194989 0.0217917 -0.0404055 0.0107536 0 1 0 0 0 0 0 0 0 2 0 0 0 0 0 0 200 0.002 
2173 7 0.00978814 0.0949898 -0.0247409 0 0 0 -0.374345 0.304725 0.168471 0.0147173 -0.0175182 0.00218461 0 1 0 0 0 0 3 0 0 1 0 0 0 0 0 0 64 0.002 
332 2 0.00609973 0.0964822 -0.0258313 0 0 0 -0.1398 0.224117 -0.116185 0.00877283 -0.000925036 -0.00329978 0 2 0 0 0 0 0 0 0 0 0 0 0 0 0 0 212 0.002 
2450 2 0.0174952 0.0978554 -0.0250963 0 0 0 -0.889841 0.608803 0.164417 -0.0207457 0.0279734 0.046259 1 1 0 0 0 0 0 0 0 0 0 0 0 0 0 0 6 0.002 
1886 9 0.00751664 0.100209 -0.0256944 0 0 0 -0.00137797 0.00739047 -0.156882 0.00207867 0.013319 -0.00546896 0 1 0 0 0 0 0 0 0 0 0 0 0 0 0 0 119 0.002 
2422 3 0.0123514 0.100703 -0.0254148 0 0 0 -0.0839714 0.20551 -0.01672 -0.0169371 0.0226584 0.00232214 0 0 3 0 0 0 0 0 0 0 0 0 0 0 0 0 9 0.002 
979 4 0.00646409 0.104127 -0.0253564 0 0 0 -0.0685752 0.0481756 -0.0639934 -0.00307044 0.00102317 0.0025249 0 0 0 2 0 0 0 0 0 0 0 0 0 0 0 0 173 0.002 
1228 8 0.0102712 0.103922 -0.0265429 0 0 0 -0.0693556 0.176907 -0.00202382 -0.0288076 0.0119641 0.0101459 0 1 1 1 1 0 0 1 0 0 0 0 0 0 0 0 199 0.002 
2358 1 0.0142198 0.104171 -0.0260732 0 0 0 -0.472994 0.420586 0.00552886 0.014063 0.0206701 0.0486833 2 1 1 0 0 0 0 1 0 0 0 0 0 0 0 0 26 0.002 
1899 6 0.00583074 0.108002 -0.026175 0 0 0 -0.0404795 0.0108805 -0.0164495 -0.00422304 0.00404037 -0.000724041 0 1 0 0 0 2 0 0 0 0 0 0 0 0 0 0 110 0.002 
384 6 0.0109727 0.107905 -0.0266531 0 0 0 -0.010247 0.000833967 0.0893324 0.000142528 -0.000194356 -0.0020955 0 1 0 0 0 1 0 0 0 0 0 0 0 0 0 0 219 0.002 