ITEM: TIMESTEP
900000
ITEM: NUMBER OF ATOMS
109
ITEM: BOX BOUNDS ff ff ff
-0.01 0.45
-0.15 0.15
-0.08 0.1
ITEM: ATOMS id type x y z ix iy iz vx vy vz fx fy fz c_cc_1 c_cc_2 c_cc_3 c_cc_4 c_cc_5 c_cc_6 c_cc_7 c_cc_8 c_cc_9 c_cc_10 c_cc_11 c_cc_12 c_cc_13 c_cc_14 c_cc_15 c_cc_16 f_fppacc radius 
88 2 0.00643637 -0.0529761 -0.0246071 0 0 0 9.79583 -17.3721 33.8856 0.712802 6.8525 2.71274 0 0 0 0 0 0 0 0 0 0 0 0 0 0 0 0 0 0.002 
100 2 0.00785333 -0.0465293 0.034414 0 0 0 9.02876 14.2807 29.0135 0 -0.000164368 0 0 0 0 0 0 0 0 0 0 0 0 0 0 0 0 0 0 0.002 
1 6 0.0164586 -0.0239073 0.0518042 0 0 0 1.45015 -4.97814 0.621037 0 -0.000164368 0 0 0 0 0 0 0 0 0 0 0 0 0 0 0 0 0 0 0.002 
33 2 0.0153187 0.0240875 -0.0558591 0 0 0 6.29607e-07 -1.76748e-13 3.5493e-13 -3.53279e-19 8.88178e-16 -1.77636e-15 0 0 0 0 0 0 0 0 0 0 0 0 0 0 0 0 0 0.002 
78 1 0.0115559 0.0239649 -0.0507066 0 0 0 1.38217 -9.19411 -4.38373 0 -0.000164368 0 0 0 0 0 0 0 0 0 0 0 0 0 0 0 0 0 0 0.002 
91 2 0.00533137 0.0300994 -0.0465096 0 0 0 -0.475431 -3.47259 -0.76316 0 -0.000164368 0 0 0 0 0 0 0 0 0 0 0 0 0 0 0 0 0 0 0.002 
4 6 0.00986776 0.0272332 -0.0314986 0 0 0 0.942409 -5.14524 -6.49131 0 -0.000164368 0 0 0 0 0 0 0 0 0 0 0 0 0 0 0 0 0 0 0.002 
41 1 0.0151398 0.052842 -0.0355 0 0 0 -2.28888e-284 2.02913e-19 -5.06138e-12 8.79867e-284 0 0 0 0 0 0 0 0 0 0 0 0 0 0 0 0 0 0 0 0.002 
37 5 0.0140889 0.0541337 -0.0244228 0 0 0 2.0644 -3.56186 1.94467 0 -0.000164368 0 0 0 0 0 0 0 0 0 0 0 0 0 0 0 0 0 0 0.002 
56 7 0.0039337 0.0448756 -0.0202727 0 0 0 0.381088 0.524595 2.08166 0 -0.000164368 0 0 0 0 0 0 0 0 0 0 0 0 0 0 0 0 0 0 0.002 
58 1 0.0182135 0.070815 0.00828284 0 0 0 0.803089 -0.857168 -2.26561 0 -0.000164368 0 0 0 0 0 0 0 0 0 0 0 0 0 0 0 0 0 0 0.002 
10 6 0.00421491 0.0597025 -0.00391251 0 0 0 0.446884 -2.41803 -1.54818 0 -0.000164368 0 0 0 0 0 0 0 0 0 0 0 0 0 0 0 0 0 0 0.002 
60 4 0.0130146 0.0464195 0.00316776 0 0 0 2.52104 0.386793 -3.99504 0 -0.000164368 0 0 0 0 0 0 0 0 0 0 0 0 0 0 0 0 0 0 0.002 
35 3 0.0152154 0.0725058 0.0140748 0 0 0 4.92729 9.01334 -6.50201 0 -0.000164368 0 0 0 0 0 0 0 0 0 0 0 0 0 0 0 0 0 0 0.002 
8 5 0.0114634 0.0975797 -0.0324898 0 0 0 -3.95944 -1.42336 0.884266 0 -0.000164368 0 0 0 0 0 0 0 0 0 0 0 0 0 0 0 0 0 0 0.002 
97 5 0.00838754 0.0921444 -0.0320327 0 0 0 -5.87008 -3.78617 -2.1177 0 -0.000164368 0 0 0 0 0 0 0 0 0 0 0 0 0 0 0 0 0 0 0.002 
85 2 0.00360964 0.104943 -0.0216465 0 0 0 1.29503 2.13457 12.0145 0 -0.000164368 0 0 0 0 0 0 0 0 0 0 0 0 0 0 0 0 0 0 0.002 
32 6 0.0103358 0.105001 -0.0254772 0 0 0 1.76886 -1.92129 0.235737 0 -0.000164368 0 0 0 0 0 0 0 0 0 0 0 0 0 0 0 0 0 0 0.002 
102 1 0.016917 0.0799678 -0.00999172 0 0 0 -0.601676 -6.72623 9.89164 0 -0.000164368 0 0 0 0 0 0 0 0 0 0 0 0 0 0 0 0 0 0 0.002 
82 10 0.00820824 0.0830795 -0.0132555 0 0 0 1.35245 1.40691 -3.49868 0 -0.000164368 0 0 0 0 0 0 0 0 0 0 0 0 0 0 0 0 0 0 0.002 
15 2 0.00476527 0.0895752 -0.0102626 0 0 0 0.919109 -1.6477 -0.310823 0 -0.000164368 0 0 0 0 0 0 0 0 0 0 0 0 0 0 0 0 0 0 0.002 
16 3 0.00353425 0.0804015 0.00219231 0 0 0 -1.47336 -0.161402 -1.06648 0 -0.000164368 0 0 0 0 0 0 0 0 0 0 0 0 0 0 0 0 0 1 0.002 
26 9 0.013955 0.107887 0.00318098 0 0 0 -1.84002 -0.0899945 -0.744798 0 -0.000164368 0 0 0 0 0 0 0 0 0 0 0 0 0 0 0 0 0 0 0.002 
80 1 0.00490149 0.0894306 0.00827274 0 0 0 0.615969 -0.941282 1.78615 0 -0.000164368 0 0 0 0 0 0 0 0 0 0 0 0 0 0 0 0 0 0 0.002 
63 6 0.0138325 0.0847688 0.00998578 0 0 0 -0.929892 -1.70526 2.11036 0 -0.000164368 0 0 0 0 0 0 0 0 0 0 0 0 0 0 0 0 0 0 0.002 
50 1 0.00424644 0.0766097 -0.0260678 0 0 0 5.39321 1.9882 -12.096 0 -0.000164368 0 0 0 0 0 0 0 0 0 0 0 0 0 0 0 0 0 0 0.002 
65 2 0.00966043 0.0979935 0.0111171 0 0 0 1.99489 2.45415 -0.177972 0 -0.000164368 0 0 0 0 0 0 0 0 0 0 0 0 0 0 0 0 0 0 0.002 
53 3 0.0181115 0.0949 0.0172203 0 0 0 2.02145 1.30955 -1.05323 0 -0.000164368 0 0 0 0 0 0 0 0 0 0 0 0 0 0 0 0 0 0 0.002 
92 2 0.00792715 0.100935 0.0196204 0 0 0 0.652252 3.35369 3.11636 0 -0.000164368 0 0 0 0 0 0 0 0 0 0 0 0 0 0 0 0 0 0 0.002 
96 2 0.00388239 0.0983426 0.025417 0 0 0 0.0877781 0.0562955 1.26053 0 -0.000164368 0 0 0 0 0 0 0 0 0 0 0 0 0 0 0 0 0 0 0.002 
84 8 0.0185879 0.105401 0.0244205 0 0 0 2.58525 -0.672695 1.54217 0 -0.000164368 0 0 0 0 0 0 0 0 0 0 0 0 0 0 0 0 0 0 0.002 
46 2 0.0160247 0.09926 0.0313017 0 0 0 0.635993 -0.317825 -0.310378 0 -0.000164368 0 0 0 0 0 0 0 0 0 0 0 0 0 0 0 0 0 0 0.002 
68 9 0.00470039 0.106479 0.0328728 0 0 0 0.80363 -0.733784 -1.11064 0 -0.000164368 0 0 0 0 0 0 0 0 0 0 0 0 0 0 0 0 0 0 0.002 
54 6 0.0414615 -0.0572263 -0.00857227 0 0 0 -16.237 -6.24741 50.7862 -0.0934696 -0.221178 0.226537 0 0 0 0 0 0 0 0 0 0 0 0 0 0 0 0 0 0.002 
110 1 0.0286736 -0.0111435 -0.045583 0 0 0 -9.62043 -37.3226 -5.99069 0 -0.000164368 0 0 0 0 0 0 0 0 0 0 0 0 0 0 0 0 0 0 0.002 
83 2 0.0262393 0.0249652 -0.0498419 0 0 0 -9.67265 -12.216 -6.79368 0 -0.000164368 0 0 0 0 0 0 0 0 0 0 0 0 0 0 0 0 0 0 0.002 
79 1 0.0424159 0.0513243 -0.0355 0 0 0 2.22558e-308 1.42116e-19 -6.71707e-12 -0 0 0 0 0 0 0 0 0 0 0 0 0 0 0 0 0 0 0 0 0.002 
48 3 0.0234968 0.0573215 -0.0355 0 0 0 -2.22522e-308 1.20953e-19 6.72693e-12 2.39215e-308 0 0 0 0 0 0 0 0 0 0 0 0 0 0 0 0 0 0 0 0.002 
28 5 0.0387781 0.0510801 -0.0330307 0 0 0 1.20063 -1.15494 -1.49344 0.0802288 0.278242 0.284624 0 0 0 0 0 0 0 0 0 0 0 0 0 0 0 0 0 0.002 
45 4 0.0334991 0.0697745 -0.0324435 0 0 0 1.14159 0.973446 -3.24797 0 -0.000164368 0 0 0 0 0 0 0 0 0 0 0 0 0 0 0 0 0 0 0.002 
22 2 0.0306227 0.0668609 -0.0184775 0 0 0 1.74701 -2.38803 0.877403 0 -0.000164368 0 0 0 0 0 0 0 0 0 0 0 0 0 0 0 0 0 0 0.002 
9 6 0.0206671 0.0469719 -0.00806944 0 0 0 -2.18604 -14.8919 17.3827 0 -0.000164368 0 0 0 0 0 0 0 0 0 0 0 0 0 0 0 0 0 0 0.002 
20 3 0.0260714 0.05334 -0.00512666 0 0 0 -4.18436 -3.13694 8.73375 0 -0.000164368 0 0 0 0 0 0 0 0 0 0 0 0 0 0 0 0 0 0 0.002 
23 3 0.0321537 0.0700327 -0.00861124 0 0 0 0.495972 -3.59375 -4.0648 0 -0.000164368 0 0 0 0 0 0 0 0 0 0 0 0 0 0 0 0 0 0 0.002 
111 3 0.0459097 0.0481786 -0.00138035 0 0 0 46.378 13.9362 -80.5893 0 -0.000164368 0 0 0 0 0 0 0 0 0 0 0 0 0 0 0 0 0 0 0.002 
36 12 0.0473154 0.0649675 0.00290915 0 0 0 -0.153165 -5.80827 4.62006 0 -0.000164368 0 0 0 0 0 0 0 0 0 0 0 0 0 0 0 0 0 0 0.002 
103 5 0.0407512 0.0718652 0.00719164 0 0 0 -2.82538 -1.74763 5.92811 0 -0.000164368 0 0 0 0 0 0 0 0 0 0 0 0 0 0 0 0 0 0 0.002 
64 4 0.0390602 0.0664033 0.0128492 0 0 0 -0.984814 -7.34538 6.08181 0 -0.000164368 0 0 0 0 0 0 0 0 0 0 0 0 0 0 0 0 0 0 0.002 
30 8 0.0191379 0.0711535 0.0234782 0 0 0 -7.02834 -5.50253 -4.85787 0 -0.000164368 0 0 0 0 0 0 0 0 0 0 0 0 0 0 0 0 0 0 0.002 
76 2 0.0361368 0.0413394 0.0124809 0 0 0 11.3735 32.7485 -15.1979 0 -0.000164368 0 0 0 0 0 0 0 0 0 0 0 0 0 0 0 0 0 0 0.002 
105 3 0.0275898 0.0375449 0.0137492 0 0 0 1.9154 1.65262 -0.827403 0 -0.000164368 0 0 0 0 0 0 0 0 0 0 0 0 0 0 0 0 0 0 0.002 
95 5 0.0375612 0.0788871 -0.028563 0 0 0 -4.39553 4.07174 3.62982 0 -0.000164368 0 0 0 0 0 0 0 0 0 0 0 0 0 0 0 0 0 0 0.002 
87 8 0.0403183 0.0936384 -0.0317934 0 0 0 3.58883 2.31209 -8.12686 0 -0.000164368 0 0 0 0 0 0 0 0 0 0 0 0 0 0 0 0 0 0 0.002 
47 4 0.0211872 0.096116 -0.0278028 0 0 0 -10.6239 3.18994 -0.107016 0 -0.000164368 0 0 0 0 0 0 0 0 0 0 0 0 0 0 0 0 0 0 0.002 
93 4 0.0226004 0.0972785 -0.0233222 0 0 0 -1.33253 -1.41839 4.32119 0 -0.000164368 0 0 0 0 0 0 0 0 0 0 0 0 0 0 0 0 0 0 0.002 
18 3 0.0215148 0.0918448 -0.0230541 0 0 0 0.992517 -5.1854 1.16665 0 -0.000164368 0 0 0 0 0 0 0 0 0 0 0 0 0 0 0 0 0 0 0.002 
39 3 0.0364707 0.100547 -0.033666 0 0 0 -1.24425 4.96417 8.56361 0.224761 -3.00352 6.02351 0 0 0 0 0 0 0 0 0 0 0 0 0 0 0 0 0 0.002 
86 6 0.0279277 0.107532 -0.0136635 0 0 0 1.82013 -0.233953 -1.35745 0 -0.000164368 0 0 0 0 0 0 0 0 0 0 0 0 0 0 0 0 0 0 0.002 
6 3 0.022419 0.0978428 -0.00699289 0 0 0 0.703947 -3.90731 4.19726 0 -0.000164368 0 0 0 0 0 0 0 0 0 0 0 0 0 0 0 0 0 0 0.002 
62 2 0.0285824 0.10211 -0.00831523 0 0 0 3.15036 -0.0697067 1.97264 0 -0.000164368 0 0 0 0 0 0 0 0 0 0 0 0 0 0 0 0 0 0 0.002 
70 6 0.0470873 0.0890784 -0.0013237 0 0 0 3.91678 -1.99552 1.27091 0 -0.000164368 0 0 0 0 0 0 0 0 0 0 0 0 0 0 0 0 0 0 0.002 
21 8 0.0231145 0.0934633 -0.00401438 0 0 0 -0.88169 -0.510305 -1.19565 0 -0.000164368 0 0 0 0 0 0 0 0 0 0 0 0 0 0 0 0 0 0 0.002 
94 2 0.0323813 0.0927922 0.000350597 0 0 0 -1.54117 0.404616 5.85277 0 -0.000164368 0 0 0 0 0 0 0 0 0 0 0 0 0 0 0 0 0 0 0.002 
61 8 0.0341949 0.0962642 -0.00193938 0 0 0 0.148172 -0.950186 0.0888523 0 -0.000164368 0 0 0 0 0 0 0 0 0 0 0 0 0 0 0 0 0 0 0.002 
51 2 0.0432045 0.0988957 0.00276154 0 0 0 1.99697 0.168429 1.22991 0 -0.000164368 0 0 0 0 0 0 0 0 0 0 0 0 0 0 0 0 0 0 0.002 
55 4 0.0375995 0.0784855 0.00352127 0 0 0 -1.38451 -1.92516 -2.85877 0 -0.000164368 0 0 0 0 0 0 0 0 0 0 0 0 0 0 0 0 0 0 0.002 
73 3 0.045787 0.0790475 -0.0200087 0 0 0 -3.60442 -9.49244 9.32844 0 -0.000164368 0 0 0 0 0 0 0 0 0 0 0 0 0 0 0 0 0 0 0.002 
44 5 0.0218452 0.0925117 0.00977934 0 0 0 -6.90636 4.20576 3.45084 0 -0.000164368 0 0 0 0 0 0 0 0 0 0 0 0 0 0 0 0 0 0 0.002 
77 12 0.0298015 0.0923295 0.00986603 0 0 0 -0.629329 -1.98011 1.1925 -0.0511326 -0.109102 -0.0214478 0 0 0 0 0 0 0 0 0 0 0 1 0 0 0 0 1 0.002 
104 1 0.0232355 0.0902633 0.015899 0 0 0 -0.798618 -0.588958 9.45361 0 -0.000164368 0 0 0 0 0 0 0 0 0 0 0 0 0 0 0 0 0 0 0.002 
12 9 0.0313836 0.0950403 0.0121683 0 0 0 1.57021 -1.8872 1.46706 0.0511326 0.108774 0.0214478 0 0 0 0 0 0 0 0 1 0 0 0 0 0 0 0 1 0.002 
67 6 0.0359212 0.0862661 0.0131513 0 0 0 -2.1545 -0.0678272 -1.21674 0 -0.000164368 0 0 0 0 0 0 0 0 0 0 0 0 0 0 0 0 0 0 0.002 
52 2 0.0316392 0.101182 0.0200773 0 0 0 0.0364496 0.683415 -0.984542 0 -0.000164368 0 0 0 0 0 0 0 0 0 0 0 0 0 0 0 0 0 0 0.002 
90 3 0.0469292 0.10145 0.0194004 0 0 0 1.53051 0.667466 -1.0243 0 -0.000164368 0 0 0 0 0 0 0 0 0 0 0 0 0 0 0 0 0 0 0.002 
34 3 0.0341451 0.107337 0.0207071 0 0 0 2.76952 -0.563566 2.99579 0 -0.000164368 0 0 0 0 0 0 0 0 0 0 0 0 0 0 0 0 0 0 0.002 
5 3 0.0466179 0.0949078 0.0229777 0 0 0 0.523185 -0.473299 0.160796 0 -0.000164368 0 0 0 0 0 0 0 0 0 0 0 0 0 0 0 0 0 0 0.002 
101 8 0.0320373 0.0914604 0.0275502 0 0 0 -3.85986 -3.66675 7.35619 0 -0.000164368 0 0 0 0 0 0 0 0 0 0 0 0 0 0 0 0 0 0 0.002 
38 9 0.045401 0.0806304 0.0239776 0 0 0 -2.04791 -3.70105 -3.63336 0 -0.000164368 0 0 0 0 0 0 0 0 0 0 0 0 0 0 0 0 0 0 0.002 
98 7 0.0229423 0.105816 0.0269338 0 0 0 2.30517 1.56335 1.47631 0 -0.000164368 0 0 0 0 0 0 0 0 0 0 0 0 0 0 0 0 0 0 0.002 
108 2 0.0272818 0.0877215 0.0196268 0 0 0 5.48996 1.77062 20.6424 0 -0.000164368 0 0 0 0 0 0 0 0 0 0 0 0 0 0 0 0 0 0 0.002 
99 8 0.0734174 -0.0485433 0.0313056 0 0 0 22.8034 13.164 18.9401 0.0392221 -0.0720994 0.0865763 0 0 0 0 0 0 0 0 0 0 0 0 0 0 0 0 0 0.002 
71 5 0.0753053 -0.0419843 0.0398821 0 0 0 -9.06212 21.3453 21.4005 -0.0019223 0.63785 -0.893437 0 0 0 0 0 0 0 0 0 0 0 0 0 0 0 0 1 0.002 
31 2 0.0527393 -0.0560177 0.0144819 0 0 0 -8.36562 12.2914 50.7111 0 -0.000164368 0 0 0 0 0 0 0 0 0 0 0 0 0 0 0 0 0 1 0.002 
66 5 0.0671115 -0.00922681 -0.0569065 0 0 0 -1.14543 -12.3694 1.80931 0 -0.000164368 0 0 0 0 0 0 0 0 0 0 0 0 0 0 0 0 0 0 0.002 
107 2 0.064117 0.056995 0.00958856 0 0 0 7.90947 3.60641 -26.1272 0.0111931 0.0537418 -0.0359039 0 0 0 0 0 0 0 0 0 0 0 0 0 0 0 0 0 0.002 
109 2 0.0476716 0.0710619 0.0149512 0 0 0 1.25054 3.82509 -3.09737 0 -0.000164368 0 0 0 0 0 0 0 0 0 0 0 0 0 0 0 0 0 0 0.002 
40 10 0.0489818 0.0684127 0.02491 0 0 0 -0.0638727 1.25417 -0.418755 0 -0.000164368 0 0 0 0 0 0 0 0 0 0 0 0 0 0 0 0 0 0 0.002 
2 6 0.0479089 0.0659144 0.0282075 0 0 0 0.598681 -0.999463 -0.378737 0 -0.000164368 0 0 0 0 0 0 0 0 0 0 0 0 0 0 0 0 0 0 0.002 
69 6 0.0489604 0.0985839 -0.000785674 0 0 0 2.8472 0.612453 -1.62298 0 -0.000164368 0 0 0 0 0 0 0 0 0 0 0 0 0 0 0 0 0 0 0.002 
29 5 0.047728 0.0831287 -0.017836 0 0 0 -0.898871 -0.530794 -0.958155 0 -0.000164368 0 0 0 0 0 0 0 0 0 0 0 0 0 0 0 0 0 0 0.002 
74 5 0.100065 -0.0423973 0.0395858 0 0 0 0.113089 28.7059 32.5065 -0.0777277 0.919697 -1.1191 0 0 0 0 0 0 0 0 0 0 0 0 0 0 0 0 0 0.002 
19 3 0.0909225 -0.0251235 -0.0521072 0 0 0 0.818829 -27.2023 11.3378 0 -0.000164368 0 0 0 0 0 0 0 0 0 0 0 0 0 0 0 0 0 0 0.002 
27 3 0.0807315 -0.0093007 -0.0570837 0 0 0 -4.53765 -26.9592 5.67896 -0.00652691 -0.0038378 0.0200691 0 0 0 0 0 0 0 0 0 0 0 0 0 0 0 0 0 0.002 
25 3 0.0922144 -0.0125708 -0.0564493 0 0 0 0.555944 -40.2063 8.09156 0 -0.000164368 0 0 0 0 0 0 0 0 0 0 0 0 0 0 0 0 0 0 0.002 
3 2 0.0961603 0.0142569 -0.0560188 0 0 0 -3.66031 -19.6363 -5.88274 0 -0.000164368 0 0 0 0 0 0 0 0 0 0 0 0 0 0 0 0 0 0 0.002 
72 3 0.0825342 0.0209921 -0.0541129 0 0 0 12.289 -67.0833 -22.2074 0.0804592 -0.266781 1.41791 0 0 0 0 0 0 0 0 0 0 0 0 0 0 0 0 0 0.002 
106 2 0.0811967 0.0473018 0.0329057 0 0 0 7.61462 8.20516 -12.5491 0 -0.000164368 0 0 0 0 0 0 0 0 0 0 0 0 0 0 0 0 0 0 0.002 
81 1 0.0922078 0.0424047 0.0393016 0 0 0 -10.6774 21.0114 -22.1708 0 -0.000164368 0 0 0 0 0 0 0 0 0 0 0 0 0 0 0 0 0 0 0.002 
14 5 0.0839084 0.0409292 0.0408823 0 0 0 6.65251 23.4754 -25.1779 0.027456 0.151092 0.00926343 0 0 0 0 0 0 0 0 0 0 0 0 0 0 0 0 0 0.002 
59 3 0.114103 -0.0559828 0.0151575 0 0 0 4.97488 11.444 34.8845 0.007088 1.01176 -0.372156 0 0 0 0 0 0 0 0 0 0 0 0 0 0 0 0 0 0.002 
24 1 0.130375 -0.00334841 0.057753 0 0 0 -1.0784 39.2337 0.963687 -0.00579105 0.119496 0.2112 0 0 0 0 0 0 0 0 0 0 0 0 0 0 0 0 0 0.002 
11 2 0.128532 0.040919 -0.0408174 0 0 0 0.0506523 -22.6956 -23.7814 0 -0.000164368 0 0 0 0 0 0 0 0 0 0 0 0 0 0 0 0 0 0 0.002 
13 4 0.120442 0.0534231 0.0221166 0 0 0 -2.11971 11.9421 -26.8531 0 -0.000164368 0 0 0 0 0 0 0 0 0 0 0 0 0 0 0 0 0 0 0.002 
49 3 0.122964 0.0406214 0.0411067 0 0 0 -0.558642 17.3572 -18.3723 -6.49344e-05 0.0597972 0.0373982 0 0 0 0 0 0 0 0 0 0 0 0 0 0 0 0 1 0.002 
17 4 0.144385 -0.0540249 0.0207957 0 0 0 0.640382 15.3138 42.5177 0 -0.000164368 0 0 0 0 0 0 0 0 0 0 0 0 0 0 0 0 0 0 0.002 
7 1 0.142883 0.0373849 -0.0443303 0 0 0 0.591651 -32.0892 -25.6599 -0.00318948 -0.708482 1.07381 0 0 0 0 0 0 0 0 0 0 0 0 0 0 0 0 0 0.002 
75 12 0.153102 0.0390462 -0.0428442 0 0 0 0.19156 -30.3313 -30.1106 -0.112214 -0.696 0.852053 0 0 0 0 0 0 0 0 0 0 0 0 0 0 0 0 0 0.002 
57 4 0.165583 0.0577678 -0.00309853 0 0 0 -1.99283 -3.01958 -30.1089 -0.0117347 0.0274963 -0.0703867 0 0 0 0 0 0 0 0 0 0 0 0 0 0 0 0 0 0.002 
89 6 0.207894 -0.0158465 -0.0557451 0 0 0 17.0743 -30.6427 6.77398 -0.536786 0.253188 0.762675 0 0 0 0 0 0 0 0 0 0 0 0 0 0 0 0 0 0.002 
