ITEM: TIMESTEP
4500000
ITEM: NUMBER OF ATOMS
8357
ITEM: BOX BOUNDS ff ff ff
-0.01 0.45
-0.15 0.15
-0.08 0.1
ITEM: ATOMS id type x y z ix iy iz vx vy vz fx fy fz c_cc_1 c_cc_2 c_cc_3 c_cc_4 c_cc_5 c_cc_6 c_cc_7 c_cc_8 c_cc_9 c_cc_10 c_cc_11 c_cc_12 c_cc_13 c_cc_14 c_cc_15 c_cc_16 f_fppacc radius c_cc_17 
2799 2 0.0168341 -0.00394636 -0.0606046 0 0 0 -0.00206133 -0.116462 0.0393993 0 -1.05196e-05 0 0 0 0 0 0 0 0 0 0 0 0 0 0 0 0 0 4 0.0008 0 
7800 4 0.0108819 -0.00310352 -0.0606859 0 0 0 4.02806e-06 -0.148584 0.0319416 0 -1.05196e-05 0 0 0 0 0 0 0 0 0 0 0 0 0 0 0 0 0 0 0.0008 0 
4071 8 0.0141996 -0.00246719 -0.0606108 0 0 0 -0.000212988 -0.0537766 0.0923597 0 -1.05196e-05 0 0 0 0 0 0 0 0 0 0 0 0 0 0 0 0 0 3 0.0008 0 
7937 2 0.0143966 -0.013394 -0.0593575 0 0 0 9.72278e-05 -0.0656195 -0.0958251 0 -1.05196e-05 0 0 0 0 0 0 0 0 0 0 0 0 0 0 0 0 0 0 0.0008 0 
2347 9 0.0136025 -0.000926553 -0.0589964 0 0 0 1.28999 -7.32433 0.461538 0 -1.05196e-05 0 0 0 0 0 0 0 0 0 0 0 0 0 0 0 0 0 5 0.0008 0 
8441 7 0.0163235 -0.00584635 -0.0575936 0 0 0 3.31131 -10.7376 3.75303 0 -1.05196e-05 0 0 0 0 0 0 0 0 0 0 0 0 0 0 0 0 0 0 0.0008 0 
7649 2 0.0118268 -0.0249829 -0.0553688 0 0 0 -0.00361941 -0.146769 0.0562743 0 -1.05196e-05 0 0 0 0 0 0 0 0 0 0 0 0 0 0 0 0 0 0 0.0008 0 
3509 2 0.00218941 -0.0284068 -0.053891 0 0 0 0.215537 -1.03446 0.580113 0 -1.05196e-05 0 0 0 0 0 0 0 0 0 0 0 0 0 0 0 0 0 4 0.0008 0 
8128 3 0.00856948 -0.0306163 -0.0528269 0 0 0 -0.000650675 -0.283256 0.141045 -1.65913e-12 -6.3308e-06 3.15237e-06 0 0 0 0 0 0 0 0 0 0 0 0 0 0 0 0 0 0.0008 0 
8636 11 0.014833 -0.0271096 -0.0521054 0 0 0 -4.49032e-13 -7.52121 4.27208 0 -1.05196e-05 0 0 0 0 0 0 0 0 0 0 0 0 0 0 0 0 0 0 0.0008 0 
6408 2 0.0123465 -0.0340659 -0.0505947 0 0 0 -0.0533986 -0.303923 0.210613 0 -1.05196e-05 0 0 0 0 0 0 0 0 0 0 0 0 0 0 0 0 0 3 0.0008 0 
465 2 0.00765498 -0.0361984 -0.0465718 0 0 0 0.810633 -6.71465 6.431 0.0105908 0.0308966 0.0213953 0 0 0 0 0 0 0 0 0 0 0 0 0 0 0 0 14 0.0008 0 
7844 8 0.0170835 -0.0438372 -0.0422965 0 0 0 -0.00990615 -0.364059 0.365394 0 -1.05196e-05 0 0 0 0 0 0 0 0 0 0 0 0 0 0 0 0 0 0 0.0008 0 
8656 1 0.00364005 -0.0414617 -0.0420537 0 0 0 1.07684 -13.2641 16.9418 -0.00140326 0.00189458 0.0032841 0 0 0 0 0 0 0 0 0 0 0 0 0 0 0 0 0 0.0008 0 
6002 4 0.0163101 -0.0269526 -0.0409562 0 0 0 1.00147 -19.4184 -9.62071 0 -1.05196e-05 0 0 0 0 0 0 0 0 0 0 0 0 0 0 0 0 0 6 0.0008 0 
8595 3 0.00586244 -0.0413328 -0.0401303 0 0 0 5.63441 -10.3526 12.132 0 -1.05196e-05 0 0 0 0 0 0 0 0 0 0 0 0 0 0 0 0 0 0 0.0008 0 
2721 2 0.00467923 -0.0274852 -0.038437 0 0 0 1.57761 -3.04147 5.8601 0 -1.05196e-05 0 0 0 0 0 0 0 0 0 0 0 0 0 0 0 0 0 11 0.0008 0 
3512 5 0.0142136 -0.0493924 -0.0359812 0 0 0 -0.0489123 -0.146792 0.21031 -0.000100268 0.000160905 0.000104129 0 0 0 0 0 0 0 0 0 0 0 0 0 0 0 0 20 0.0008 0 
1225 1 0.00688807 -0.0565556 -0.0226968 0 0 0 0.108009 -0.0149788 0.0386647 -8.32358e-20 -9.80505e-07 2.53098e-06 0 0 0 0 0 0 0 0 0 0 0 0 0 0 0 0 99 0.0008 0 
6354 2 0.00486244 -0.0544758 -0.021519 0 0 0 1.43631 -4.34049 18.5423 0 -1.05196e-05 0 0 0 0 0 0 0 0 0 0 0 0 0 0 0 0 0 7 0.0008 0 
5167 8 0.000952167 -0.0597559 -0.0119511 0 0 0 0.0222847 -0.0144596 0.0574397 0 -1.05196e-05 0 0 0 0 0 0 0 0 0 0 0 0 0 0 0 0 0 1 0.0008 0 
5540 9 0.000850817 -0.0600529 -0.0103687 0 0 0 -0.0158363 -0.0128269 0.0692392 9.67816e-07 -5.02116e-06 -1.3985e-06 0 0 0 0 0 0 0 0 0 0 0 0 0 0 0 0 3 0.0008 0 
6702 2 0.000925326 -0.0603984 -0.00852036 0 0 0 0.00371534 -0.00545925 0.0292044 -2.07426e-18 -2.53692e-07 1.35713e-06 0 0 0 0 0 0 0 0 0 0 0 0 0 0 0 0 0 0.0008 0 
7390 5 0.00414654 -0.0603667 -0.00868991 0 0 0 -0.124154 0.0294933 -0.157775 7.60281e-15 -2.53694e-07 1.35713e-06 0 0 0 0 0 0 0 0 0 0 0 0 0 0 0 0 0 0.0008 0 
634 1 0.00336964 -0.0608885 -0.0058984 0 0 0 -0.134676 0.0116993 -0.0625894 -5.04013e-06 -1.29765e-07 7.4755e-07 0 0 0 0 0 0 0 0 0 0 0 0 0 0 0 0 4 0.0008 0 
7431 2 0.00127174 -0.0609356 -0.00563903 0 0 0 0.0332779 -1.20226e-05 0.00261858 -1.08916e-10 -1.67411e-07 -8.62494e-12 0 0 0 0 0 0 0 0 0 0 0 0 0 0 0 0 0 0.0008 0 
4164 1 0.00111582 -0.0609356 -0.00404231 0 0 0 0.0192157 6.69285e-07 0.00355514 3.59826e-12 5.89185e-10 6.63077e-13 0 0 0 0 0 0 0 0 0 0 0 0 0 0 0 0 9 0.0008 0 
3631 2 0.0153668 -0.060855 -0.00452914 0 0 0 0.00811103 -0.00838729 -0.00587467 0 -1.05196e-05 0 0 0 0 0 0 0 0 0 0 0 0 0 0 0 0 0 0 0.0008 0 
4185 5 0.00295495 -0.0609186 -0.00287569 0 0 0 0.0308869 0.00848786 0.096615 0 -1.05196e-05 0 0 0 0 0 0 0 0 0 0 0 0 0 0 0 0 0 10 0.0008 0 
72 4 0.00134906 -0.0609356 -0.00245311 0 0 0 0.0196906 2.19358e-08 0.00476982 1.21251e-13 -6.23648e-11 2.93716e-14 0 0 0 0 0 0 0 0 0 0 0 0 0 0 0 0 4 0.0008 0 
4095 1 0.00536622 -0.0609356 -0.00190189 0 0 0 0.00727747 2.9907e-12 0.0043267 9.7018e-20 0 -5.99042e-19 0 0 0 0 0 0 0 0 0 0 0 0 0 0 0 0 4 0.0008 0 
7121 2 0.00984995 -0.0608994 -0.00173448 0 0 0 -0.0849508 0.0115552 -0.0145908 0 -1.05196e-05 0 0 0 0 0 0 0 0 0 0 0 0 0 0 0 0 0 0 0.0008 0 
693 3 0.012765 -0.06086 -0.00209076 0 0 0 0.0518035 -0.0198806 -0.0279005 0 -1.05196e-05 0 0 0 0 0 0 0 0 0 0 0 0 0 0 0 0 0 2 0.0008 0 
5729 3 0.0159143 -0.0609356 -0.00223996 0 0 0 0.00494647 -5.22719e-12 -0.0230521 3.73147e-19 0 -2.39594e-18 0 0 0 0 0 0 0 0 0 0 0 0 0 0 0 0 7 0.0008 0 
1200 7 0.000800871 -0.0609356 -0.000946197 0 0 0 -5.97976e-05 -1.96645e-08 -0.000789212 3.28743e-16 -3.35101e-11 4.33877e-15 0 0 0 0 0 0 0 0 0 0 0 0 0 0 0 0 2 0.0008 0 
414 7 0.00262939 -0.0609356 -0.000989392 0 0 0 -0.00872076 1.00217e-05 0.0117434 -2.45123e-11 -4.68144e-08 3.30083e-11 0 0 0 0 0 0 0 0 0 0 0 0 0 0 0 0 5 0.0008 0 
7843 6 0.0169573 -0.0609356 -0.000885062 0 0 0 -0.00179794 -2.48789e-12 -0.0105252 -2.9953e-19 0 -1.20864e-18 0 0 0 0 0 0 0 0 0 0 0 0 0 0 0 0 2 0.0008 0 
553 2 0.00430033 -0.0609356 -0.000381234 0 0 0 0.0236623 5.0752e-12 -0.00200794 -3.31935e-18 1.05687e-14 3.01188e-19 0 0 0 0 0 0 0 0 0 0 0 0 0 0 0 0 6 0.0008 0 
3491 3 0.00640938 -0.0609356 -0.0005203 0 0 0 -0.013257 -0.000123041 -0.0108201 2.10099e-06 -4.53574e-06 2.13011e-06 0 0 0 0 0 0 0 0 0 0 0 0 0 0 0 0 1 0.0008 0 
3630 1 0.00788613 -0.0609357 0.000101756 0 0 0 -0.0123237 -0.000328555 0.00437301 5.87068e-06 8.86017e-06 -2.06146e-06 1 0 0 0 0 0 0 0 0 0 0 0 0 0 0 0 2 0.0008 0 
209 4 0.00948564 -0.0609339 -8.14253e-05 0 0 0 -0.00299529 -0.00697502 0.0548365 0 -1.05196e-05 0 0 0 0 0 0 0 0 0 0 0 0 0 0 0 0 0 7 0.0008 0 
3427 4 0.0122023 -0.0609345 -0.000581746 0 0 0 -0.0703207 -0.00287565 -0.0674103 0 -1.05196e-05 0 0 0 0 0 0 0 0 0 0 0 0 0 0 0 0 0 3 0.0008 0 
4183 3 0.0152406 -0.0609356 0.000259052 0 0 0 0.0531791 2.20916e-13 0.0152301 -2.35787e-17 -8.48663e-14 -6.88712e-18 0 0 0 0 0 0 0 0 0 0 0 0 0 0 0 0 10 0.0008 0 
1871 2 0.00080302 -0.0609356 0.000654834 0 0 0 0.00107841 -1.60903e-07 -0.000463884 -4.88645e-14 1.01779e-09 2.10192e-14 0 0 0 0 0 0 0 0 0 0 0 0 0 0 0 0 8 0.0008 0 
690 7 0.00249012 -0.0609356 0.00063088 0 0 0 0.00609172 -3.36444e-09 0.0176661 -5.68472e-15 -3.5559e-11 -1.64859e-14 0 0 0 0 0 0 0 0 0 0 0 0 0 0 0 0 5 0.0008 0 
101 5 0.00398918 -0.0609356 0.00146505 0 0 0 -0.00917994 4.12542e-13 0.00567148 -7.94372e-19 -2.87991e-20 5.99016e-19 0 0 0 0 0 0 0 0 0 0 0 0 0 0 0 0 15 0.0008 0 
1002 3 0.00544124 -0.0609356 0.000762829 0 0 0 -0.0104776 4.76317e-12 -0.000817976 8.01851e-19 8.30092e-20 1.00296e-19 0 0 0 0 0 0 0 0 0 0 0 0 0 0 0 0 12 0.0008 0 
1887 11 0.0110007 -0.0609358 0.000477114 0 0 0 0.00211702 0.00198243 0.0157622 9.80561e-06 1.84628e-05 -1.06698e-05 0 0 0 0 0 0 0 0 0 0 0 0 0 0 0 0 2 0.0008 0 
5313 7 0.0128185 -0.0609356 0.00125112 0 0 0 -0.00304002 -2.25134e-06 -0.000401816 3.49156e-06 -9.32846e-08 3.87116e-06 0 0 0 0 0 0 0 0 0 0 0 0 0 0 0 0 1 0.0008 0 
221 5 0.0175837 -0.0609356 0.000659636 0 0 0 0.0202893 5.73673e-13 -0.0148521 2.41725e-18 0 -1.09602e-18 0 0 0 0 0 0 0 0 0 0 0 0 0 0 0 0 3 0.0008 0 
206 1 0.000803393 -0.0609356 0.00225707 0 0 0 0.000149517 8.10887e-06 -0.000299797 -1.10053e-07 2.40628e-07 -2.4466e-07 1 0 0 0 0 0 0 0 0 0 0 0 0 0 0 0 19 0.0008 0 
280 2 0.00242069 -0.0609356 0.00230082 0 0 0 0.00107047 -2.81016e-12 -0.00641553 -1.14286e-19 0 5.13006e-19 0 0 0 0 0 0 0 0 0 0 0 0 0 0 0 0 17 0.0008 0 
585 3 0.00557485 -0.0609356 0.00235891 0 0 0 -0.00258738 -4.79105e-05 -0.00165911 -6.91757e-08 -4.1558e-07 -7.70831e-07 0 0 1 0 0 0 0 0 0 0 0 0 0 0 0 0 8 0.0008 0 
4165 3 0.00727702 -0.0609356 0.00158109 0 0 0 -0.0160638 7.05304e-05 0.00672808 2.53827e-06 -9.45552e-07 -7.17505e-06 1 0 0 0 0 0 0 0 0 0 0 0 0 0 0 0 1 0.0008 0 
1920 3 0.00862531 -0.0609356 0.00244438 0 0 0 -0.0133901 -0.000564221 0.0018377 -1.66016e-05 -1.54903e-05 3.28652e-06 0 0 1 0 0 0 0 0 0 0 0 0 0 0 0 0 8 0.0008 0 
7185 2 0.0100859 -0.0609356 0.00179169 0 0 0 -0.0148 0.000437771 0.0117542 9.70876e-05 2.09011e-05 -4.20739e-05 0 1 1 0 0 0 0 0 0 0 0 0 0 0 0 0 4 0.0008 0 
4298 7 0.0143549 -0.0609356 0.00171512 0 0 0 0.000967588 2.25183e-06 0.00909217 -3.58744e-06 9.11548e-08 -3.9086e-06 0 0 0 0 0 0 0 0 0 0 0 0 0 0 0 0 6 0.0008 0 
398 2 0.0173381 -0.0609356 0.00237452 0 0 0 0.00674696 2.99175e-12 -0.00368004 -1.09315e-18 -6.85927e-18 5.46922e-19 0 0 0 0 0 0 0 0 0 0 0 0 0 0 0 0 13 0.0008 0 
317 1 0.0040866 -0.0609356 0.00306965 0 0 0 0.00343425 4.12537e-13 0.000149255 -3.62008e-19 0 -1.87187e-20 0 0 0 0 0 0 0 0 0 0 0 0 0 0 0 0 8 0.0008 0 
1470 6 0.0071035 -0.0609356 0.00317778 0 0 0 -0.0066791 -1.52984e-10 -0.00173145 2.93878e-16 4.76466e-12 7.61612e-17 0 0 0 0 0 0 0 0 0 0 0 0 0 0 0 0 17 0.0008 0 
1118 3 0.00995986 -0.0609344 0.00338657 0 0 0 -0.0117227 0.0017856 0.00102846 -6.9257e-05 -2.60516e-05 3.469e-05 0 1 1 0 0 0 0 0 0 0 0 0 0 0 0 0 10 0.0008 0 
5892 2 0.0114239 -0.0609356 0.00269959 0 0 0 -0.0012269 7.48348e-05 0.015014 -1.00228e-08 -8.16866e-07 2.13879e-08 0 0 0 0 0 0 0 0 0 0 0 0 0 0 0 0 5 0.0008 0 
2966 5 0.0130189 -0.0609356 0.00285207 0 0 0 2.81545e-05 -1.5996e-05 0.0154381 -4.12207e-10 -1.24538e-06 9.52484e-11 0 0 0 0 0 0 0 0 0 0 0 0 0 0 0 0 5 0.0008 0 
7053 4 0.0155469 -0.0609356 0.0028259 0 0 0 -0.00757593 -1.67561e-12 -0.004169 -3.2938e-18 1.78101e-14 -1.82299e-18 0 0 0 0 0 0 0 0 0 0 0 0 0 0 0 0 6 0.0008 0 
1972 6 0.00113855 -0.0609356 0.00382153 0 0 0 0.000601307 2.24074e-06 -0.000292618 -5.93886e-07 -1.69648e-07 1.25584e-07 1 0 0 0 0 2 0 0 0 0 0 0 0 0 0 0 25 0.0008 0 
1894 5 0.00273471 -0.0609356 0.00393184 0 0 0 0.000563336 7.31023e-07 -0.00252037 5.90684e-08 -7.30776e-08 2.10022e-07 0 0 0 0 1 1 0 0 0 0 0 0 0 0 0 0 31 0.0008 0 
2069 4 0.00551761 -0.0609356 0.00395786 0 0 0 0.00106566 -2.28998e-06 -0.0023014 -3.56118e-06 -2.83479e-08 -1.47198e-06 0 0 1 2 0 0 0 0 0 0 0 0 0 0 0 0 27 0.0008 0 
18 2 0.00849991 -0.0609356 0.00404116 0 0 0 -0.0118184 0.00134213 0.00303162 2.51638e-06 -1.42742e-05 -1.36547e-06 0 0 1 0 0 0 0 0 0 0 0 0 0 0 0 0 12 0.0008 0 
5191 1 0.0112961 -0.0609356 0.00456695 0 0 0 -0.00215747 -3.63588e-05 -0.00691813 2.62249e-11 1.81246e-07 7.35347e-11 0 0 0 0 0 0 0 0 0 0 0 0 0 0 0 0 12 0.0008 0 
1039 2 0.0132433 -0.0609356 0.00443701 0 0 0 0.0169503 5.66293e-06 0.0129795 7.41327e-08 1.7788e-07 -1.60358e-07 0 1 0 0 0 0 0 0 0 0 0 0 0 0 0 0 8 0.0008 0 
604 2 0.014842 -0.0609356 0.00431942 0 0 0 0.0122786 7.12016e-08 0.00852911 2.33587e-13 3.65816e-09 1.62244e-13 0 0 0 0 0 0 0 0 0 0 0 0 0 0 0 0 6 0.0008 0 
316 1 0.0165159 -0.0609356 0.00416794 0 0 0 -0.00302007 2.80401e-12 0.00292656 -3.08327e-18 1.66096e-13 2.99291e-18 0 0 0 0 0 0 0 0 0 0 0 0 0 0 0 0 14 0.0008 0 
163 1 0.0182111 -0.0609356 0.00415166 0 0 0 0.00163224 5.10249e-09 -0.00128088 2.36342e-15 -7.75082e-11 -1.85465e-15 0 0 0 0 0 0 0 0 0 0 0 0 0 0 0 0 3 0.0008 0 
733 3 0.00080003 -0.0609356 0.00538526 0 0 0 3.77223e-05 3.00806e-05 -0.000388605 -1.8798e-07 -9.85982e-08 6.54511e-07 0 0 1 0 0 1 0 0 0 0 0 0 0 0 0 0 33 0.0008 0 
210 4 0.00241592 -0.0609356 0.00552437 0 0 0 0.000249228 2.50729e-12 -0.0017322 3.66506e-20 0 3.00843e-19 0 0 0 0 0 0 0 0 0 0 0 0 0 0 0 0 47 0.0008 0 
1705 8 0.00411881 -0.0609356 0.00473444 0 0 0 0.00101588 5.23394e-06 -0.00329922 -2.11487e-06 1.60212e-07 1.80663e-06 0 0 0 1 1 0 0 2 0 0 0 0 0 0 0 0 44 0.0008 0 
531 10 0.00548978 -0.0609357 0.00555932 0 0 0 -0.000125337 -9.32048e-05 -0.00112784 3.90916e-07 1.62135e-06 -1.2408e-06 0 0 0 0 0 0 0 1 0 1 0 0 0 0 0 0 39 0.0008 0 
154 3 0.00689724 -0.0609356 0.00476779 0 0 0 0.000199773 -8.54836e-06 0.000252223 4.31536e-06 -1.9183e-09 2.50451e-06 0 0 0 1 0 0 0 0 0 0 0 0 0 0 0 0 35 0.0008 0 
1367 1 0.00827071 -0.0609355 0.00562472 0 0 0 0.00134565 -0.000174123 0.00773127 -5.52943e-06 -8.38786e-06 -2.78145e-06 1 0 0 0 0 0 0 0 0 0 0 0 0 0 0 0 25 0.0008 0 
1890 2 0.00977248 -0.0609356 0.00506225 0 0 0 -0.00425888 5.25574e-06 -0.00775699 -2.86774e-11 -2.14314e-07 -4.95715e-12 0 0 0 0 0 0 0 0 0 0 0 0 0 0 0 0 22 0.0008 0 
1937 15 0.0157675 -0.0609356 0.00562816 0 0 0 0.00537101 -2.62258e-07 0.0150163 -3.87645e-13 -4.85764e-09 -1.08386e-12 0 0 0 0 0 0 0 0 0 0 0 0 0 0 0 0 10 0.0008 0 
6920 6 0.0173924 -0.0609356 0.00555006 0 0 0 0.0120418 1.60644e-08 0.00125614 5.38645e-14 9.89217e-11 5.61885e-15 0 0 0 0 0 0 0 0 0 0 0 0 0 0 0 0 4 0.0008 0 
7459 2 0.00331656 -0.058627 0.004934 0 0 0 -0.899124 1.03439 19.6457 0 -1.05196e-05 0 0 0 0 0 0 0 0 0 0 0 0 0 0 0 0 0 4 0.0008 0 
2352 2 0.00408607 -0.060808 0.00632896 0 0 0 -0.000162456 -0.000646484 -0.00357076 -4.55571e-08 4.73668e-07 8.5633e-07 0 0 0 0 0 0 0 1 0 0 0 0 0 0 0 0 29 0.0008 0 
3087 1 0.00686436 -0.0607995 0.0063751 0 0 0 -0.00517691 0.000902938 0.00190873 6.76812e-06 2.66757e-06 -5.97172e-06 0 0 0 0 0 0 0 0 0 0 0 0 0 0 0 0 29 0.0008 0 
4938 7 0.00945361 -0.0607417 0.00668426 0 0 0 0.00393272 0.0012393 0.00566952 2.01177e-06 1.37527e-06 -1.0993e-06 1 0 0 0 0 0 0 0 0 0 0 0 0 0 0 0 25 0.0008 0 
6574 6 0.0109624 -0.0608398 0.0061592 0 0 0 -0.000197414 -0.000778265 -0.00416462 1.8287e-14 -2.39879e-07 -1.35984e-06 0 0 0 0 0 0 0 0 0 0 0 0 0 0 0 0 12 0.0008 0 
570 3 0.0125372 -0.0608935 0.00587209 0 0 0 0.0026006 0.00110844 0.0059511 -3.68159e-08 -4.718e-07 -1.24187e-06 0 1 0 0 0 0 0 0 0 0 0 0 0 0 0 0 16 0.0008 0 
510 4 0.0141373 -0.0608996 0.00583903 0 0 0 0.00304898 0.00193577 0.0103546 1.37959e-13 -2.54227e-07 -1.35704e-06 0 0 0 0 0 0 0 0 0 0 0 0 0 0 0 0 14 0.0008 0 
6782 5 0.0184878 -0.0606045 0.00667643 0 0 0 0.0377763 -0.0208166 -0.0232689 0 -1.05196e-05 0 0 0 0 0 0 0 0 0 0 0 0 0 0 0 0 0 5 0.0008 0 
2641 8 0.00116433 -0.0606967 0.00692474 0 0 0 -3.54549e-05 2.23017e-06 -0.000256936 3.54684e-08 3.02106e-07 -1.76876e-07 0 0 1 0 0 0 0 2 0 0 0 0 0 0 0 0 23 0.0008 0 
3865 4 0.00274256 -0.0606484 0.0071831 0 0 0 0.000558787 -0.000592115 -0.00297019 4.15268e-07 -9.14694e-08 -1.22767e-06 0 0 0 1 0 0 0 1 0 0 0 0 0 0 0 0 21 0.0008 0 
2116 2 0.00546164 -0.0606574 0.00713456 0 0 0 -0.000514476 -0.000109846 -0.00121324 6.24649e-07 -4.81296e-07 2.84534e-06 0 1 0 0 0 0 0 0 0 1 0 0 0 0 0 0 37 0.0008 0 
3081 3 0.00804498 -0.0606003 0.00744042 0 0 0 -0.000847589 -0.000595668 -0.00318993 -1.51322e-13 -2.56326e-07 -1.35665e-06 0 0 0 0 0 0 0 0 0 0 0 0 0 0 0 0 17 0.0008 0 
2951 1 0.0124759 -0.0605974 0.00745569 0 0 0 0.00241716 0.00172435 0.00922345 1.24585e-13 -2.54635e-07 -1.35695e-06 0 0 0 0 0 0 0 0 0 0 0 0 0 0 0 0 5 0.0008 0 
6135 3 0.0140253 -0.0605217 0.00786086 0 0 0 0.00444929 0.00031838 0.00170318 -4.27697e-18 -2.53692e-07 -1.35713e-06 0 0 0 0 0 0 0 0 0 0 0 0 0 0 0 0 2 0.0008 0 
833 7 0.0155726 -0.0606465 0.00719299 0 0 0 0.0154294 0.00192173 0.0102803 1.48344e-18 -2.53692e-07 -1.35713e-06 0 0 0 0 0 0 0 0 0 0 0 0 0 0 0 0 13 0.0008 0 
5113 5 0.000800131 -0.0604104 0.00845618 0 0 0 0.000230541 -2.46063e-05 -0.00015031 -5.67991e-08 -3.63068e-07 -8.25954e-07 0 0 0 0 0 0 0 1 0 0 0 0 0 0 0 0 10 0.0008 0 
3869 8 0.00411747 -0.060498 0.00798746 0 0 0 -0.00102611 -0.000153216 -0.00092135 -7.09644e-07 -3.75737e-07 6.66022e-07 0 1 0 1 0 0 0 0 0 0 0 0 0 0 0 0 28 0.0008 0 
4248 10 0.00663877 -0.0604583 0.00820016 0 0 0 -0.000725781 -0.000282436 -0.000990484 -2.10285e-09 -9.3058e-08 -1.38263e-06 0 0 0 0 0 0 0 0 0 0 0 0 0 0 0 0 20 0.0008 0 
5900 8 0.00939042 -0.0604409 0.00829281 0 0 0 0.00094792 -0.000963023 -0.00514803 -2.18358e-13 -2.52471e-07 -1.35733e-06 0 0 0 0 0 0 0 0 0 0 0 0 0 0 0 0 3 0.0008 0 
1352 4 0.0109683 -0.060497 0.00799305 0 0 0 0.0014766 0.00202974 0.0108589 -5.83193e-14 -2.52516e-07 -1.35735e-06 0 0 0 0 0 0 0 0 0 0 0 0 0 0 0 0 6 0.0008 0 
5373 2 0.01709 -0.0605076 0.007936 0 0 0 0.0211709 0.00185095 0.00990169 -1.20097e-18 -2.53692e-07 -1.35713e-06 0 0 0 0 0 0 0 0 0 0 0 0 0 0 0 0 4 0.0008 0 
1165 1 0.00305468 -0.0602778 0.00916554 0 0 0 -0.00746215 -0.00124753 -0.00668717 1.45259e-13 -2.75735e-07 -1.35299e-06 0 0 0 0 0 0 0 0 0 0 0 0 0 0 0 0 32 0.0008 0 
1045 8 0.00528001 -0.060296 0.00906819 0 0 0 -0.000702133 -4.85518e-05 -0.000553828 -3.91973e-08 -4.35801e-07 -1.34888e-06 0 0 0 0 0 0 0 0 0 0 0 0 0 0 0 0 2 0.0008 0 
4325 3 0.000799949 -0.0601164 0.0100292 0 0 0 0.000126489 -4.96596e-05 0.000359664 6.31304e-07 -1.08154e-06 -1.18442e-06 0 0 1 0 0 0 0 0 0 0 0 0 0 0 0 0 9 0.0008 0 
6076 6 0.00230701 -0.0600177 0.0105572 0 0 0 0.00114325 -0.000296425 -0.00180784 4.1714e-07 1.62102e-07 -1.36007e-06 0 0 1 0 0 0 0 0 0 0 0 0 0 0 0 0 3 0.0008 0 
3356 4 0.00911739 -0.0576575 0.0106089 0 0 0 1.72412 1.19007 3.92467 0 -1.05196e-05 0 0 0 0 0 0 0 0 0 0 0 0 0 0 0 0 0 2 0.0008 0 
2789 4 0.0137026 -0.0535786 0.015942 0 0 0 0.463067 3.59152 14.1898 0 -1.05196e-05 0 0 0 0 0 0 0 0 0 0 0 0 0 0 0 0 0 27 0.0008 0 
8326 1 0.0153966 -0.0451165 0.0207466 0 0 0 -9.39361e-14 -1.44911 -0.702845 0 -1.05196e-05 0 0 0 0 0 0 0 0 0 0 0 0 0 0 0 0 0 0 0.0008 0 
2579 2 0.00967422 -0.105995 0.0225582 0 0 0 -0.0468518 -0.96107 0.0543655 0 -1.05196e-05 0 0 0 0 0 0 0 0 0 0 0 0 0 0 0 0 0 6 0.0008 0 
2858 2 0.00182614 -0.0558728 0.0239679 0 0 0 -0.0742131 -0.24377 -0.776256 0 -1.05196e-05 0 0 0 0 0 0 0 0 0 0 0 0 0 0 0 0 0 11 0.0008 0 
4473 8 0.00889777 -0.0523535 0.0269097 0 0 0 -0.209408 5.99085 13.3367 0 -1.05196e-05 0 0 0 0 0 0 0 0 0 0 0 0 0 0 0 0 0 1 0.0008 0 
8540 6 0.00222832 -0.0180535 0.0273097 0 0 0 -0.37352 0.100995 -1.54 0 -1.05196e-05 0 0 0 0 0 0 0 0 0 0 0 0 0 0 0 0 0 0 0.0008 0 
7137 9 0.00697821 -0.0202116 0.0349665 0 0 0 0.312972 -0.693515 -1.0343 0 -1.05196e-05 0 0 0 0 0 0 0 0 0 0 0 0 0 0 0 0 0 6 0.0008 0 
8497 3 0.00302133 -0.0460797 0.0358352 0 0 0 -0.318917 2.85902 4.14593 0 -1.05196e-05 0 0 0 0 0 0 0 0 0 0 0 0 0 0 0 0 0 0 0.0008 0 
6500 6 0.00730677 -0.0446202 0.0414696 0 0 0 -0.787814 -0.621979 -0.574569 0 -1.05196e-05 0 0 0 0 0 0 0 0 0 0 0 0 0 0 0 0 0 2 0.0008 0 
8614 3 0.0156336 -0.0348607 0.0464075 0 0 0 4.05076 7.12894 8.57331 0 -1.05196e-05 0 0 0 0 0 0 0 0 0 0 0 0 0 0 0 0 0 0 0.0008 0 
8267 8 0.0121412 -0.0247217 0.0555612 0 0 0 -0.342875 -0.672547 -0.407999 0 -1.05196e-05 0 0 0 0 0 0 0 0 0 0 0 0 0 0 0 0 0 0 0.0008 0 
3751 5 0.0165861 -0.0170801 0.0564078 0 0 0 -1.59281 18.643 4.25454 0 -1.05196e-05 0 0 0 0 0 0 0 0 0 0 0 0 0 0 0 0 0 17 0.0008 0 
8631 3 0.00449245 -0.0142709 0.0570348 0 0 0 -0.889352 13.5342 3.08787 0 -1.05196e-05 0 0 0 0 0 0 0 0 0 0 0 0 0 0 0 0 0 0 0.0008 0 
7941 1 0.00802059 -0.0145774 0.0569606 0 0 0 0.405871 14.8515 3.34367 0 -1.05196e-05 0 0 0 0 0 0 0 0 0 0 0 0 0 0 0 0 0 0 0.0008 0 
1746 1 0.0107976 -0.000972025 0.0588444 0 0 0 1.65184 7.18321 0.296564 0 -1.05196e-05 0 0 0 0 0 0 0 0 0 0 0 0 0 0 0 0 0 2 0.0008 0 
894 6 0.0157922 0.0045912 -0.0604412 0 0 0 0.00737996 -0.0748767 -0.0427964 0 -1.05196e-05 0 0 0 0 0 0 0 0 0 0 0 0 0 0 0 0 0 3 0.0008 0 
8517 4 0.00598714 0.0065836 -0.0586927 0 0 0 -0.0511174 -19.8667 -3.5506 -0.000109796 -0.0137777 0.405174 0 0 0 0 0 0 0 0 0 0 0 0 0 0 0 0 0 0.0008 0 
938 2 0.0144078 0.0128304 -0.0584841 0 0 0 0.00658575 -0.113826 0.203625 0 -1.05196e-05 0 0 0 0 0 0 0 0 0 0 0 0 0 0 0 0 0 5 0.0008 0 
8641 2 0.00559356 0.0027503 -0.056886 0 0 0 -0.701176 -10.15 -4.24043 0 -1.05196e-05 0 0 0 0 0 0 0 0 0 0 0 0 0 0 0 0 0 0 0.0008 0 
8653 3 0.0164739 0.00998766 -0.0567114 0 0 0 -6.58202e-14 -10.451 -5.1674 0 -1.05196e-05 0 0 0 0 0 0 0 0 0 0 0 0 0 0 0 0 0 0 0.0008 0 
6435 10 0.0137828 0.00594068 -0.0522267 0 0 0 0.858144 -3.36373 -1.46346 0 -1.05196e-05 0 0 0 0 0 0 0 0 0 0 0 0 0 0 0 0 0 7 0.0008 0 
4589 9 0.0112348 0.0070674 -0.0520801 0 0 0 0.94922 -26.5452 -10.3904 0 -1.05196e-05 0 0 0 0 0 0 0 0 0 0 0 0 0 0 0 0 0 11 0.0008 0 
8382 2 0.00851088 0.0336 -0.0508247 0 0 0 4.03528e-05 -0.0609004 0.0313776 0 -1.05196e-05 0 0 0 0 0 0 0 0 0 0 0 0 0 0 0 0 0 1 0.0008 0 
8535 1 0.0124238 0.00544275 -0.0503335 0 0 0 0.36985 -1.16204 -0.800933 0 -1.05196e-05 0 0 0 0 0 0 0 0 0 0 0 0 0 0 0 0 0 0 0.0008 0 
4756 3 0.00211935 0.010522 -0.0486608 0 0 0 0.0601684 -0.209242 -1.64348 0 -1.05196e-05 0 0 0 0 0 0 0 0 0 0 0 0 0 0 0 0 0 3 0.0008 0 
6006 6 0.00672487 0.0313952 -0.0485408 0 0 0 0.237232 1.99839 -22.5241 0 -1.05196e-05 0 0 0 0 0 0 0 0 0 0 0 0 0 0 0 0 0 9 0.0008 0 
8673 2 0.00809531 0.0331839 -0.0480478 0 0 0 -0.0364119 -9.07088 -3.11565 0 -1.05196e-05 0 0 0 0 0 0 0 0 0 0 0 0 0 0 0 0 0 0 0.0008 0 
8554 1 0.0157012 0.0275185 -0.038233 0 0 0 0.242951 -5.45685 -8.20664 0 -1.05196e-05 0 0 0 0 0 0 0 0 0 0 0 0 0 0 0 0 0 0 0.0008 0 
2321 7 0.0103847 0.0510987 -0.0355 0 0 0 -4.03465e-302 -1.40897e-22 -5.89792e-12 9.16411e-308 0 2.22045e-16 0 0 0 0 0 0 0 0 0 0 0 0 0 0 0 0 0 0.0008 0 
283 5 0.00810433 0.0522188 -0.0355 0 0 0 2.55172e-302 -9.46541e-21 -2.36057e-12 9.43719e-308 -8.47033e-22 2.22045e-16 0 0 0 0 0 0 0 0 0 0 0 0 0 0 0 0 0 0.0008 0 
478 2 0.00645426 0.0529572 -0.0355 0 0 0 -2.63373e-302 -2.82717e-20 5.89789e-12 -9.32038e-308 -8.47033e-22 2.22045e-16 0 0 0 0 0 0 0 0 0 0 0 0 0 0 0 0 0 0.0008 0 
871 8 0.00614262 0.0558654 -0.0355 0 0 0 5.95896e-303 -5.7127e-20 -2.16043e-15 -9.49363e-308 0 0 0 0 0 0 0 0 0 0 0 0 0 0 0 0 0 0 1 0.0008 0 
5520 7 0.00960717 0.0549657 -0.0355 0 0 0 1.57811e-302 -8.49594e-20 3.53501e-12 -9.4169e-308 -8.47033e-22 -2.22045e-16 0 0 0 0 0 0 0 0 0 0 0 0 0 0 0 0 0 0.0008 0 
6540 8 0.00803954 0.056463 -0.0355002 0 0 0 -2.65322e-17 1.30625e-16 4.13044e-12 -2.1684e-19 8.67362e-19 0 0 0 0 0 0 0 0 1 0 0 0 0 0 0 0 0 11 0.0008 0 
2565 7 0.00831905 0.0580134 -0.0354998 0 0 0 2.62806e-17 -1.35252e-16 4.13098e-12 -3.25261e-19 0 0 0 0 0 0 0 0 0 1 0 0 0 0 0 0 0 0 11 0.0008 0 
1583 3 0.0133941 0.0576777 -0.0355 0 0 0 3.60872e-302 -8.49671e-20 -2.36053e-12 9.40312e-308 -8.47033e-22 2.22045e-16 0 0 0 0 0 0 0 0 0 0 0 0 0 0 0 0 7 0.0008 0 
8195 2 0.0153326 0.0581068 -0.0355 0 0 0 1.27555e-302 -7.53151e-20 -5.8979e-12 -9.35104e-308 0 2.22045e-16 0 0 0 0 0 0 0 0 0 0 0 0 0 0 0 0 0 0.0008 0 
7394 6 0.00896599 0.0602744 -0.0355 0 0 0 1.27823e-302 4.7171e-20 -4.72349e-12 -7.712e-308 0 -2.22045e-16 0 0 0 0 0 0 0 0 0 0 0 0 0 0 0 0 0 0.0008 0 
3089 3 0.0107018 0.0617448 -0.0355 0 0 0 2.17779e-301 6.58947e-20 -2.30868e-15 -3.18225e-304 0 0 0 0 0 0 0 0 0 0 0 0 0 0 0 0 0 0 0 0.0008 0 
3064 5 0.00572283 0.0664176 -0.0355 0 0 0 -7.62648e-303 7.55911e-20 -3.53498e-12 -9.24412e-308 0 2.22045e-16 0 0 0 0 0 0 0 0 0 0 0 0 0 0 0 0 0 0.0008 0 
7839 6 0.0122573 0.0669962 -0.0355 0 0 0 3.95763e-244 5.67321e-20 -4.72344e-12 -1.67832e-244 8.47033e-22 -2.22045e-16 0 0 0 0 0 0 0 0 0 0 0 0 0 0 0 0 0 0.0008 0 
5230 4 0.00285911 0.0725733 -0.0355 0 0 0 -4.14358e-302 3.78143e-20 -3.53501e-12 9.40248e-308 0 2.22045e-16 0 0 0 0 0 0 0 0 0 0 0 0 0 0 0 0 0 0.0008 0 
2130 11 0.0169238 0.0756724 -0.0355007 0 0 0 1.15664e-16 7.81189e-17 -2.35868e-12 -1.38778e-17 4.33681e-19 0 0 0 0 0 0 0 0 0 0 0 1 0 0 0 0 0 26 0.0008 0 
4708 6 0.0184179 0.0757522 -0.0354993 0 0 0 -1.84449e-16 -7.86601e-17 -2.3592e-12 0 -1.30104e-18 0 0 0 0 0 0 0 0 0 0 0 1 0 0 0 0 0 29 0.0008 0 
1962 1 0.00586737 0.0767883 -0.0355 0 0 0 2.62534e-83 8.49689e-20 3.53502e-12 9.0475e-85 0 2.22045e-16 0 0 0 0 0 0 0 0 0 0 0 0 0 0 0 0 3 0.0008 0 
5274 5 0.0152254 0.0938765 -0.0355 0 0 0 -3.72354e-303 3.77278e-20 3.53498e-12 -9.35471e-308 0 2.22045e-16 0 0 0 0 0 0 0 0 0 0 0 0 0 0 0 0 0 0.0008 0 
2696 9 0.0033408 0.0806178 -0.0340493 0 0 0 0.843873 3.90631 0.730312 0 -1.05196e-05 0 0 0 0 0 0 0 0 0 0 0 0 0 0 0 0 0 15 0.0008 0 
8418 8 0.00183848 0.0818628 -0.0340311 0 0 0 -0.21264 0.47802 1.01743 0 -1.05196e-05 0 0 0 0 0 0 0 0 0 0 0 0 0 0 0 0 0 0 0.0008 0 
4014 6 0.00784878 0.0818324 -0.0340292 0 0 0 7.63352 7.86351 -1.91883 0 -1.05196e-05 0 0 0 0 0 0 0 0 0 0 0 0 0 0 0 0 0 11 0.0008 0 
8590 10 0.00943509 0.0874187 -0.03358 0 0 0 1.11408 -1.85408 -0.229403 0 -1.05196e-05 0 0 0 0 0 0 0 0 0 0 0 0 0 0 0 0 0 0 0.0008 0 
8490 8 0.0113341 0.09569 -0.0341633 0 0 0 -0.510837 -0.63642 0.62465 0 -1.05196e-05 0 0 0 0 0 0 0 0 0 0 0 0 0 0 0 0 0 0 0.0008 0 
696 4 0.0027137 0.0963621 -0.0340986 0 0 0 -2.26966 10.1172 7.59926 0 -1.05196e-05 0 0 0 0 0 0 0 0 0 0 0 0 0 0 0 0 0 19 0.0008 0 
2935 5 0.00204579 0.0978846 -0.033767 0 0 0 0.128366 1.17667 0.0897497 0 -1.05196e-05 0 0 0 0 0 0 0 0 0 0 0 0 0 0 0 0 0 6 0.0008 0 
7274 5 0.0127914 0.0989845 -0.0335841 0 0 0 -1.03957 -0.718105 0.172368 0 -1.05196e-05 0 0 0 0 0 0 0 0 0 0 0 0 0 0 0 0 0 1 0.0008 0 
8307 4 0.0018106 0.102337 -0.0340723 0 0 0 -0.0916816 -0.276312 0.00264807 0 -1.05196e-05 0 0 0 0 0 0 0 0 0 0 0 0 0 0 0 0 0 0 0.0008 0 
6507 5 0.00335474 0.102238 -0.0336481 0 0 0 -0.0228537 -0.296927 -0.0266435 0 -1.05196e-05 0 0 0 0 0 0 0 0 0 0 0 0 0 0 0 0 0 2 0.0008 0 
6826 1 0.00508721 0.101933 -0.0340885 0 0 0 0.0430897 -0.208442 0.0440106 0 -1.05196e-05 0 0 0 0 0 0 0 0 0 0 0 0 0 0 0 0 0 6 0.0008 0 
4443 6 0.00827177 0.101525 -0.0341889 0 0 0 -0.508802 0.541492 -0.179061 -0.000748953 0.000912368 0.00163281 0 0 0 0 0 1 0 0 0 0 0 0 0 0 0 0 9 0.0008 0 
4903 3 0.00248861 0.103876 -0.0342025 0 0 0 -0.0964623 -0.0928071 -0.0148617 0.00258125 -0.000450577 -0.000258858 0 0 1 0 0 0 0 0 0 0 0 0 0 0 0 0 6 0.0008 0 
281 3 0.00402864 0.103733 -0.0336302 0 0 0 -0.225812 -0.138931 0.151256 0 -1.05196e-05 0 0 0 0 0 0 0 0 0 0 0 0 0 0 0 0 0 10 0.0008 0 
151 6 0.00552057 0.103537 -0.0341765 0 0 0 -0.29265 -0.304807 0.020368 0 -1.05196e-05 0 0 0 0 0 0 0 0 0 0 0 0 0 0 0 0 0 15 0.0008 0 
3354 8 0.00684554 0.104481 -0.0339868 0 0 0 0.0965649 -0.623369 0.580426 -0.000163769 0.000130741 -3.61997e-07 0 0 0 0 0 0 0 1 0 0 0 0 0 0 0 0 16 0.0008 0 
231 6 0.0102504 0.104455 -0.0341891 0 0 0 0.00535014 0.355969 0.0613616 0 -1.05196e-05 0 0 0 0 0 0 0 0 0 0 0 0 0 0 0 0 0 18 0.0008 0 
4458 12 0.0163243 0.104283 -0.0339473 0 0 0 0.824581 -0.67501 0.637941 0 -1.05196e-05 0 0 0 0 0 0 0 0 0 0 0 0 0 0 0 0 0 9 0.0008 0 
5246 5 0.0186086 0.104484 -0.0341559 0 0 0 2.56714 1.49983 -0.382279 0 -1.05196e-05 0 0 0 0 0 0 0 0 0 0 0 0 0 0 0 0 0 15 0.0008 0 
2834 6 0.00333409 0.105391 -0.0342016 0 0 0 -0.0640283 -0.0550335 0.0556459 0.000716708 -0.00326203 -0.00065926 0 0 0 0 0 3 0 0 0 0 0 0 0 0 0 0 10 0.0008 0 
8131 8 0.0048835 0.105005 -0.0342034 0 0 0 -0.0243139 -0.108286 0.0913323 7.67463e-05 -0.000206438 0.000387074 0 0 0 0 0 1 0 0 0 0 0 0 0 0 0 0 2 0.0008 0 
5832 8 0.0147572 0.105396 -0.034179 0 0 0 0.480432 -0.364866 0.0463335 0 -1.05196e-05 0 0 0 0 0 0 0 0 0 0 0 0 0 0 0 0 0 1 0.0008 0 
4068 8 0.00179423 0.105799 -0.0341855 0 0 0 -0.0408097 0.0210262 0.0676048 0.00277677 -0.00103656 -0.000689176 0 0 0 0 0 1 0 0 0 0 0 0 0 0 0 0 6 0.0008 0 
4021 3 0.00621068 0.105933 -0.0341925 0 0 0 0.337025 -0.515858 0.0789003 0.000163769 -0.00015178 3.61997e-07 0 0 0 0 0 0 0 1 0 0 0 0 0 0 0 0 8 0.0008 0 
5388 6 0.00824131 0.105789 -0.0340981 0 0 0 0.577733 -0.603676 0.262016 0 -1.05196e-05 0 0 0 0 0 0 0 0 0 0 0 0 0 0 0 0 0 5 0.0008 0 
1747 1 0.0134921 0.106453 -0.0340922 0 0 0 0.436733 0.0107524 0.263054 -0.00782201 -0.00333729 -0.00288173 1 0 0 0 0 0 0 0 0 0 0 0 0 0 0 0 8 0.0008 0 
3154 2 0.0162824 0.105968 -0.0340088 0 0 0 0.468823 -0.427158 -0.0494328 -0.0112998 -0.0036615 0.00235576 0 2 0 0 0 0 0 0 0 0 0 0 0 0 0 0 8 0.0008 0 
4957 9 0.0178409 0.10614 -0.0341643 0 0 0 0.531555 0.0772033 0.2771 0.00566704 -0.00326797 -0.0015319 0 1 0 0 0 0 0 0 3 0 0 0 0 0 0 0 19 0.0008 0 
1390 3 0.00179967 0.107692 -0.0341949 0 0 0 0.0858358 0.0906823 0.0475386 -0.00020442 -0.000918025 -0.000304726 0 0 2 0 0 0 0 0 0 0 0 0 0 0 0 0 11 0.0008 0 
1886 5 0.00322693 0.106979 -0.0342017 0 0 0 0.110573 -0.14557 0.0575786 0.000128248 0.00348104 0.00056979 0 0 1 0 1 1 0 0 0 0 0 0 0 0 0 0 24 0.0008 0 
6502 1 0.00479547 0.106691 -0.0342022 0 0 0 0.0958798 -0.428634 -0.0561035 -0.00240437 0.00423084 -0.00138519 2 0 0 0 1 0 0 0 0 0 0 0 0 0 0 0 11 0.0008 0 
8206 2 0.00609535 0.107603 -0.0340994 0 0 0 -0.113993 -0.122319 0.0183618 0.000464837 0.000660684 -0.000520891 1 1 0 0 0 0 0 0 0 0 0 0 0 0 0 0 4 0.0008 0 
3733 6 0.00766748 0.107375 -0.0341971 0 0 0 -0.0670599 -0.478004 0.148918 0.00217329 0.000648762 4.13511e-05 0 1 0 0 0 1 0 0 0 0 0 0 0 0 0 0 22 0.0008 0 
665 6 0.00987473 0.107006 -0.0337892 0 0 0 -0.0477995 -0.203128 -0.177373 0 -1.05196e-05 0 0 0 0 0 0 0 0 0 0 0 0 0 0 0 0 0 18 0.0008 0 
7430 2 0.0122819 0.107532 -0.0339071 0 0 0 -0.0521911 -0.218351 0.0400734 -0.000928877 0.00323406 -0.00728206 0 1 0 0 0 0 0 0 0 0 0 0 0 0 0 0 1 0.0008 0 
5348 4 0.0149143 0.107153 -0.0341332 0 0 0 0.151151 0.0239239 -0.376687 0.00782201 0.00331626 0.00288173 1 0 0 0 0 0 0 0 0 0 0 0 0 0 0 0 14 0.0008 0 
818 5 0.0165037 0.107544 -0.03398 0 0 0 0.385639 -0.545569 0.0725462 -0.00106363 0.00345593 -0.000510928 0 1 0 0 0 0 0 0 0 0 0 0 0 0 0 0 13 0.0008 0 
2835 1 0.0185819 0.107557 -0.0341977 0 0 0 0.117102 0.187154 0.0389683 0.000356936 0.000327116 -0.000180871 0 0 0 0 0 0 0 0 1 0 0 0 0 0 0 0 13 0.0008 0 
5823 11 0.00317315 0.10864 -0.0342039 0 0 0 0.0242178 -0.12281 -0.0330167 0.000714465 0.000710646 0.000771422 0 0 0 0 0 0 0 0 0 0 2 0 0 0 0 0 13 0.0008 0 
677 5 0.00475692 0.10849 -0.0341997 0 0 0 0.0983558 -0.249284 0.0415669 0.00170655 -0.000635615 0.000190703 0 0 0 0 1 0 0 0 0 0 1 0 0 0 0 0 13 0.0008 0 
1134 2 0.0108634 0.108239 -0.0341992 0 0 0 0.0723712 -0.107393 -0.0005946 0 -1.05196e-05 0 0 0 0 0 0 0 0 0 0 0 0 0 0 0 0 0 17 0.0008 0 
880 4 0.0139074 0.108353 -0.0337959 0 0 0 -0.189199 -0.274937 0.231352 0 -1.05196e-05 0 0 0 0 0 0 0 0 0 0 0 0 0 0 0 0 0 13 0.0008 0 
3229 8 0.00179364 0.109184 -0.0336329 0 0 0 0.054542 0.16082 0.034598 -7.55914e-05 -2.06499e-05 0.000550655 0 0 1 0 0 0 0 0 0 0 1 0 0 0 0 0 23 0.0008 0 
7884 2 0.0061914 0.109195 -0.0342043 0 0 0 -0.107412 -0.0573774 0.0301803 0.000832056 0.000461145 -0.000395265 0 1 0 0 1 0 0 0 0 0 0 0 0 0 0 0 5 0.0008 0 
2203 2 0.00777422 0.10899 -0.0340913 0 0 0 -0.106258 -0.462326 0.144191 0 -1.05196e-05 0 0 0 0 0 0 0 0 0 0 0 0 0 0 0 0 0 14 0.0008 0 