ITEM: TIMESTEP
550000
ITEM: NUMBER OF ATOMS
64
ITEM: BOX BOUNDS ff ff ff
-0.01 0.45
-0.15 0.15
-0.08 0.1
ITEM: ATOMS id type x y z ix iy iz vx vy vz fx fy fz c_cc_1 c_cc_2 c_cc_3 c_cc_4 c_cc_5 c_cc_6 c_cc_7 c_cc_8 c_cc_9 c_cc_10 c_cc_11 c_cc_12 c_cc_13 c_cc_14 c_cc_15 c_cc_16 f_fppacc radius 
49 3 0.0182207 -0.0533889 0.0218541 0 0 0 -0.904702 5.63897 12.4135 0 -0.000164368 0 0 0 0 0 0 0 0 0 0 0 0 0 0 0 0 0 0 0.002 
61 8 0.00882368 -0.0236725 -0.0526577 0 0 0 2.3142 -18.5391 3.24394 0 -0.000164368 0 0 0 0 0 0 0 0 0 0 0 0 0 0 0 0 0 0 0.002 
27 3 0.0163008 0.0223691 -0.0480246 0 0 0 0.372253 -1.98078 -1.73115 0 -0.000164368 0 0 0 0 0 0 0 0 0 0 0 0 0 0 0 0 0 0 0.002 
20 3 0.0107613 0.0332469 -0.0455805 0 0 0 0.992961 -1.20549 -0.557843 0 -0.000164368 0 0 0 0 0 0 0 0 0 0 0 0 0 0 0 0 0 0 0.002 
40 10 0.0153731 0.0245933 0.0231036 0 0 0 0.813697 -1.98813 -0.591254 0 -0.000164368 0 0 0 0 0 0 0 0 0 0 0 0 0 0 0 0 0 0 0.002 
13 4 0.0120954 0.019623 0.0444206 0 0 0 -0.715077 -4.31132 1.85795 0 -0.000164368 0 0 0 0 0 0 0 0 0 0 0 0 0 0 0 0 0 0 0.002 
41 1 0.0151507 0.0528388 -0.0355 0 0 0 -1.15173e-307 8.13277e-20 -3.92784e-12 3.74039e-307 0 0 0 0 0 0 0 0 0 0 0 0 0 0 0 0 0 0 0 0.002 
36 12 0.0094056 0.0576907 -0.0327781 0 0 0 -1.13814 -8.57249 1.36345 0 -0.000164368 0 0 0 0 0 0 0 0 0 0 0 0 0 0 0 0 0 0 0.002 
1 6 0.00991633 0.0739533 -0.0283201 0 0 0 0.864642 0.203591 3.53663 0 -0.000164368 0 0 0 0 0 0 0 0 0 0 0 0 0 0 0 0 0 0 0.002 
3 2 0.0117193 0.0464393 -0.00356998 0 0 0 0.656088 -1.53593 -1.38881 0 -0.000164368 0 0 0 0 0 0 0 0 0 0 0 0 0 0 0 0 0 0 0.002 
63 6 0.0169034 0.065302 -0.00657517 0 0 0 1.71181 4.75589 -10.8097 0 -0.000164368 0 0 0 0 0 0 0 0 0 0 0 0 0 0 0 0 0 0 0.002 
62 2 0.00342464 0.0602392 0.0181083 0 0 0 2.91531 -0.111607 -4.46315 0 -0.000164368 0 0 0 0 0 0 0 0 0 0 0 0 0 0 0 0 0 0 0.002 
15 2 0.0163083 0.104448 -0.0211135 0 0 0 -3.89978 -1.27095 -2.28143 0 -0.000164368 0 0 0 0 0 0 0 0 0 0 0 0 0 0 0 0 0 0 0.002 
16 3 0.0069979 0.0934711 -0.0191174 0 0 0 0.23242 20.1681 -11.3604 0 -0.000164368 0 0 0 0 0 0 0 0 0 0 0 0 0 0 0 0 0 0 0.002 
60 4 0.0178535 0.0798369 -0.00784537 0 0 0 0.187833 0.683637 2.05789 0 -0.000164368 0 0 0 0 0 0 0 0 0 0 0 0 0 0 0 0 0 0 0.002 
22 2 0.00684645 0.0952539 -0.00371482 0 0 0 0.631598 -0.474292 -0.43087 0 -0.000164368 0 0 0 0 0 0 0 0 0 0 0 0 0 0 0 0 0 0 0.002 
47 4 0.0102775 0.107705 0.00607765 0 0 0 1.16924 -0.469855 2.66983 0 -0.000164368 0 0 0 0 0 0 0 0 0 0 0 0 0 0 0 0 0 0 0.002 
58 1 0.00695244 0.0793812 0.0217872 0 0 0 2.44612 -6.87813 -5.92506 0 -0.000164368 0 0 0 0 0 0 0 0 0 0 0 0 0 0 0 0 0 0 0.002 
26 9 0.00551845 0.0827936 0.0301632 0 0 0 -4.50714 11.6849 -2.24885 0 -0.000164368 0 0 0 0 0 0 0 0 0 0 0 0 0 0 0 0 0 0 0.002 
9 6 0.00965786 0.102067 0.0320555 0 0 0 0.0293547 2.39906 -0.134714 0 -0.000164368 0 0 0 0 0 0 0 0 0 0 0 0 0 0 0 0 0 0 0.002 
65 2 0.0329651 -0.03007 -0.022077 0 0 0 2.28926 -32.3188 11.7391 0 -0.000164368 0 0 0 0 0 0 0 0 0 0 0 0 0 0 0 0 0 0 0.002 
6 3 0.0229486 0.0241633 -0.0480277 0 0 0 -0.197851 -18.9019 -9.47512 0 -0.000164368 0 0 0 0 0 0 0 0 0 0 0 0 0 0 0 0 0 0 0.002 
39 3 0.0218846 0.0300277 0.0191052 0 0 0 4.08688 -11.0148 10.8493 0 -0.000164368 0 0 0 0 0 0 0 0 0 0 0 0 0 0 0 0 0 0 0.002 
51 2 0.0276405 0.00417147 0.0577614 0 0 0 10.0217 30.5697 -3.69975 -0.0547721 -0.0963073 -0.782443 0 0 0 0 0 0 0 0 0 0 0 0 0 0 0 0 0 0.002 
48 3 0.023496 0.0573218 -0.0355 0 0 0 -1.88246e-307 1.0151e-19 -3.37589e-12 4.94682e-307 0 0 0 0 0 0 0 0 0 0 0 0 0 0 0 0 0 0 0 0.002 
38 9 0.0328922 0.0733972 -0.029846 0 0 0 1.57957 -0.257984 0.975926 0 -0.000164368 0 0 0 0 0 0 0 0 0 0 0 0 0 0 0 0 0 0 0.002 
10 6 0.0359647 0.0479708 -0.0286304 0 0 0 -1.52273 -3.60169 -1.337 0 -0.000164368 0 0 0 0 0 0 0 0 0 0 0 0 0 0 0 0 0 0 0.002 
25 3 0.038338 0.0554004 -0.0270669 0 0 0 2.89728 0.216237 1.71888 0 -0.000164368 0 0 0 0 0 0 0 0 0 0 0 0 0 0 0 0 0 0 0.002 
23 3 0.0385377 0.0628674 -0.0211887 0 0 0 2.82475 0.109148 1.8476 0 -0.000164368 0 0 0 0 0 0 0 0 0 0 0 0 0 0 0 0 0 0 0.002 
46 2 0.0257261 0.046065 -0.0214821 0 0 0 42.3709 -16.3407 -86.4077 0 -0.000164368 0 0 0 0 0 0 0 0 0 0 0 0 0 0 0 0 0 0 0.002 
29 5 0.0412063 0.0426539 -0.0289351 0 0 0 -17.6135 -30.8361 18.7808 0 -0.000164368 0 0 0 0 0 0 0 0 0 0 0 0 0 0 0 0 0 0 0.002 
52 2 0.0412694 0.0588743 0.00865381 0 0 0 5.44984 -6.44674 -4.20845 0 -0.000164368 0 0 0 0 0 0 0 0 0 0 0 0 0 0 0 0 0 0 0.002 
37 5 0.0301691 0.0656558 0.0321632 0 0 0 -0.289068 -0.492839 -0.885012 0 -0.000164368 0 0 0 0 0 0 0 0 0 0 0 0 0 0 0 0 0 0 0.002 
33 2 0.0443137 0.072659 0.0132204 0 0 0 -0.846255 -0.0832511 -2.59879 0 -0.000164368 0 0 0 0 0 0 0 0 0 0 0 0 0 0 0 0 0 0 0.002 
45 4 0.0189456 0.0576909 0.0242694 0 0 0 -6.34309 -3.31198 -3.98798 0 -0.000164368 0 0 0 0 0 0 0 0 0 0 0 0 0 0 0 0 0 0 0.002 
32 6 0.0270428 0.0544905 0.0279966 0 0 0 0.349781 -0.805295 -2.34801 0 -0.000164368 0 0 0 0 0 0 0 0 0 0 0 0 0 0 0 0 0 0 0.002 
28 5 0.0454284 0.0553102 0.0304838 0 0 0 1.20382 -2.27137 -0.60892 0 -0.000164368 0 0 0 0 0 0 0 0 0 0 0 0 0 0 0 0 0 0 0.002 
44 5 0.0345279 0.0660044 0.0321732 0 0 0 0.996307 1.04756 0.71649 0 -0.000164368 0 0 0 0 0 0 0 0 0 0 0 0 0 0 0 0 0 0 0.002 
8 5 0.022443 0.0757664 -0.0309241 0 0 0 -0.631755 -1.25605 -1.04008 0 -0.000164368 0 0 0 0 0 0 0 0 0 0 0 0 0 0 0 0 0 0 0.002 
59 3 0.0220874 0.105236 -0.0265632 0 0 0 -7.34586 10.3457 4.8458 0 -0.000164368 0 0 0 0 0 0 0 0 0 0 0 0 0 0 0 0 0 0 0.002 
35 3 0.0457832 0.0869592 -0.0251134 0 0 0 2.29262 -0.247784 -0.543007 0 -0.000164368 0 0 0 0 0 0 0 0 0 0 0 0 0 0 0 0 0 0 0.002 
12 9 0.0332161 0.106031 -0.0174954 0 0 0 -0.962014 -0.658101 1.03087 0 -0.000164368 0 0 0 0 0 0 0 0 0 0 0 0 0 0 0 0 0 0 0.002 
64 4 0.0376356 0.104247 -0.0169633 0 0 0 -5.11132 5.69087 0.228143 0 -0.000164368 0 0 0 0 0 0 0 0 0 0 0 0 0 0 0 0 0 0 0.002 
2 6 0.0450469 0.103058 -0.00840295 0 0 0 -1.5067 -1.84495 6.92511 0 -0.000164368 0 0 0 0 0 0 0 0 0 0 0 0 0 0 0 0 0 0 0.002 
53 3 0.0378152 0.0862254 0.00454687 0 0 0 -0.839721 -2.95695 4.25159 0 -0.000164368 0 0 0 0 0 0 0 0 0 0 0 0 0 0 0 0 0 0 0.002 
57 4 0.0472465 0.108025 -0.0192814 0 0 0 -2.14064 7.61599 0.708947 -0.718225 -1.02621 0.708178 0 0 0 0 0 0 0 0 0 0 0 0 0 0 0 0 0 0.002 
18 3 0.0385364 0.10628 0.0198169 0 0 0 1.36142 -0.815175 4.79805 0 -0.000164368 0 0 0 0 0 0 0 0 0 0 0 0 0 0 0 0 0 0 0.002 
21 8 0.0375496 0.102438 0.0278178 0 0 0 -1.86135 -2.59073 -3.51838 0 -0.000164368 0 0 0 0 0 0 0 0 0 0 0 0 0 0 0 0 0 0 0.002 
54 6 0.0381173 0.088067 0.0300338 0 0 0 -2.75796 -2.20545 -1.37253 0 -0.000164368 0 0 0 0 0 0 0 0 0 0 0 0 0 0 0 0 0 0 0.002 
5 3 0.0450197 0.0978568 0.0284442 0 0 0 -1.74698 -4.72196 -3.87922 0 -0.000164368 0 0 0 0 0 0 0 0 0 0 0 0 0 0 0 0 0 0 0.002 
31 2 0.0330355 0.103691 0.0317335 0 0 0 -2.74047 -0.273401 -1.51572 0 -0.000164368 0 0 0 0 0 0 0 0 0 0 0 0 0 0 0 0 0 0 0.002 
55 4 0.0692115 -0.0500567 -0.0288227 0 0 0 -3.70315 -16.1065 29.4099 0 -0.000164368 0 0 0 0 0 0 0 0 0 0 0 0 0 0 0 0 0 0 0.002 
66 5 0.0668847 -0.0470857 0.0335725 0 0 0 -8.19967 26.0794 37.5341 0 -0.000164368 0 0 0 0 0 0 0 0 0 0 0 0 0 0 0 0 0 0 0.002 
34 3 0.0645019 -0.056741 0.0116471 0 0 0 0.356923 12.9074 51.8212 0.0414089 0.491628 0.172481 0 0 0 0 0 0 0 0 0 0 0 0 0 0 0 0 0 0.002 
19 3 0.0675005 -0.0179762 0.0550695 0 0 0 6.35641 22.7008 6.02545 -0.00813077 0.197314 -0.734081 0 0 0 0 0 0 0 0 0 0 0 0 0 0 0 0 0 0.002 
56 7 0.0585108 -0.013727 0.056236 0 0 0 -19.901 52.7277 11.5509 -0.0800462 0.226778 0.162689 0 0 0 0 0 0 0 0 0 0 0 0 0 0 0 0 0 0.002 
30 8 0.0605854 0.0217349 -0.0508021 0 0 0 10.6667 -46.2082 -28.7036 0 -0.000164368 0 0 0 0 0 0 0 0 0 0 0 0 0 0 0 0 0 0 0.002 
24 1 0.057981 0.0495379 -0.0300146 0 0 0 -0.551149 -19.0704 -29.1554 0.266732 -0.625664 0.289008 0 0 0 0 0 0 0 0 0 0 0 0 0 0 0 0 0 0.002 
50 1 0.0489353 0.0625734 -0.0330212 0 0 0 3.73605 11.4269 4.79173 0.0193106 0.0804646 -0.538012 0 0 0 0 0 0 0 0 0 0 0 0 0 0 0 0 0 0.002 
7 1 0.0880222 -0.0278626 0.0507381 0 0 0 -1.99933 30.3936 18.4604 0 -0.000164368 0 0 0 0 0 0 0 0 0 0 0 0 0 0 0 0 0 0 0.002 
14 5 0.099445 0.0112555 0.0567987 0 0 0 -4.13179 31.466 -4.37172 0.0437319 -0.0736137 -0.470752 0 0 0 0 0 0 0 0 0 0 0 0 0 0 0 0 0 0.002 
11 2 0.0997257 0.0389234 -0.0428821 0 0 0 -1.78154 -23.2428 -23.4845 0.11745 -0.402539 0.434701 0 0 0 0 0 0 0 0 0 0 0 0 0 0 0 0 0 0.002 
4 6 0.115856 -0.0410015 0.0409477 0 0 0 -1.41225 21.9037 20.8279 0.00363095 0.558342 -0.679103 0 0 0 0 0 0 0 0 0 0 0 0 0 0 0 0 0 0.002 
17 4 0.136715 -0.032255 -0.0479959 0 0 0 0.151513 -34.8928 22.6086 0 -0.000164368 0 0 0 0 0 0 0 0 0 0 0 0 0 0 0 0 0 0 0.002 
