ITEM: TIMESTEP
12400000
ITEM: NUMBER OF ATOMS
1514
ITEM: BOX BOUNDS ff ff ff
-0.01 0.45
-0.15 0.15
-0.08 0.1
ITEM: ATOMS id type x y z ix iy iz vx vy vz fx fy fz c_cc_1 c_cc_2 c_cc_3 c_cc_4 c_cc_5 c_cc_6 c_cc_7 c_cc_8 c_cc_9 c_cc_10 c_cc_11 c_cc_12 c_cc_13 c_cc_14 c_cc_15 c_cc_16 f_fppacc radius 
1038 1 0.0179857 -0.0512567 0.0265886 0 0 0 0.965866 5.6779 12.638 0 -0.000164368 0 0 0 0 0 0 0 0 0 0 0 0 0 0 0 0 0 14 0.002 
1256 2 0.0170235 -0.0424409 0.0391096 0 0 0 0.547866 9.48588 9.35949 0 -0.000164368 0 0 0 0 0 0 0 0 0 0 0 0 0 0 0 0 0 26 0.002 
1541 2 0.01174 -0.0107987 -0.0555203 0 0 0 1.51923 -13.2713 2.3861 0 -0.000164368 0 0 0 0 0 0 0 0 0 0 0 0 0 0 0 0 0 0 0.002 
690 2 0.0128052 -0.0268546 -0.0424493 0 0 0 -1.46752 -7.09746 14.309 0 -0.000164368 0 0 0 0 0 0 0 0 0 0 0 0 0 0 0 0 0 64 0.002 
446 9 0.00567342 0.000438113 -0.0574768 0 0 0 -0.387261 -2.66345 -0.672516 0 -0.000164368 0 0 0 0 0 0 0 0 0 0 0 0 0 0 0 0 0 67 0.002 
14 5 0.0115251 0.0350088 -0.0427863 0 0 0 0.539148 -2.89848 -2.26445 0 -0.000164368 0 0 0 0 0 0 0 0 0 0 0 0 0 0 0 0 0 54 0.002 
497 3 0.0125594 0.0320641 0.00926906 0 0 0 2.29191 3.2557 -4.5896 0 -0.000164368 0 0 0 0 0 0 0 0 0 0 0 0 0 0 0 0 0 45 0.002 
1523 6 0.00676921 0.026424 0.0218882 0 0 0 0.494438 6.33838 -4.20163 0 -0.000164368 0 0 0 0 0 0 0 0 0 0 0 0 0 0 0 0 0 0 0.002 
892 5 0.00580776 0.0279837 0.0335001 0 0 0 0.147508 -1.3628 1.43122 0 -0.000164368 0 0 0 0 0 0 0 0 0 0 0 0 0 0 0 0 0 50 0.002 
768 6 0.00906635 0.0117368 0.0427746 0 0 0 -0.0939401 -2.9241 2.21614 0 -0.000164368 0 0 0 0 0 0 0 0 0 0 0 0 0 0 0 0 0 47 0.002 
41 1 0.0151118 0.052845 -0.0354996 0 0 0 -1.98527e-16 -5.82187e-16 -2.80428e-12 0 -5.55112e-17 0 1 0 0 0 0 0 0 0 0 0 0 0 0 0 0 0 35 0.002 
480 3 0.0160775 0.0564756 -0.0355004 0 0 0 1.77492e-16 8.31389e-16 -2.804e-12 0 0 0 1 0 0 0 0 0 0 0 0 0 0 0 0 0 0 0 76 0.002 
650 3 0.0105075 0.0480021 -0.0318388 0 0 0 1.63307 -0.465623 0.488528 0 -0.000164368 0 0 0 0 0 0 0 0 0 0 0 0 0 0 0 0 0 55 0.002 
1013 8 0.00612959 0.0491791 -0.0299794 0 0 0 1.31369 -0.650211 1.90861 0 -0.000164368 0 0 0 0 0 0 0 0 0 0 0 0 0 0 0 0 0 34 0.002 
720 4 0.0157565 0.0564063 -0.0311006 0 0 0 0.920626 -1.04589 -1.55401 0 -0.000164368 0 0 0 0 0 0 0 0 0 0 0 0 0 0 0 0 0 48 0.002 
365 10 0.00464005 0.0385087 -0.0277642 0 0 0 -1.89655 -3.44613 0.387871 0 -0.000164368 0 0 0 0 0 0 0 0 0 0 0 0 0 0 0 0 0 23 0.002 
807 5 0.00959751 0.0684617 -0.0155603 0 0 0 1.95662 -2.63437 3.84956 0 -0.000164368 0 0 0 0 0 0 0 0 0 0 0 0 0 0 0 0 0 58 0.002 
695 2 0.0121774 0.0742709 -0.0132958 0 0 0 -8.19269 0.71652 -6.20216 0 -0.000164368 0 0 0 0 0 0 0 0 0 0 0 0 0 0 0 0 0 49 0.002 
303 3 0.00846131 0.0483379 -0.00924052 0 0 0 -5.51326 -9.6874 -3.65245 0 -0.000164368 0 0 0 0 0 0 0 0 0 0 0 0 0 0 0 0 0 57 0.002 
773 5 0.010181 0.056972 -0.00920775 0 0 0 -4.40161 3.74005 -8.59917 0 -0.000164368 0 0 0 0 0 0 0 0 0 0 0 0 0 0 0 0 0 35 0.002 
1106 6 0.00443681 0.0739569 -0.000930944 0 0 0 0.615551 -1.26402 -0.593703 0 -0.000164368 0 0 0 0 0 0 0 0 0 0 0 0 0 0 0 0 0 13 0.002 
507 6 0.0183661 0.0748252 0.00565522 0 0 0 0.209019 2.1736 -0.747158 0.0899293 -0.127089 -0.0837967 0 0 0 0 0 1 0 0 0 0 0 0 0 0 0 0 74 0.002 
1186 8 0.00322926 0.0732554 0.00869383 0 0 0 0.0612184 -0.597307 -0.141652 0 -0.000164368 0 0 0 0 0 0 0 0 0 0 0 0 0 0 0 0 0 30 0.002 
207 2 0.00533657 0.0673582 0.00333432 0 0 0 2.48729 13.5477 -17.8148 0 -0.000164368 0 0 0 0 0 0 0 0 0 0 0 0 0 0 0 0 0 59 0.002 
926 2 0.00844472 0.0720355 0.00997802 0 0 0 -4.3596 3.09772 -4.37885 0 -0.000164368 0 0 0 0 0 0 0 0 0 0 0 0 0 0 0 0 0 42 0.002 
1379 8 0.0173319 0.0736182 0.0329828 0 0 0 -0.0674216 -0.261602 0.00218064 -0.00293952 0.00104057 0.000787069 0 0 0 0 0 0 0 1 0 0 0 0 0 0 0 0 15 0.002 
910 15 0.0148052 0.0453565 0.0357068 0 0 0 4.36645 11.8742 -14.4719 0 -0.000164368 0 0 0 0 0 0 0 0 0 0 0 0 0 0 0 0 0 47 0.002 
798 4 0.0184161 0.0517559 0.0279798 0 0 0 -13.6581 24.2929 -29.7052 0 -0.000164368 0 0 0 0 0 0 0 0 0 0 0 0 0 0 0 0 0 44 0.002 
291 1 0.00637799 0.0734676 0.014185 0 0 0 -0.0104405 -0.0503716 -0.530522 0 -0.000164368 0 0 0 0 0 0 0 0 0 0 0 0 0 0 0 0 0 72 0.002 
782 1 0.0171682 0.0717704 0.0154012 0 0 0 -0.209089 0.573105 -0.558917 0 -0.000164368 0 0 0 0 0 0 0 0 0 0 0 0 0 0 0 0 0 46 0.002 
561 6 0.0177295 0.0670514 0.0172199 0 0 0 -1.20426 2.44815 -2.0225 0 -0.000164368 0 0 0 0 0 0 0 0 0 0 0 0 0 0 0 0 0 64 0.002 
1537 11 0.00302967 0.0743312 0.017227 0 0 0 -0.00786443 -0.316872 -0.0112006 0 -0.000164368 0 0 0 0 0 0 0 0 0 0 0 0 0 0 0 0 0 0 0.002 
516 2 0.0117587 0.0733599 0.0167761 0 0 0 -0.178473 -0.601715 -0.171242 -0.000124763 -0.000313129 0.000139719 0 1 0 0 0 0 0 0 0 0 0 0 0 0 0 0 68 0.002 
594 1 0.0174434 0.074626 0.0185264 0 0 0 -1.14537 0.692276 -0.0662985 -0.000989965 -0.00398571 -0.000661777 1 0 0 0 0 0 0 0 0 0 0 0 0 0 0 0 53 0.002 
1198 5 0.0136897 0.0691047 0.0200577 0 0 0 -0.308235 -0.075825 -0.314767 0 -0.000164368 0 0 0 0 0 0 0 0 0 0 0 0 0 0 0 0 0 31 0.002 
1146 2 0.00328199 0.0724571 0.021099 0 0 0 -0.0727879 -0.266976 0.0729984 -0.000226438 -0.000223568 5.69008e-05 0 0 0 0 0 0 0 0 0 0 0 0 0 0 0 0 40 0.002 
978 1 0.00925474 0.0725334 0.0197752 0 0 0 -0.118229 -0.30627 0.070029 0.00335918 -0.00109411 -0.00194338 1 1 0 0 0 0 0 0 0 0 0 0 0 0 0 0 42 0.002 
638 6 0.0129387 0.0738521 0.020643 0 0 0 -0.106996 -0.201459 -0.174629 0 -0.000164368 0 0 0 0 0 0 0 0 0 0 0 0 0 0 0 0 0 48 0.002 
691 8 0.00800211 0.0584103 0.0210016 0 0 0 -3.97538 5.78462 -4.194 0 -0.000164368 0 0 0 0 0 0 0 0 0 0 0 0 0 0 0 0 0 10 0.002 
1044 10 0.0124937 0.0621659 0.0227308 0 0 0 -1.58198 0.317969 -0.0652758 0 -0.000164368 0 0 0 0 0 0 0 0 0 0 0 0 0 0 0 0 0 60 0.002 
1358 8 0.00348704 0.0653753 0.0223326 0 0 0 0.0219417 -0.330763 0.077166 0 -0.000164368 0 0 0 0 0 0 0 0 0 0 0 0 0 0 0 0 0 10 0.002 
729 9 0.00923917 0.0658979 0.0232473 0 0 0 -0.138876 -0.0711564 -0.341782 0 -0.000164368 0 0 0 0 0 0 0 0 0 0 0 0 0 0 0 0 0 47 0.002 
1359 6 0.0174806 0.0668528 0.0223527 0 0 0 -0.14176 -0.0813669 -0.25681 0 -0.000164368 0 0 0 0 0 0 0 0 0 0 0 0 0 0 0 0 0 12 0.002 
1529 2 0.00709858 0.0716048 0.023055 0 0 0 -0.0035516 -0.291011 -0.0379595 -0.000134827 -0.000151926 -0.000187052 0 1 0 0 0 0 0 0 0 0 0 0 0 0 0 0 1 0.002 
531 1 0.0113489 0.0708177 0.0228363 0 0 0 -0.0526942 -0.0964379 -0.0268434 0 -0.000164368 0 0 0 0 0 0 0 0 0 0 0 0 0 0 0 0 0 82 0.002 
1015 7 0.0162499 0.0719355 0.0218418 0 0 0 -0.0976268 -0.137197 -0.00844947 0 -0.000164368 0 0 0 0 0 0 0 0 0 0 0 0 0 0 0 0 0 45 0.002 
583 1 0.0099347 0.0748815 0.0231679 0 0 0 -0.0118668 -0.201687 -0.0305151 0.00147513 -0.000345708 -0.000453378 1 0 0 0 0 0 0 0 0 0 0 0 0 0 0 0 72 0.002 
1254 3 0.00745045 0.051194 0.0209059 0 0 0 -2.82641 -0.0490681 -6.13152 0 -0.000164368 0 0 0 0 0 0 0 0 0 0 0 0 0 0 0 0 0 42 0.002 
214 8 0.0145254 0.0653154 0.0245972 0 0 0 -0.0128012 -0.239094 -0.177861 0 -0.000164368 0 0 0 0 0 0 0 0 0 0 0 0 0 0 0 0 0 40 0.002 
1387 4 0.0030638 0.0685475 0.0249203 0 0 0 0.0324743 -0.0624789 -0.0728467 0 -0.000164368 0 0 0 0 0 0 0 0 0 0 0 0 0 0 0 0 0 21 0.002 
253 2 0.0156649 0.0694811 0.0249725 0 0 0 -0.0058802 -0.129841 0.0743466 0 -0.000164368 0 0 0 0 0 0 0 0 0 0 0 0 0 0 0 0 0 53 0.002 
1030 1 0.0144383 0.074113 0.0248332 0 0 0 -0.0705404 -0.31712 0.0318752 0.000744997 -0.00109529 -0.00236667 1 0 0 0 0 0 0 0 0 0 0 0 0 0 0 0 16 0.002 
1538 5 0.0135004 0.0565018 0.0215334 0 0 0 6.24707 5.77083 -8.49687 0 -0.000164368 0 0 0 0 0 0 0 0 0 0 0 0 0 0 0 0 0 0 0.002 
860 11 0.0168371 0.0574913 0.026947 0 0 0 -0.0948636 -0.0174663 -0.00423013 0 -0.000164368 0 0 0 0 0 0 0 0 0 0 0 0 0 0 0 0 0 67 0.002 
222 8 0.00724769 0.0587809 0.0267449 0 0 0 -0.0261146 -0.457597 -0.193585 0 -0.000164368 0 0 0 0 0 0 0 0 0 0 0 0 0 0 0 0 0 72 0.002 
1039 3 0.0102372 0.0622668 0.0260442 0 0 0 -0.334905 -0.248335 -0.0239153 0 -0.000164368 0 0 0 0 0 0 0 0 0 0 0 0 0 0 0 0 0 27 0.002 
1436 5 0.00568815 0.0631843 0.0267034 0 0 0 0.196967 -0.309533 -0.00674315 0 -0.000164368 0 0 0 0 0 0 0 0 0 0 0 0 0 0 0 0 0 7 0.002 
769 5 0.00625752 0.0677334 0.027211 0 0 0 0.0214648 -0.355745 -0.130408 0 -0.000164368 0 0 0 0 0 0 0 0 0 0 0 0 0 0 0 0 0 53 0.002 
459 5 0.01074 0.0664552 0.0276961 0 0 0 -0.223642 -0.34374 -0.0459416 -0.000241217 -0.000108113 -0.000332368 0 0 0 0 0 0 0 0 0 0 0 0 0 0 0 0 62 0.002 
1141 6 0.0172764 0.0657978 0.0275588 0 0 0 -0.219521 -0.232792 -0.17918 0.000386096 -0.000365317 -0.000740422 0 0 0 0 0 1 0 0 0 0 0 0 0 0 0 0 32 0.002 
685 7 0.00920365 0.0702442 0.0261708 0 0 0 -0.0501739 -0.310951 -0.0135717 0.000128683 -0.000185131 0.000257143 0 1 0 0 0 0 1 0 0 0 0 0 0 0 0 0 66 0.002 
1155 5 0.00301345 0.0733651 0.027633 0 0 0 0.0290966 -0.191731 0.0124543 -1.98048e-05 -0.000134364 2.59203e-05 0 0 0 0 1 0 0 0 0 0 0 0 0 0 0 0 50 0.002 
486 2 0.00688131 0.0734763 0.0265832 0 0 0 -0.0385017 -0.241781 -0.0705653 -4.82817e-05 -0.000133579 8.26394e-05 0 0 0 0 0 0 0 0 0 0 0 0 0 0 0 0 54 0.002 
933 1 0.010953 0.0740533 0.0269924 0 0 0 0.0500385 -0.292951 -0.0398011 0 -0.000164368 0 0 0 0 0 0 0 0 0 0 0 0 0 0 0 0 0 59 0.002 
1222 3 0.0180723 0.0740646 0.0266956 0 0 0 -0.0365964 -0.308321 0.0726002 0 -0.000164368 0 0 0 0 0 0 0 0 0 0 0 0 0 0 0 0 0 32 0.002 
1020 3 0.0147612 0.0623467 0.029058 0 0 0 -0.412149 -0.342907 0.116776 0 -0.000164368 0 0 0 0 0 0 0 0 0 0 0 0 0 0 0 0 0 44 0.002 
224 5 0.0141305 0.0668912 0.0297683 0 0 0 -0.193082 -0.337411 -0.0752168 0.00128876 -0.00200328 -0.000764522 0 0 0 0 2 1 0 0 0 0 0 0 0 0 0 0 88 0.002 
475 2 0.00306849 0.069732 0.0293121 0 0 0 -0.0533328 -0.270288 -0.0927591 0 -0.000164368 0 0 0 0 0 0 0 0 0 0 0 0 0 0 0 0 0 56 0.002 
250 5 0.00945908 0.069896 0.0301469 0 0 0 -0.0128846 -0.184389 0.00558175 -0.00181506 0.00150783 -0.00474465 0 0 0 0 2 0 1 0 0 0 0 0 0 0 0 0 74 0.002 
1074 10 0.017295 0.0696608 0.0286297 0 0 0 -0.141346 -0.280156 0.0338383 0 -0.000164368 0 0 0 0 0 0 0 0 0 0 0 0 0 0 0 0 0 37 0.002 
126 2 0.0131747 0.0706749 0.0289168 0 0 0 0.00179089 -0.267852 0.0352948 0.00290695 0.000215336 -0.00123419 0 0 0 0 2 0 0 0 0 0 0 0 0 0 0 0 64 0.002 
1033 2 0.0146887 0.0743699 0.028811 0 0 0 0.0213442 -0.256854 0.0293334 0.000515609 0.000589541 0.000525112 1 1 0 0 0 0 0 0 0 0 0 0 0 0 0 0 56 0.002 
1122 1 0.00403992 0.0517306 0.0317752 0 0 0 0.515607 -0.600875 -0.257775 0 -0.000164368 0 0 0 0 0 0 0 0 0 0 0 0 0 0 0 0 0 38 0.002 
902 3 0.00411124 0.06277 0.0310834 0 0 0 -0.161389 -0.31405 0.0609635 0 -0.000164368 0 0 0 0 0 0 0 0 0 0 0 0 0 0 0 0 0 40 0.002 
195 7 0.00797198 0.0654619 0.0319074 0 0 0 -0.0452376 -0.2434 0.314654 0 -0.000164368 0 0 0 0 0 0 0 0 0 0 0 0 0 0 0 0 0 76 0.002 
675 1 0.0116308 0.0637471 0.0313527 0 0 0 -0.0739261 -0.32369 -0.16267 0 -0.000164368 0 0 0 0 0 0 0 0 0 0 0 0 0 0 0 0 0 45 0.002 
1299 5 0.00616791 0.0725067 0.0304252 0 0 0 -0.0222264 -0.10576 0.0370366 0 -0.000164368 0 0 0 0 0 0 0 0 0 0 0 0 0 0 0 0 0 27 0.002 
1137 1 0.00826843 0.0611053 0.0329588 0 0 0 0.176238 -0.229057 -0.00753384 0 -0.000164368 0 0 0 0 0 0 0 0 0 0 0 0 0 0 0 0 0 28 0.002 
839 3 0.0177893 0.0610079 0.032612 0 0 0 -0.0909742 -0.368766 -0.0349106 0 -0.000164368 0 0 0 0 0 0 0 0 0 0 0 0 0 0 0 0 0 24 0.002 
883 2 0.0152397 0.0648357 0.0330072 0 0 0 -0.114591 -0.2505 -0.000618854 -0.00149816 -0.00179533 0.000371644 0 1 0 0 1 0 0 0 0 0 0 0 0 0 0 0 58 0.002 
339 4 0.00299489 0.0680017 0.0329798 0 0 0 0.00723946 -0.077758 0.0416527 0.00190939 9.71857e-05 0.000471767 0 0 0 1 0 0 0 0 0 0 0 0 0 0 0 0 57 0.002 
539 8 0.00671436 0.0694495 0.0330077 0 0 0 0.0381564 -0.0726374 0.0301332 0.0016571 -0.000451168 -0.00712774 0 0 0 1 1 0 0 0 0 0 0 0 0 0 0 0 66 0.002 
1205 1 0.0116916 0.0678832 0.0328643 0 0 0 -0.222456 -0.205257 0.140039 0 -0.000164368 0 0 0 0 0 0 0 0 0 0 0 0 0 0 0 0 0 37 0.002 
964 2 0.0172803 0.0694917 0.0328679 0 0 0 -0.110456 -0.297912 0.0203866 0 -0.000164368 0 0 0 0 0 0 0 0 0 0 0 0 0 0 0 0 0 42 0.002 
1381 4 0.00306227 0.0720225 0.0329985 0 0 0 0.0196312 -0.256973 -0.00130959 0 -0.000164368 0 0 0 0 0 0 0 0 0 0 0 0 0 0 0 0 0 18 0.002 
577 2 0.013388 0.0715568 0.0329795 0 0 0 0.0207096 -0.266118 -0.00527931 0 -0.000164368 0 0 0 0 0 0 0 0 0 0 0 0 0 0 0 0 0 35 0.002 
1383 2 0.0093553 0.0727383 0.0329795 0 0 0 -0.0038936 -0.210076 0.00464412 0 -0.000164368 0 0 0 0 0 0 0 0 0 0 0 0 0 0 0 0 0 15 0.002 
669 1 0.0185434 0.0608708 0.0284556 0 0 0 -0.617002 -0.523243 0.698544 0 -0.000164368 0 0 0 0 0 0 0 0 0 0 0 0 0 0 0 0 0 85 0.002 
451 1 0.00456069 0.0988719 -0.0317696 0 0 0 0.500944 0.349578 0.814508 0.0803716 -0.132287 0.0747479 1 0 0 0 0 0 0 0 0 0 0 0 0 0 0 0 55 0.002 
1003 7 0.00423553 0.102626 -0.0328301 0 0 0 0.133391 -0.109549 0.0867342 -0.0803716 0.131958 -0.0747479 1 0 0 0 0 0 0 0 0 0 0 0 0 0 0 0 49 0.002 
139 6 0.00875741 0.101041 -0.0325489 0 0 0 0.0226597 -0.243979 0.461828 0 -0.000164368 0 0 0 0 0 0 0 0 0 0 0 0 0 0 0 0 0 70 0.002 
1333 1 0.0187128 0.103896 -0.0326051 0 0 0 0.14411 1.77507 0.193355 0 -0.000164368 0 0 0 0 0 0 0 0 0 0 0 0 0 0 0 0 0 12 0.002 
1075 3 0.00311281 0.107169 -0.0324377 0 0 0 0.134163 0.109925 0.182773 0 -0.000164368 0 0 0 0 0 0 0 0 0 0 0 0 0 0 0 0 0 53 0.002 
133 1 0.0117283 0.107349 -0.032999 0 0 0 0.293852 -0.0874178 -0.00752689 0 -0.000164368 0 0 0 0 0 0 0 0 0 0 0 0 0 0 0 0 0 67 0.002 
1058 2 0.016728 0.107564 -0.0322303 0 0 0 0.515554 -0.313923 0.460633 0 -0.000164368 0 0 0 0 0 0 0 0 0 0 0 0 0 0 0 0 0 46 0.002 
993 8 0.00709479 0.107974 -0.0328484 0 0 0 0.22333 -0.139701 0.205959 0 -0.000164368 0 0 0 0 0 0 0 0 0 0 0 0 0 0 0 0 0 44 0.002 
1226 6 0.0138296 0.102235 -0.0296692 0 0 0 0.587982 -0.324622 -0.291765 0.00726066 -0.0120502 0.00124467 0 0 0 0 0 2 0 0 0 0 0 0 0 0 0 0 30 0.002 
150 7 0.00928959 0.105255 -0.0304412 0 0 0 0.107821 -0.510017 -0.179406 -0.00632118 -0.00154211 -0.00676609 0 0 0 0 0 0 1 0 0 0 0 0 0 0 0 0 59 0.002 
865 7 0.0131748 0.0955062 -0.02627 0 0 0 1.73471 6.5092 1.72174 0 -0.000164368 0 0 0 0 0 0 0 0 0 0 0 0 0 0 0 0 0 36 0.002 
544 2 0.00948414 0.0994059 -0.0268513 0 0 0 -0.744374 0.547896 1.56883 0 -0.000164368 0 0 0 0 0 0 0 0 0 0 0 0 0 0 0 0 0 76 0.002 
952 3 0.0165932 0.0995245 -0.0286888 0 0 0 0.89507 -0.118008 0.613361 -0.00277015 0.00829479 -0.00282802 0 0 0 0 0 1 0 0 0 0 0 0 0 0 0 0 41 0.002 
290 2 0.010846 0.103316 -0.0272537 0 0 0 0.514578 -0.509066 -0.222789 -0.00449051 0.00326232 0.00158334 0 0 0 0 0 1 0 0 0 0 0 0 0 0 0 0 67 0.002 
499 2 0.005465 0.10765 -0.0289884 0 0 0 0.0807544 -0.0733991 -0.0774279 0 -0.000164368 0 0 0 0 0 0 0 0 0 0 0 0 0 0 0 0 0 60 0.002 
1531 3 0.0120356 0.1074 -0.0285185 0 0 0 0.563721 -0.426011 -0.610777 0.00632118 0.00121337 0.00676609 0 0 0 0 0 0 1 0 0 0 0 0 0 0 0 0 2 0.002 
763 3 0.016133 0.107956 -0.0269167 0 0 0 -0.245987 -0.0504446 0.316155 0 -0.000164368 0 0 0 0 0 0 0 0 0 0 0 0 0 0 0 0 0 59 0.002 
1262 8 0.00520495 0.104085 -0.0269128 0 0 0 0.317159 -0.201075 -0.0186093 0 -0.000164368 0 0 0 0 0 0 0 0 0 0 0 0 0 0 0 0 0 14 0.002 
551 10 0.003835 0.10774 -0.0253331 0 0 0 0.226316 -0.107434 -0.00812498 0 -0.000164368 0 0 0 0 0 0 0 0 0 0 0 0 0 0 0 0 0 49 0.002 
1472 8 0.00807119 0.107136 -0.0250886 0 0 0 0.223553 -0.276029 -0.0435992 0 -0.000164368 0 0 0 0 0 0 0 0 0 0 0 0 0 0 0 0 0 1 0.002 
897 3 0.00956028 0.0951834 -0.0240049 0 0 0 0.395852 3.98183 0.430285 0 -0.000164368 0 0 0 0 0 0 0 0 0 0 0 0 0 0 0 0 0 45 0.002 
498 4 0.0104253 0.103849 -0.023274 0 0 0 1.04042 -0.20203 -0.298157 0 -0.000164368 0 0 0 0 0 0 0 0 0 0 0 0 0 0 0 0 0 42 0.002 
758 4 0.0146942 0.104105 -0.0235268 0 0 0 1.26194 0.28859 -0.678238 0 -0.000164368 0 0 0 0 0 0 0 0 0 0 0 0 0 0 0 0 0 52 0.002 
1119 4 0.0122305 0.10777 -0.0238482 0 0 0 -0.182257 -0.275862 -0.489476 0 -0.000164368 0 0 0 0 0 0 0 0 0 0 0 0 0 0 0 0 0 56 0.002 
1185 6 0.00318894 0.102024 -0.0215429 0 0 0 -0.0401245 -0.534263 0.183053 0 -0.000164368 0 0 0 0 0 0 0 0 0 0 0 0 0 0 0 0 0 29 0.002 
1243 1 0.00535689 0.10776 -0.0212797 0 0 0 0.00233854 -0.0434841 0.0574717 0 -0.000164368 0 0 0 0 0 0 0 0 0 0 0 0 0 0 0 0 0 21 0.002 
1078 1 0.00300117 0.0949191 -0.0196037 0 0 0 0.0107883 -1.50496 0.101318 0 -0.000164368 0 0 0 0 0 0 0 0 0 0 0 0 0 0 0 0 0 32 0.002 
77 12 0.00882797 0.1017 -0.0200055 0 0 0 -0.00629756 -0.258331 -0.411721 0 -0.000164368 0 0 0 0 0 0 0 0 0 0 0 0 0 0 0 0 0 75 0.002 
981 4 0.0154709 0.103282 -0.0175861 0 0 0 0.911611 0.0847529 0.238692 0 -0.000164368 0 0 0 0 0 0 0 0 0 0 0 0 0 0 0 0 0 14 0.002 
1528 5 0.00331035 0.10557 -0.0183227 0 0 0 0.0809536 -0.107908 0.146742 0 -0.000164368 0 0 0 0 0 0 0 0 0 0 0 0 0 0 0 0 0 1 0.002 
1270 6 0.0114596 0.106894 -0.0199724 0 0 0 -0.0349718 -0.286964 -0.307213 0 -0.000164368 0 0 0 0 0 0 0 0 0 0 0 0 0 0 0 0 0 18 0.002 
1511 1 0.0074028 0.0945139 -0.0161349 0 0 0 0.71291 -0.977571 -0.302054 0 -0.000164368 0 0 0 0 0 0 0 0 0 0 0 0 0 0 0 0 0 0 0.002 
693 8 0.00398996 0.0988181 -0.0184079 0 0 0 0.42215 -1.02902 -1.61956 0 -0.000164368 0 0 0 0 0 0 0 0 0 0 0 0 0 0 0 0 0 60 0.002 
1360 1 0.00302974 0.107428 0.0094118 0 0 0 0.00957979 -0.0944468 0.164064 0 -0.000164368 0 0 0 0 0 0 0 0 0 0 0 0 0 0 0 0 0 8 0.002 
1494 4 0.00806561 0.107609 -0.0166269 0 0 0 0.189217 -0.181175 0.43791 0 -0.000164368 0 0 0 0 0 0 0 0 0 0 0 0 0 0 0 0 0 0 0.002 
488 6 0.0138613 0.107766 -0.0156326 0 0 0 0.184135 -0.136034 0.264559 0 -0.000164368 0 0 0 0 0 0 0 0 0 0 0 0 0 0 0 0 0 69 0.002 
1117 1 0.0107814 0.105569 -0.0140632 0 0 0 -0.239473 -0.276476 0.0939041 0 -0.000164368 0 0 0 0 0 0 0 0 0 0 0 0 0 0 0 0 0 24 0.002 
653 9 0.00327033 0.107992 -0.0135577 0 0 0 0.0647936 -0.0130689 0.448267 0 -0.000164368 0 0 0 0 0 0 0 0 0 0 0 0 0 0 0 0 0 52 0.002 
1215 2 0.0151471 0.0944947 -0.00992921 0 0 0 2.07658 0.598257 4.88406 0 -0.000164368 0 0 0 0 0 0 0 0 0 0 0 0 0 0 0 0 0 12 0.002 
1227 5 0.00442674 0.0963482 -0.0124423 0 0 0 0.43008 -0.51619 -0.113856 0 -0.000164368 0 0 0 0 0 0 0 0 0 0 0 0 0 0 0 0 0 14 0.002 
1431 6 0.00702533 0.107567 0.00992321 0 0 0 -0.00771891 -0.0447277 0.207111 -2.45055e-06 -4.31104e-05 -0.000143726 0 0 0 0 0 1 0 0 0 0 0 0 0 0 0 0 5 0.002 
1149 4 0.00884522 0.102969 -0.00866619 0 0 0 -0.0483099 0.0945456 -0.309296 0 -0.000164368 0 0 0 0 0 0 0 0 0 0 0 0 0 0 0 0 0 14 0.002 
432 4 0.00482656 0.104515 -0.00907799 0 0 0 0.721563 -0.111072 0.73893 0.0193657 -0.0242181 0.0101826 0 0 0 1 0 0 0 0 0 0 0 0 0 0 0 0 68 0.002 
1163 5 0.0179117 0.10292 -0.00993926 0 0 0 1.19763 -0.556462 0.95207 0 -0.000164368 0 0 0 0 0 0 0 0 0 0 0 0 0 0 0 0 0 40 0.002 
983 5 0.00303637 0.108017 -0.00868907 0 0 0 -0.521868 -0.111631 -0.396974 -0.0162639 0.000868673 -0.0157871 0 0 0 1 0 0 0 0 0 0 0 0 0 0 0 0 43 0.002 
1527 5 0.00933521 0.10704 -0.00911494 0 0 0 0.472911 -0.263575 0.312153 0 -0.000164368 0 0 0 0 0 0 0 0 0 0 0 0 0 0 0 0 0 1 0.002 
1488 6 0.0146144 0.107417 -0.00967975 0 0 0 -0.869159 -0.217624 0.94776 0 -0.000164368 0 0 0 0 0 0 0 0 0 0 0 0 0 0 0 0 0 1 0.002 
891 2 0.00375875 0.078685 -0.00783583 0 0 0 -2.42492 -2.19794 -1.91813 0 -0.000164368 0 0 0 0 0 0 0 0 0 0 0 0 0 0 0 0 0 45 0.002 
1241 2 0.00663601 0.0933349 -0.0073508 0 0 0 -0.273599 0.382455 0.540485 0 -0.000164368 0 0 0 0 0 0 0 0 0 0 0 0 0 0 0 0 0 1 0.002 
1278 9 0.00576511 0.0980522 -0.00767807 0 0 0 -0.11054 0.213866 -0.908153 0 -0.000164368 0 0 0 0 0 0 0 0 0 0 0 0 0 0 0 0 0 33 0.002 
508 9 0.0141789 0.0904473 -0.00359799 0 0 0 -1.26197 -0.939125 0.710786 0 -0.000164368 0 0 0 0 0 0 0 0 0 0 0 0 0 0 0 0 0 89 0.002 
58 1 0.0115001 0.100871 -0.00600858 0 0 0 0.195046 0.188736 -0.177911 0 -0.000164368 0 0 0 0 0 0 0 0 0 0 0 0 0 0 0 0 0 63 0.002 
1180 3 0.00419169 0.102847 -0.00493369 0 0 0 -0.164699 -0.00298848 0.460816 0 -0.000164368 0 0 0 0 0 0 0 0 0 0 0 0 0 0 0 0 0 38 0.002 
231 7 0.0170548 0.101697 -0.00501998 0 0 0 0.179997 0.0947063 -0.140119 0 -0.000164368 0 0 0 0 0 0 0 0 0 0 0 0 0 0 0 0 0 65 0.002 
468 8 0.0162787 0.107062 -0.00517364 0 0 0 0.201947 -0.552246 -0.0553881 0 -0.000164368 0 0 0 0 0 0 0 0 0 0 0 0 0 0 0 0 0 70 0.002 
471 5 0.008165 0.107935 -0.00523003 0 0 0 -0.0943846 0.0780429 0.247041 0.000706565 -0.00172501 0.00116178 0 0 0 0 1 0 0 0 0 0 0 0 0 0 0 0 73 0.002 
597 6 0.00749881 0.0829109 -0.00281992 0 0 0 -1.38391 -1.2961 1.67391 0 -0.000164368 0 0 0 0 0 0 0 0 0 0 0 0 0 0 0 0 0 80 0.002 
1542 1 0.00461693 0.0875663 -0.00192172 0 0 0 0.428536 -0.141371 0.890006 0 -0.000164368 0 0 0 0 0 0 0 0 0 0 0 0 0 0 0 0 0 1 0.002 
375 4 0.00405428 0.0983246 -0.00356531 0 0 0 -0.474153 0.521486 -0.603902 0 -0.000164368 0 0 0 0 0 0 0 0 0 0 0 0 0 0 0 0 0 60 0.002 
674 10 0.0143849 0.0990429 -0.00319295 0 0 0 0.364261 -0.277252 -0.402173 0 -0.000164368 0 0 0 0 0 0 0 0 0 0 0 0 0 0 0 0 0 55 0.002 
928 2 0.00805076 0.104202 -0.00380489 0 0 0 0.0209544 -0.129757 -0.0549287 -0.000706565 0.00139627 -0.00116178 0 0 0 0 1 0 0 0 0 0 0 0 0 0 0 0 64 0.002 
213 4 0.00437565 0.107446 -0.0036685 0 0 0 -0.00123672 -0.133872 0.252525 0 -0.000164368 0 0 0 0 0 0 0 0 0 0 0 0 0 0 0 0 0 73 0.002 
598 1 0.0126887 0.107516 -0.00287309 0 0 0 0.261291 -0.0255619 0.260543 0 -0.000164368 0 0 0 0 0 0 0 0 0 0 0 0 0 0 0 0 0 75 0.002 
510 9 0.00872094 0.0781042 -0.00165331 0 0 0 -2.31281 8.40592 -0.45224 -1.90303 2.49358 0.0391958 0 0 0 0 0 0 0 0 1 0 0 0 0 0 0 0 122 0.002 
1370 6 0.0109453 0.10211 0.000441667 0 0 0 0.233908 -0.0459982 0.302862 0 -0.000164368 0 0 0 0 0 0 0 0 0 0 0 0 0 0 0 0 0 12 0.002 
512 7 0.00314483 0.104153 -0.000975877 0 0 0 0.0905077 0.060278 0.45471 0 -0.000164368 0 0 0 0 0 0 0 0 0 0 0 0 0 0 0 0 0 45 0.002 
1016 8 0.00300207 0.107949 0.000377355 0 0 0 0.0103165 0.156891 0.354191 0 -0.000164368 0 0 0 0 0 0 0 0 0 0 0 0 0 0 0 0 0 43 0.002 
1011 6 0.00821182 0.107825 -0.00116981 0 0 0 0.19743 -0.0444638 0.313653 0 -0.000164368 0 0 0 0 0 0 0 0 0 0 0 0 0 0 0 0 0 33 0.002 
587 1 0.00865275 0.0965093 0.00187431 0 0 0 -0.0191367 -0.348305 0.0133002 0 -0.000164368 0 0 0 0 0 0 0 0 0 0 0 0 0 0 0 0 0 9 0.002 
1398 5 0.0036272 0.100628 0.00122503 0 0 0 -0.515768 -0.334157 0.522494 0 -0.000164368 0 0 0 0 0 0 0 0 0 0 0 0 0 0 0 0 0 12 0.002 
218 4 0.00339253 0.104363 0.00331672 0 0 0 0.284514 -0.216932 0.585926 0 -0.000164368 0 0 0 0 0 0 0 0 0 0 0 0 0 0 0 0 0 41 0.002 
116 1 0.00759989 0.1039 0.00302944 0 0 0 0.0551022 -0.0355726 0.253333 0 -0.000164368 0 0 0 0 0 0 0 0 0 0 0 0 0 0 0 0 0 63 0.002 
1517 5 0.0108636 0.106128 0.00131952 0 0 0 0.235062 -0.0505839 0.307934 0 -0.000164368 0 0 0 0 0 0 0 0 0 0 0 0 0 0 0 0 0 0 0.002 
704 9 0.0148093 0.107039 0.00152192 0 0 0 0.142731 -0.0685502 0.111885 0 -0.000164368 0 0 0 0 0 0 0 0 0 0 0 0 0 0 0 0 0 57 0.002 
1247 3 0.00686549 0.107862 0.0026653 0 0 0 -0.00281681 -0.00102122 0.314769 0 -0.000164368 0 0 0 0 0 0 0 0 0 0 0 0 0 0 0 0 0 33 0.002 
739 2 0.00833165 0.0896996 0.00346201 0 0 0 0.259532 -0.325588 -0.390684 0 -0.000164368 0 0 0 0 0 0 0 0 0 0 0 0 0 0 0 0 0 66 0.002 
968 2 0.00467113 0.092164 0.00382815 0 0 0 -0.180815 -0.244742 0.314475 0 -0.000164368 0 0 0 0 0 0 0 0 0 0 0 0 0 0 0 0 0 32 0.002 
511 2 0.012999 0.0912441 0.00416783 0 0 0 -0.889961 -0.634302 1.79165 0 -0.000164368 0 0 0 0 0 0 0 0 0 0 0 0 0 0 0 0 0 48 0.002 
1265 1 0.00480787 0.0963505 0.00362541 0 0 0 0.617857 -0.105301 0.158101 0 -0.000164368 0 0 0 0 0 0 0 0 0 0 0 0 0 0 0 0 0 14 0.002 
29 5 0.0150874 0.100434 0.00404768 0 0 0 0.706342 0.880052 0.158648 0.0405267 -0.128246 -0.00521063 0 0 0 0 1 0 0 0 0 0 0 0 0 0 0 0 74 0.002 
137 1 0.0138504 0.104151 0.0041599 0 0 0 -0.0929464 0.526239 0.108347 -0.0405267 0.127917 0.00521063 0 0 0 0 1 0 0 0 0 0 0 0 0 0 0 0 46 0.002 
289 3 0.00302511 0.107959 0.00517492 0 0 0 0.0572364 -0.0874398 0.572312 0 -0.000164368 0 0 0 0 0 0 0 0 0 0 0 0 0 0 0 0 0 52 0.002 
1133 6 0.0120074 0.107948 0.00476629 0 0 0 0.155345 -0.0252182 0.358101 0 -0.000164368 0 0 0 0 0 0 0 0 0 0 0 0 0 0 0 0 0 34 0.002 
1329 3 0.0166159 0.0782977 0.00586125 0 0 0 -1.9836 1.53442 -0.349008 -0.0899293 0.126761 0.0837967 0 0 1 0 0 0 0 0 0 0 0 0 0 0 0 0 14 0.002 
1006 1 0.00347384 0.0866822 0.00629288 0 0 0 0.134958 -0.170052 -0.0373937 0 -0.000164368 0 0 0 0 0 0 0 0 0 0 0 0 0 0 0 0 0 35 0.002 
1404 1 0.00602527 0.095673 0.00738232 0 0 0 0.102339 -0.193114 0.431213 -0.00971236 0.000513556 -0.0214466 2 0 0 0 0 0 0 0 0 0 0 0 0 0 0 0 3 0.002 
399 3 0.00302533 0.100225 0.00574943 0 0 0 0.0114728 -0.407795 0.632468 0 -0.000164368 0 0 0 0 0 0 0 0 0 0 0 0 0 0 0 0 0 65 0.002 
987 4 0.0113669 0.0991819 0.00711674 0 0 0 -0.282408 0.282222 0.00564896 0 -0.000164368 0 0 0 0 0 0 0 0 0 0 0 0 0 0 0 0 0 33 0.002 
69 6 0.00818978 0.101966 0.00697602 0 0 0 0.0937607 -0.179015 0.187343 0 -0.000164368 0 0 0 0 0 0 0 0 0 0 0 0 0 0 0 0 0 47 0.002 
1427 4 0.00309964 0.103905 0.00746341 0 0 0 -0.0123692 -0.159121 0.293869 0 -0.000164368 0 0 0 0 0 0 0 0 0 0 0 0 0 0 0 0 0 5 0.002 
467 1 0.0108776 0.104851 0.00766899 0 0 0 0.115363 -0.147978 0.142978 0 -0.000164368 0 0 0 0 0 0 0 0 0 0 0 0 0 0 0 0 0 61 0.002 
1260 6 0.0063913 0.105911 0.00633401 0 0 0 -0.0465846 -0.0926032 0.240191 0 -0.000164368 0 0 0 0 0 0 0 0 0 0 0 0 0 0 0 0 0 16 0.002 
1023 1 0.0153258 0.107798 0.00703075 0 0 0 0.207336 0.0313943 0.280721 0 -0.000164368 0 0 0 0 0 0 0 0 0 0 0 0 0 0 0 0 0 61 0.002 
1259 7 0.00585074 0.077812 0.00815139 0 0 0 0.470191 -0.451107 -0.0781202 0 -0.000164368 0 0 0 0 0 0 0 0 0 0 0 0 0 0 0 0 0 27 0.002 
979 4 0.0142209 0.0814506 0.00874442 0 0 0 0.0706039 0.216127 -0.385986 0 -0.000164368 0 0 0 0 0 0 0 0 0 0 0 0 0 0 0 0 0 47 0.002 
793 3 0.00398082 0.0821456 0.00823855 0 0 0 0.936583 0.147198 0.638346 0 -0.000164368 0 0 0 0 0 0 0 0 0 0 0 0 0 0 0 0 0 6 0.002 
230 6 0.00719574 0.0864728 0.00824265 0 0 0 0.294948 -0.0611545 0.212439 0 -0.000164368 0 0 0 0 0 0 0 0 0 0 0 0 0 0 0 0 0 69 0.002 
407 4 0.0157929 0.104487 0.00955576 0 0 0 0.0946372 -0.167679 0.229194 0 -0.000164368 0 0 0 0 0 0 0 0 0 0 0 0 0 0 0 0 0 52 0.002 
911 6 0.00494425 0.0897453 0.00936259 0 0 0 0.0398474 -0.0526506 0.0625086 1.86409e-05 -0.000240188 -0.000340024 0 0 0 0 0 1 0 0 0 0 0 0 0 0 0 0 47 0.002 
632 6 0.00328451 0.0934081 0.00918618 0 0 0 -0.11739 -0.124731 0.0627688 -0.00211127 -0.00747288 0.00527792 1 0 0 0 0 1 0 0 0 0 0 0 0 0 0 0 73 0.002 
1237 4 0.0178571 0.0920525 0.00911614 0 0 0 1.20916 -0.474985 1.26151 -0.170311 0.112982 -0.0713873 0 0 0 1 0 0 0 0 0 0 0 0 0 0 0 0 39 0.002 
1366 7 0.0124414 0.094605 0.00936848 0 0 0 -0.155326 -0.0456498 0.0370637 0 -0.000164368 0 0 0 0 0 0 0 0 0 0 0 0 0 0 0 0 0 24 0.002 
955 2 0.00809397 0.0983771 0.00944621 0 0 0 -0.0144283 -0.0887105 0.287802 0.0141232 0.00533548 0.0120961 1 0 0 0 0 0 0 0 0 0 0 0 0 0 0 0 39 0.002 
956 1 0.0149329 0.10066 0.00853021 0 0 0 0.0142732 -0.173318 0.129075 0 -0.000164368 0 0 0 0 0 0 0 0 0 0 0 0 0 0 0 0 0 25 0.002 
622 4 0.010677 0.0754853 -0.00212803 0 0 0 -2.16028 12.0368 -27.3851 1.90303 -2.49391 -0.0391958 0 0 0 0 0 0 0 0 1 0 0 0 0 0 0 0 23 0.002 
947 4 0.00299994 0.0812028 0.0123048 0 0 0 -0.492195 -0.246336 0.816207 0.0137424 0.00325566 -0.0432232 0 0 0 0 0 0 0 0 0 0 0 0 0 0 0 0 37 0.002 
559 5 0.00305086 0.0863755 0.0104885 0 0 0 0.0673184 0.107401 -0.113706 -0.00155783 -0.00146274 -0.00177284 0 0 0 0 1 0 0 0 0 0 0 0 0 0 0 0 22 0.002 
1073 6 0.011564 0.0841619 0.0117357 0 0 0 0.126335 -0.640418 0.117628 -0.00272738 -0.0323093 0.0176417 0 0 0 0 0 1 0 0 0 0 0 0 0 0 0 0 53 0.002 
1384 8 0.00718672 0.0874712 0.0121764 0 0 0 -0.348006 -0.160799 0.244829 0 -0.000164368 0 0 0 0 0 0 0 0 0 0 0 0 0 0 0 0 0 23 0.002 
229 6 0.0164884 0.0940744 0.0123847 0 0 0 -0.0969971 0.730492 0.98398 0 -0.000164368 0 0 0 0 0 0 0 0 0 0 0 0 0 0 0 0 0 71 0.002 
12 9 0.00419506 0.0970794 0.0111013 0 0 0 0.136487 0.0116562 -0.0215759 -5.67483e-05 0.000181885 -0.00015451 0 0 0 0 0 0 0 0 1 0 0 0 0 0 0 0 64 0.002 
273 3 0.014531 0.0978149 0.0113392 0 0 0 0.0789809 -0.186869 0.149802 0 -0.000164368 0 0 0 0 0 0 0 0 0 0 0 0 0 0 0 0 0 48 0.002 
491 2 0.0114315 0.101973 0.0106418 0 0 0 0.0384692 -0.0669388 0.129113 0 -0.000164368 0 0 0 0 0 0 0 0 0 0 0 0 0 0 0 0 0 63 0.002 
410 6 0.0171523 0.101487 0.0121063 0 0 0 0.0253168 -0.151761 0.23993 0 -0.000164368 0 0 0 0 0 0 0 0 0 0 0 0 0 0 0 0 0 63 0.002 
1482 1 0.00314011 0.103964 0.0118942 0 0 0 -0.0369674 0.0395337 0.203958 0 -0.000164368 0 0 0 0 0 0 0 0 0 0 0 0 0 0 0 0 0 4 0.002 
692 7 0.00838174 0.104343 0.0118583 0 0 0 0.0948728 -0.0713343 0.117733 2.45055e-06 -0.000285626 0.000143726 0 0 0 0 0 0 1 0 0 0 0 0 0 0 0 0 63 0.002 
258 6 0.0121441 0.107322 0.010654 0 0 0 0.0446805 -0.0999256 0.184949 0 -0.000164368 0 0 0 0 0 0 0 0 0 0 0 0 0 0 0 0 0 46 0.002 
299 1 0.016824 0.107922 0.0114416 0 0 0 -0.0273767 -0.0673826 0.188392 0.000133712 -0.000236966 0.000408571 0 0 0 0 0 0 0 0 0 0 0 0 0 0 0 0 58 0.002 
992 6 0.0041039 0.0774548 0.0137318 0 0 0 0.0259271 -0.80808 0.43483 0 -0.000164368 0 0 0 0 0 0 0 0 0 0 0 0 0 0 0 0 0 26 0.002 
360 2 0.00788416 0.0785478 0.0123942 0 0 0 -0.0258358 -0.210951 -0.279974 0 -0.000164368 0 0 0 0 0 0 0 0 0 0 0 0 0 0 0 0 0 44 0.002 
991 8 0.00299298 0.0846786 0.0144593 0 0 0 -0.0478312 -0.378952 0.00828842 0.0131113 0.00533031 0.00318962 0 0 0 0 0 0 0 1 0 0 0 0 0 0 0 0 36 0.002 
1423 7 0.0123208 0.0888125 0.0138786 0 0 0 0.212582 -0.102065 0.426681 0 -0.000164368 0 0 0 0 0 0 0 0 0 0 0 0 0 0 0 0 0 3 0.002 
228 11 0.0174741 0.0880506 0.0140736 0 0 0 0.0532388 -0.256857 0.035088 0 -0.000164368 0 0 0 0 0 0 0 0 0 0 0 0 0 0 0 0 0 20 0.002 
1478 2 0.00301358 0.089077 0.0134357 0 0 0 0.0198058 -0.18688 0.0741368 0.0016697 0.00146446 0.00231876 0 0 0 0 1 0 0 0 0 0 0 0 0 0 0 0 6 0.002 
337 8 0.00625005 0.09149 0.012713 0 0 0 0.00437579 0.0456969 0.0508646 -1.86409e-05 -8.85481e-05 0.000340024 0 0 0 0 0 0 0 1 0 0 0 0 0 0 0 0 57 0.002 
1279 4 0.0107559 0.0934896 0.0129832 0 0 0 -0.049429 -0.192164 0.175239 0 -0.000164368 0 0 0 0 0 0 0 0 0 0 0 0 0 0 0 0 0 25 0.002 
663 7 0.00304312 0.0938469 0.0131475 0 0 0 -0.0107871 0.045089 0.0255844 -0.00199604 0.00125099 0.00125919 0 0 0 0 0 0 2 0 1 0 0 0 0 0 0 0 55 0.002 
949 3 0.0075174 0.096787 0.0144911 0 0 0 0.0475184 -0.0705388 0.13285 0 -0.000164368 0 0 0 0 0 0 0 0 0 0 0 0 0 0 0 0 0 36 0.002 
717 2 0.0107074 0.0981957 0.0125095 0 0 0 0.072265 -0.0569438 0.11354 -0.000108156 1.51387e-05 -0.00126359 0 1 0 0 0 0 0 0 0 0 0 0 0 0 0 0 63 0.002 
557 5 0.0031539 0.100054 0.0136738 0 0 0 -0.0226162 -0.0713404 0.054775 0 -0.000164368 0 0 0 0 0 0 0 0 0 0 0 0 0 0 0 0 0 58 0.002 
980 2 0.00712493 0.100657 0.0134957 0 0 0 -0.0177361 -0.032574 0.229639 0 -0.000164368 0 0 0 0 0 0 0 0 0 0 0 0 0 0 0 0 0 34 0.002 