ITEM: TIMESTEP
4450000
ITEM: NUMBER OF ATOMS
539
ITEM: BOX BOUNDS ff ff ff
-0.01 0.45
-0.15 0.15
-0.08 0.1
ITEM: ATOMS id type x y z ix iy iz vx vy vz fx fy fz c_cc_1 c_cc_2 c_cc_3 c_cc_4 c_cc_5 c_cc_6 c_cc_7 c_cc_8 c_cc_9 c_cc_10 c_cc_11 c_cc_12 c_cc_13 c_cc_14 c_cc_15 c_cc_16 f_fppacc radius 
369 6 0.0132406 -0.053428 -0.0221675 0 0 0 -0.252122 -5.04992 14.8613 -0.00199673 0.246181 0.0991404 0 0 0 0 0 0 0 0 0 0 0 0 0 0 0 0 5 0.002 
240 1 0.0133298 -0.0573536 0.00608435 0 0 0 0.720674 0.360572 6.91177 0 -0.000164368 0 0 0 0 0 0 0 0 0 0 0 0 0 0 0 0 0 2 0.002 
139 6 0.00465246 -0.0553658 0.0163207 0 0 0 0.716608 2.07735 8.65222 0 -0.000164368 0 0 0 0 0 0 0 0 0 0 0 0 0 0 0 0 0 6 0.002 
299 1 0.00389613 -0.0506521 0.0225732 0 0 0 0.202347 0.571109 4.04746 0 -0.000164368 0 0 0 0 0 0 0 0 0 0 0 0 0 0 0 0 0 1 0.002 
26 9 0.00701704 -0.0279524 -0.0481322 0 0 0 0.825389 -21.7129 7.14412 0 -0.000164368 0 0 0 0 0 0 0 0 0 0 0 0 0 0 0 0 0 3 0.002 
104 1 0.00965877 -0.0128695 0.0535376 0 0 0 -4.83752 12.2158 10.1715 0 -0.000164368 0 0 0 0 0 0 0 0 0 0 0 0 0 0 0 0 0 3 0.002 
269 2 0.018121 -0.0135033 0.0561131 0 0 0 -4.19881 14.0848 3.25185 0 -0.000164368 0 0 0 0 0 0 0 0 0 0 0 0 0 0 0 0 0 1 0.002 
291 1 0.0135235 0.0241481 0.0259203 0 0 0 0.448808 -2.02975 0.0972395 0 -0.000164368 0 0 0 0 0 0 0 0 0 0 0 0 0 0 0 0 0 5 0.002 
545 9 0.00738823 0.0131402 0.0563783 0 0 0 8.0946 37.5343 -6.48568 0.510996 -0.247287 -0.994664 0 0 0 0 0 0 0 0 0 0 0 0 0 0 0 0 0 0.002 
41 1 0.0151326 0.0528516 -0.0355 0 0 0 0 1.01428e-19 -6.16522e-12 0 0 0 0 0 0 0 0 0 0 0 0 0 0 0 0 0 0 0 1 0.002 
410 6 0.0145597 0.0682954 -0.0200276 0 0 0 1.08555 -1.41024 2.88556 0 -0.000164368 0 0 0 0 0 0 0 0 0 0 0 0 0 0 0 0 0 2 0.002 
87 8 0.00362863 0.0623705 -0.0184082 0 0 0 0.921831 -1.0459 1.11923 0 -0.000164368 0 0 0 0 0 0 0 0 0 0 0 0 0 0 0 0 0 4 0.002 
546 1 0.00356294 0.0572457 -0.00641341 0 0 0 0.999752 2.11808 -4.98964 0 -0.000164368 0 0 0 0 0 0 0 0 0 0 0 0 0 0 0 0 0 0 0.002 
9 6 0.00355268 0.0738969 -0.00488349 0 0 0 -1.13711 1.19317 -3.14994 0 -0.000164368 0 0 0 0 0 0 0 0 0 0 0 0 0 0 0 0 0 7 0.002 
6 3 0.00376356 0.0665556 0.00242115 0 0 0 0.602284 -0.750261 2.32582 0 -0.000164368 0 0 0 0 0 0 0 0 0 0 0 0 0 0 0 0 0 3 0.002 
438 2 0.0161205 0.0699926 0.00946404 0 0 0 2.8663 0.448311 0.882213 0 -0.000164368 0 0 0 0 0 0 0 0 0 0 0 0 0 0 0 0 0 4 0.002 
118 2 0.0109789 0.0727133 0.0104047 0 0 0 -0.919063 -0.113941 0.0894216 0 -0.000164368 0 0 0 0 0 0 0 0 0 0 0 0 0 0 0 0 0 2 0.002 
133 1 0.00501931 0.0631844 0.0150303 0 0 0 -3.82289 11.7114 -0.98966 0 -0.000164368 0 0 0 0 0 0 0 0 0 0 0 0 0 0 0 0 0 6 0.002 
525 1 0.00422885 0.040705 0.041116 0 0 0 1.81403 9.69873 -12.639 -0.00135671 0.0723932 0.0367094 0 0 0 0 0 0 0 0 0 0 0 0 0 0 0 0 0 0.002 
492 4 0.00310872 0.0580873 0.0182232 0 0 0 -2.15442 1.28994 -2.25652 0 -0.000164368 0 0 0 0 0 0 0 0 0 0 0 0 0 0 0 0 0 0 0.002 
370 4 0.0172181 0.0641669 0.0171832 0 0 0 0.278105 -0.631593 -1.23601 0 -0.000164368 0 0 0 0 0 0 0 0 0 0 0 0 0 0 0 0 0 5 0.002 
244 1 0.0183029 0.0683096 0.0179922 0 0 0 1.02783 -0.510125 -0.347122 0 -0.000164368 0 0 0 0 0 0 0 0 0 0 0 0 0 0 0 0 0 0 0.002 
426 3 0.00838312 0.066332 0.0204111 0 0 0 -0.918026 -0.64003 -0.131725 0 -0.000164368 0 0 0 0 0 0 0 0 0 0 0 0 0 0 0 0 0 3 0.002 
125 10 0.00680189 0.0748331 0.0229424 0 0 0 -0.414335 0.534515 -0.642398 0 -0.000164368 0 0 0 0 0 0 0 0 0 0 0 0 0 0 0 0 0 8 0.002 
62 2 0.0066228 0.0594317 0.0109374 0 0 0 -1.23329 6.22803 -32.9672 0 -0.000164368 0 0 0 0 0 0 0 0 0 0 0 0 0 0 0 0 0 4 0.002 
510 9 0.0110632 0.0660132 0.0271997 0 0 0 -0.12593 -0.848284 0.460579 0 -0.000164368 0 0 0 0 0 0 0 0 0 0 0 0 0 0 0 0 0 1 0.002 
237 10 0.00817353 0.0716771 0.0295511 0 0 0 0.714598 1.12617 0.474168 0 -0.000164368 0 0 0 0 0 0 0 0 0 0 0 0 0 0 0 0 0 5 0.002 
144 9 0.0028654 0.0538703 0.0288837 0 0 0 -4.35985 4.94937 -5.01453 1.61951 0.567542 -0.57742 0 0 0 0 0 0 0 0 0 0 0 0 0 0 0 0 4 0.002 
188 6 0.00383369 0.0658583 0.0321525 0 0 0 -0.0081665 -0.280982 0.562303 0 -0.000164368 0 0 0 0 0 0 0 0 0 0 0 0 0 0 0 0 0 7 0.002 
179 1 0.0034614 0.0697875 0.0313999 0 0 0 0.0112994 -0.113421 0.240658 0 -0.000164368 0 0 0 0 0 0 0 0 0 0 0 0 0 0 0 0 0 5 0.002 
253 2 0.0029591 0.0557873 0.0328835 0 0 0 1.2702 1.09111 0.421365 -0.0539431 0.0473472 0.0383577 0 0 0 0 0 0 0 0 0 0 0 0 0 0 0 0 3 0.002 
391 4 0.0118237 0.0602089 0.0327161 0 0 0 0.991347 -0.776361 -0.0337209 0 -0.000164368 0 0 0 0 0 0 0 0 0 0 0 0 0 0 0 0 0 6 0.002 
173 3 0.00735931 0.069712 0.0329574 0 0 0 0.13137 0.00640444 -0.0800879 0 -0.000164368 0 0 0 0 0 0 0 0 0 0 0 0 0 0 0 0 0 3 0.002 
377 4 0.00300843 0.0748011 0.0329686 0 0 0 0.0433463 -0.191817 -0.0698576 0 -0.000164368 0 0 0 0 0 0 0 0 0 0 0 0 0 0 0 0 0 5 0.002 
257 6 0.00755489 0.047512 0.0328728 0 0 0 -4.58328 8.8452 -10.9487 0 -0.000164368 0 0 0 0 0 0 0 0 0 0 0 0 0 0 0 0 0 2 0.002 
537 1 0.00989867 0.0800454 -0.0315551 0 0 0 -1.40909 -1.32045 2.73141 0 -0.000164368 0 0 0 0 0 0 0 0 0 0 0 0 0 0 0 0 0 0 0.002 
236 3 0.00896302 0.0847745 -0.0306866 0 0 0 -1.27673 -0.47887 2.74502 0 -0.000164368 0 0 0 0 0 0 0 0 0 0 0 0 0 0 0 0 0 1 0.002 
95 5 0.00580056 0.102784 -0.0326512 0 0 0 0.886977 0.292237 0.252014 0 -0.000164368 0 0 0 0 0 0 0 0 0 0 0 0 0 0 0 0 0 6 0.002 
532 8 0.00475302 0.106538 -0.0315181 0 0 0 0.120831 -0.243322 0.188012 0 -0.000164368 0 0 0 0 0 0 0 0 0 0 0 0 0 0 0 0 0 0 0.002 
528 6 0.0167394 0.105119 -0.0307663 0 0 0 1.5165 6.59582 -0.961421 0 -0.000164368 0 0 0 0 0 0 0 0 0 0 0 0 0 0 0 0 0 0 0.002 
314 6 0.0050711 0.0898732 -0.0269045 0 0 0 0.627601 -0.612926 0.175158 0 -0.000164368 0 0 0 0 0 0 0 0 0 0 0 0 0 0 0 0 0 1 0.002 
338 6 0.00406519 0.093339 -0.0247605 0 0 0 -0.731245 -1.24673 1.42685 0 -0.000164368 0 0 0 0 0 0 0 0 0 0 0 0 0 0 0 0 0 0 0.002 
521 6 0.00405918 0.0770073 -0.0229616 0 0 0 -1.18986 -0.00794472 -0.946641 0 -0.000164368 0 0 0 0 0 0 0 0 0 0 0 0 0 0 0 0 0 0 0.002 
34 3 0.0121945 0.104837 -0.0228391 0 0 0 1.9921 0.943637 -0.732152 0 -0.000164368 0 0 0 0 0 0 0 0 0 0 0 0 0 0 0 0 0 4 0.002 
176 2 0.00350188 0.0988074 -0.0221012 0 0 0 0.686521 2.48337 -0.549103 0 -0.000164368 0 0 0 0 0 0 0 0 0 0 0 0 0 0 0 0 0 2 0.002 
164 4 0.0109113 0.101907 -0.0196572 0 0 0 -0.418 1.94354 2.66125 0 -0.000164368 0 0 0 0 0 0 0 0 0 0 0 0 0 0 0 0 0 2 0.002 
45 4 0.0179124 0.0905083 -0.0173027 0 0 0 1.33383 -2.23472 0.568889 0 -0.000164368 0 0 0 0 0 0 0 0 0 0 0 0 0 0 0 0 0 3 0.002 
342 4 0.0127977 0.0949496 -0.0139701 0 0 0 0.873793 -1.76752 0.86867 0 -0.000164368 0 0 0 0 0 0 0 0 0 0 0 0 0 0 0 0 0 4 0.002 
2 6 0.017056 0.0930447 -0.0134084 0 0 0 1.60261 -1.74373 0.603227 0 -0.000164368 0 0 0 0 0 0 0 0 0 0 0 0 0 0 0 0 0 1 0.002 
303 3 0.00400565 0.103723 -0.0124121 0 0 0 0.708432 2.50064 0.96597 0 -0.000164368 0 0 0 0 0 0 0 0 0 0 0 0 0 0 0 0 0 3 0.002 
172 5 0.0072519 0.084598 -0.00856193 0 0 0 0.452965 -0.281751 1.15821 0 -0.000164368 0 0 0 0 0 0 0 0 0 0 0 0 0 0 0 0 0 5 0.002 
213 4 0.00610335 0.106549 -0.00871236 0 0 0 0.803533 -0.631796 1.04347 0 -0.000164368 0 0 0 0 0 0 0 0 0 0 0 0 0 0 0 0 0 2 0.002 
539 8 0.0159061 0.0863983 -0.00725423 0 0 0 -0.568639 -0.853548 -0.0893584 0 -0.000164368 0 0 0 0 0 0 0 0 0 0 0 0 0 0 0 0 0 0 0.002 
321 7 0.00343714 0.107973 -0.00498775 0 0 0 0.162716 0.320965 1.4974 0 -0.000164368 0 0 0 0 0 0 0 0 0 0 0 0 0 0 0 0 0 1 0.002 
411 1 0.0159567 0.0789931 -0.00148609 0 0 0 -0.784634 -1.54593 0.235728 0 -0.000164368 0 0 0 0 0 0 0 0 0 0 0 0 0 0 0 0 0 2 0.002 
260 1 0.0121227 0.0817114 -0.00259644 0 0 0 0.805726 -1.49784 1.89069 0 -0.000164368 0 0 0 0 0 0 0 0 0 0 0 0 0 0 0 0 0 11 0.002 
434 14 0.00297552 0.101479 -0.00302267 0 0 0 -0.131626 -0.535709 1.09136 0.0765096 0.0320827 -0.0205805 0 0 0 0 0 0 0 0 0 0 0 0 0 0 0 0 0 0.002 
502 6 0.0136706 0.104927 -0.00280304 0 0 0 0.349205 -0.711403 0.714604 0 -0.000164368 0 0 0 0 0 0 0 0 0 0 0 0 0 0 0 0 0 1 0.002 
288 1 0.00299108 0.097859 -0.000272919 0 0 0 0.536188 0.666179 -1.40227 -0.0396544 0.00261583 -0.0020313 0 0 0 0 0 0 0 0 0 0 0 0 0 0 0 0 2 0.002 
199 4 0.00318438 0.107431 0.001594 0 0 0 0.0738973 0.0110809 1.93996 0 -0.000164368 0 0 0 0 0 0 0 0 0 0 0 0 0 0 0 0 0 7 0.002 
229 6 0.00804956 0.101856 0.0019213 0 0 0 -0.268716 -0.384328 2.14323 0 -0.000164368 0 0 0 0 0 0 0 0 0 0 0 0 0 0 0 0 0 5 0.002 
357 7 0.00572755 0.0784984 0.00445221 0 0 0 0.565651 -0.851318 0.379496 0 -0.000164368 0 0 0 0 0 0 0 0 0 0 0 0 0 0 0 0 0 2 0.002 
540 4 0.0135929 0.0946918 0.00392446 0 0 0 0.0405115 -0.796539 1.06058 0 -0.000164368 0 0 0 0 0 0 0 0 0 0 0 0 0 0 0 0 0 0 0.002 
414 7 0.00962817 0.107522 0.00638136 0 0 0 0.443521 -0.0904961 2.56848 0 -0.000164368 0 0 0 0 0 0 0 0 0 0 0 0 0 0 0 0 0 1 0.002 
183 9 0.014133 0.0856053 0.00695981 0 0 0 -0.660444 -0.956713 1.37199 0 -0.000164368 0 0 0 0 0 0 0 0 0 0 0 0 0 0 0 0 0 7 0.002 
74 5 0.00951122 0.0840444 0.0096178 0 0 0 0.176094 -0.753719 0.0864585 0 -0.000164368 0 0 0 0 0 0 0 0 0 0 0 0 0 0 0 0 0 2 0.002 
533 4 0.00388293 0.0909342 0.0117003 0 0 0 0.0988809 -0.367999 0.113002 0 -0.000164368 0 0 0 0 0 0 0 0 0 0 0 0 0 0 0 0 0 0 0.002 
92 2 0.00752073 0.0766244 0.0136148 0 0 0 -1.80416 -0.751535 -1.20352 0.207533 0.189928 -0.186974 0 0 0 0 0 0 0 0 0 0 0 0 0 0 0 0 2 0.002 
250 5 0.013673 0.083003 0.0141902 0 0 0 -0.226053 -1.28084 -0.283532 0 -0.000164368 0 0 0 0 0 0 0 0 0 0 0 0 0 0 0 0 0 11 0.002 
254 10 0.00899009 0.107906 0.0329239 0 0 0 0.0346557 -0.0456861 -0.0224124 0 -0.000164368 0 0 0 0 0 0 0 0 0 0 0 0 0 0 0 0 0 8 0.002 
481 2 0.00432628 0.0760319 0.0157552 0 0 0 0.305633 0.136477 -0.162338 -0.207533 -0.190257 0.186974 0 0 0 0 0 0 0 0 0 0 0 0 0 0 0 0 0 0.002 
332 2 0.0063296 0.0967791 0.0167028 0 0 0 2.01874 0.614493 3.60684 0 -0.000164368 0 0 0 0 0 0 0 0 0 0 0 0 0 0 0 0 0 8 0.002 
444 3 0.00734399 0.0782263 0.0175991 0 0 0 -0.597336 1.1589 0.0688305 0 -0.000164368 0 0 0 0 0 0 0 0 0 0 0 0 0 0 0 0 0 1 0.002 
277 5 0.00776681 0.087606 0.019448 0 0 0 -1.90915 -0.152627 0.0835887 0 -0.000164368 0 0 0 0 0 0 0 0 0 0 0 0 0 0 0 0 0 1 0.002 
84 8 0.00905594 0.0949292 0.0200194 0 0 0 0.451401 -0.741645 0.20027 0 -0.000164368 0 0 0 0 0 0 0 0 0 0 0 0 0 0 0 0 0 2 0.002 
451 1 0.0051505 0.10364 0.0213852 0 0 0 0.157076 -0.322205 1.14498 0 -0.000164368 0 0 0 0 0 0 0 0 0 0 0 0 0 0 0 0 0 1 0.002 
479 9 0.00377204 0.107689 0.0210688 0 0 0 0.26829 -0.154298 -0.0340383 0 -0.000164368 0 0 0 0 0 0 0 0 0 0 0 0 0 0 0 0 0 0 0.002 
263 2 0.0163572 0.0801642 0.023201 0 0 0 0.133429 -0.516265 -0.335509 0 -0.000164368 0 0 0 0 0 0 0 0 0 0 0 0 0 0 0 0 0 2 0.002 
178 10 0.0109689 0.0815768 0.0223438 0 0 0 0.301766 -0.98319 -0.122836 0 -0.000164368 0 0 0 0 0 0 0 0 0 0 0 0 0 0 0 0 0 4 0.002 
344 1 0.0169443 0.090048 0.0218906 0 0 0 -1.1925 -1.29514 0.431445 0 -0.000164368 0 0 0 0 0 0 0 0 0 0 0 0 0 0 0 0 0 9 0.002 
261 1 0.00568106 0.0982156 0.0235221 0 0 0 -0.00379032 -0.202531 0.0596315 0 -0.000164368 0 0 0 0 0 0 0 0 0 0 0 0 0 0 0 0 0 3 0.002 
207 2 0.0101467 0.0992872 0.0234174 0 0 0 0.126672 -0.188997 -0.00845556 0 -0.000164368 0 0 0 0 0 0 0 0 0 0 0 0 0 0 0 0 0 3 0.002 
513 4 0.0129699 0.10408 0.0226612 0 0 0 0.211429 -0.493582 0.0350771 0 -0.000164368 0 0 0 0 0 0 0 0 0 0 0 0 0 0 0 0 0 0 0.002 
405 3 0.0171019 0.105712 0.0217613 0 0 0 0.311227 -0.242521 -0.0428599 0 -0.000164368 0 0 0 0 0 0 0 0 0 0 0 0 0 0 0 0 0 2 0.002 
204 7 0.00360636 0.086452 0.0251432 0 0 0 0.194152 -0.466452 -0.0579788 0 -0.000164368 0 0 0 0 0 0 0 0 0 0 0 0 0 0 0 0 0 4 0.002 
123 8 0.00618032 0.0898931 0.0251548 0 0 0 -0.079037 -0.226151 0.428529 0 -0.000164368 0 0 0 0 0 0 0 0 0 0 0 0 0 0 0 0 0 7 0.002 
441 3 0.00370069 0.0934465 0.0254374 0 0 0 0.308786 -0.188937 0.176194 0 -0.000164368 0 0 0 0 0 0 0 0 0 0 0 0 0 0 0 0 0 0 0.002 
242 6 0.0164343 0.0918842 0.025723 0 0 0 -0.995601 -0.296837 0.760025 -0.0235018 1.37236e-05 0.00241981 0 0 0 0 0 1 0 0 0 0 0 0 0 0 0 0 7 0.002 
300 1 0.00312429 0.101687 0.0244816 0 0 0 0.0170267 -0.267965 -0.0610719 0 -0.000164368 0 0 0 0 0 0 0 0 0 0 0 0 0 0 0 0 0 2 0.002 
454 2 0.0171938 0.10073 0.0252515 0 0 0 -0.00758056 -0.254841 -0.00755273 0 -0.000164368 0 0 0 0 0 0 0 0 0 0 0 0 0 0 0 0 0 5 0.002 
208 9 0.00991162 0.104568 0.0255147 0 0 0 -0.17783 0.083731 -0.179292 0 -0.000164368 0 0 0 0 0 0 0 0 0 0 0 0 0 0 0 0 0 7 0.002 
112 6 0.00316531 0.107772 0.0251664 0 0 0 0.000576513 -0.0808544 0.0876579 0 -0.000164368 0 0 0 0 0 0 0 0 0 0 0 0 0 0 0 0 0 4 0.002 
278 11 0.00748759 0.107716 0.0244682 0 0 0 0.0126509 -0.0863231 -0.202754 0 -0.000164368 0 0 0 0 0 0 0 0 0 0 0 0 0 0 0 0 0 1 0.002 
86 6 0.00592685 0.0758285 0.0268925 0 0 0 -0.0301521 -0.341517 -0.0375578 0 -0.000164368 0 0 0 0 0 0 0 0 0 0 0 0 0 0 0 0 0 3 0.002 
316 2 0.0154767 0.0792407 0.0275399 0 0 0 0.886852 -0.141714 -0.0969048 0 -0.000164368 0 0 0 0 0 0 0 0 0 0 0 0 0 0 0 0 0 6 0.002 
310 2 0.00401545 0.0827475 0.0276704 0 0 0 0.0767385 -0.228339 0.28931 0 -0.000164368 0 0 0 0 0 0 0 0 0 0 0 0 0 0 0 0 0 2 0.002 
345 6 0.0132395 0.082566 0.0258909 0 0 0 0.127339 0.0704304 -0.173811 0 -0.000164368 0 0 0 0 0 0 0 0 0 0 0 0 0 0 0 0 0 4 0.002 
459 5 0.0101066 0.0871279 0.0261542 0 0 0 0.243546 -0.669316 -0.0290852 0 -0.000164368 0 0 0 0 0 0 0 0 0 0 0 0 0 0 0 0 0 1 0.002 
290 2 0.0085903 0.0946536 0.0257788 0 0 0 0.0994714 -0.381452 0.0194861 0 -0.000164368 0 0 0 0 0 0 0 0 0 0 0 0 0 0 0 0 0 4 0.002 
313 1 0.0139124 0.0973097 0.0259524 0 0 0 -0.137092 -0.309697 0.0352293 0 -0.000164368 0 0 0 0 0 0 0 0 0 0 0 0 0 0 0 0 0 2 0.002 
305 5 0.00460842 0.0988925 0.0274462 0 0 0 -0.121842 -0.24083 0.0661412 0 -0.000164368 0 0 0 0 0 0 0 0 0 0 0 0 0 0 0 0 0 5 0.002 
334 2 0.00680413 0.102957 0.0276701 0 0 0 0.0148593 -0.242969 0.0947908 0 -0.000164368 0 0 0 0 0 0 0 0 0 0 0 0 0 0 0 0 0 2 0.002 
262 3 0.0147307 0.107132 0.0260702 0 0 0 0.0290178 9.89348e-05 0.0650135 0 -0.000164368 0 0 0 0 0 0 0 0 0 0 0 0 0 0 0 0 0 2 0.002 
383 6 0.0116027 0.0777981 0.0280493 0 0 0 0.0419372 0.941375 -0.183787 0 -0.000164368 0 0 0 0 0 0 0 0 0 0 0 0 0 0 0 0 0 1 0.002 
249 4 0.00407515 0.0773892 0.0301004 0 0 0 0.0403148 -0.137314 -0.0484215 0 -0.000164368 0 0 0 0 0 0 0 0 0 0 0 0 0 0 0 0 0 5 0.002 
333 2 0.0076567 0.0789505 0.0287944 0 0 0 0.125134 -0.310736 0.0136373 0 -0.000164368 0 0 0 0 0 0 0 0 0 0 0 0 0 0 0 0 0 2 0.002 
286 14 0.0107041 0.083691 0.0299053 0 0 0 -0.0474746 -0.0803503 -0.167105 0.0128361 -0.0141163 0.0101273 0 0 0 0 0 0 0 0 0 0 0 0 0 1 0 0 6 0.002 
343 2 0.00320466 0.0863709 0.0291984 0 0 0 0.0906737 -0.203661 -0.0256594 0 -0.000164368 0 0 0 0 0 0 0 0 0 0 0 0 0 0 0 0 0 0 0.002 
419 10 0.00754234 0.0861061 0.0296746 0 0 0 -0.0222111 -0.346215 0.083362 -0.0128361 0.0137876 -0.0101273 0 0 0 0 0 0 0 0 0 0 0 0 0 1 0 0 3 0.002 
355 5 0.0167191 0.0854634 0.0292834 0 0 0 0.743059 -0.813022 0.883611 0 -0.000164368 0 0 0 0 0 0 0 0 0 0 0 0 0 0 0 0 0 4 0.002 
274 4 0.0122218 0.0887652 0.0296297 0 0 0 0.21103 -0.20442 0.0118475 0 -0.000164368 0 0 0 0 0 0 0 0 0 0 0 0 0 0 0 0 0 3 0.002 
418 1 0.00305576 0.090615 0.02841 0 0 0 0.0145952 -0.261549 0.25874 -0.000383209 -0.000169316 -0.000319228 1 0 0 0 0 0 0 0 0 0 0 0 0 0 0 0 5 0.002 
524 5 0.00692798 0.0909243 0.0293385 0 0 0 0.12844 -0.243652 0.0241198 0.000383209 -0.00015942 0.000319228 1 0 0 0 0 0 0 0 0 0 0 0 0 0 0 0 2 0.002 
465 4 0.0030004 0.0956414 0.0291927 0 0 0 -0.0122983 -0.35162 0.0122448 0 -0.000164368 0 0 0 0 0 0 0 0 0 0 0 0 0 0 0 0 0 3 0.002 
404 6 0.00741613 0.0951511 0.0299586 0 0 0 0.0422008 -0.185346 0.0283819 0 -0.000164368 0 0 0 0 0 0 0 0 0 0 0 0 0 0 0 0 0 4 0.002 
224 5 0.0137852 0.0941185 0.0285973 0 0 0 -0.315132 0.0583178 0.399676 0 -0.000164368 0 0 0 0 0 0 0 0 0 0 0 0 0 0 0 0 0 9 0.002 
206 6 0.00842689 0.09965 0.0293224 0 0 0 0.12928 -0.302605 -0.0853258 0 -0.000164368 0 0 0 0 0 0 0 0 0 0 0 0 0 0 0 0 0 1 0.002 
130 1 0.0161604 0.0987813 0.0302663 0 0 0 -0.0105316 -0.256853 0.0726439 0 -0.000164368 0 0 0 0 0 0 0 0 0 0 0 0 0 0 0 0 0 1 0.002 
16 3 0.00305231 0.102266 0.0291178 0 0 0 0.0124609 -0.195123 0.010161 0 -0.000164368 0 0 0 0 0 0 0 0 0 0 0 0 0 0 0 0 0 6 0.002 
73 3 0.0142275 0.101625 0.0282055 0 0 0 -0.0112862 -0.229757 0.066122 0 -0.000164368 0 0 0 0 0 0 0 0 0 0 0 0 0 0 0 0 0 2 0.002 
393 11 0.0111324 0.104283 0.0297203 0 0 0 0.0292817 -0.0953929 -0.0947631 0 -0.000164368 0 0 0 0 0 0 0 0 0 0 0 0 0 0 0 0 0 3 0.002 
317 11 0.0185246 0.103476 0.0290886 0 0 0 0.065445 -0.142046 -0.0223936 0 -0.000164368 0 0 0 0 0 0 0 0 0 0 0 0 0 0 0 0 0 3 0.002 
417 1 0.00301243 0.107506 0.0292814 0 0 0 0.00622098 -0.00292936 -0.00928135 0 -0.000164368 0 0 0 0 0 0 0 0 0 0 0 0 0 0 0 0 0 2 0.002 
480 3 0.00703179 0.106785 0.0294712 0 0 0 0.0396703 -0.116264 -0.045548 0 -0.000164368 0 0 0 0 0 0 0 0 0 0 0 0 0 0 0 0 0 2 0.002 
245 1 0.0157379 0.107317 0.0299585 0 0 0 0.0952985 -0.0858476 0.0747219 0 -0.000164368 0 0 0 0 0 0 0 0 0 0 0 0 0 0 0 0 0 2 0.002 
323 7 0.0152482 0.07698 0.0324995 0 0 0 0.920918 0.677885 0.718001 0 -0.000164368 0 0 0 0 0 0 0 0 0 0 0 0 0 0 0 0 0 4 0.002 
131 7 0.0150793 0.0889834 0.0325672 0 0 0 0.0481208 -0.192883 0.196037 0 -0.000164368 0 0 0 0 0 0 0 0 0 0 0 0 0 0 0 0 0 4 0.002 
311 2 0.0173172 0.091798 0.0304171 0 0 0 0.258552 -0.409045 -0.202053 0 -0.000164368 0 0 0 0 0 0 0 0 0 0 0 0 0 0 0 0 0 3 0.002 
460 2 0.0122667 0.0978426 0.030336 0 0 0 -0.0294997 -0.335008 0.0355215 0 -0.000164368 0 0 0 0 0 0 0 0 0 0 0 0 0 0 0 0 0 5 0.002 
241 6 0.00687892 0.0764089 0.032962 0 0 0 0.0481668 -0.425517 0.00105848 0 -0.000164368 0 0 0 0 0 0 0 0 0 0 0 0 0 0 0 0 0 5 0.002 
337 8 0.0030857 0.0807084 0.032803 0 0 0 -0.0336448 -0.31898 -0.0186536 0 -0.000164368 0 0 0 0 0 0 0 0 0 0 0 0 0 0 0 0 0 9 0.002 
5 3 0.0131702 0.0804872 0.032947 0 0 0 0.197693 0.0269421 -0.00310184 0 -0.000164368 0 0 0 0 0 0 0 0 0 0 0 0 0 0 0 0 0 1 0.002 
231 7 0.00691975 0.0822787 0.0328006 0 0 0 0.0289627 -0.347465 0.0122867 0 -0.000164368 0 0 0 0 0 0 0 0 0 0 0 0 0 0 0 0 0 4 0.002 
70 6 0.00344255 0.0851425 0.0329995 0 0 0 0.0609028 -0.170106 0.0167449 0 -0.000164368 0 0 0 0 0 0 0 0 0 0 0 0 0 0 0 0 0 4 0.002 
29 5 0.0101699 0.086432 0.0328729 0 0 0 0.0611823 -0.250389 0.0115303 0 -0.000164368 0 0 0 0 0 0 0 0 0 0 0 0 0 0 0 0 0 5 0.002 
331 7 0.00704444 0.0889379 0.0329902 0 0 0 0.0443671 -0.197073 0.0507282 0 -0.000164368 0 0 0 0 0 0 0 0 0 0 0 0 0 0 0 0 0 5 0.002 
105 3 0.00304698 0.090013 0.0325503 0 0 0 0.0104716 -0.256895 0.0291514 0 -0.000164368 0 0 0 0 0 0 0 0 0 0 0 0 0 0 0 0 0 5 0.002 
293 1 0.0108659 0.0906286 0.03297 0 0 0 0.103262 -0.198179 -0.00634769 0 -0.000164368 0 0 0 0 0 0 0 0 0 0 0 0 0 0 0 0 0 10 0.002 
389 5 0.00595408 0.0927959 0.0328869 0 0 0 -0.0180073 -0.166348 0.00633016 0 -0.000164368 0 0 0 0 0 0 0 0 0 0 0 0 0 0 0 0 0 2 0.002 
457 6 0.00998516 0.0946445 0.0329857 0 0 0 0.0998257 -0.195387 0.0241403 0 -0.000164368 0 0 0 0 0 0 0 0 0 0 0 0 0 0 0 0 0 1 0.002 
483 1 0.0144772 0.0954553 0.0329638 0 0 0 0.151359 -0.303319 0.0350409 0 -0.000164368 0 0 0 0 0 0 0 0 0 0 0 0 0 0 0 0 0 2 0.002 
453 3 0.00302351 0.0975191 0.0329543 0 0 0 0.0103393 -0.189622 0.00268132 0 -0.000164368 0 0 0 0 0 0 0 0 0 0 0 0 0 0 0 0 0 0 0.002 
121 2 0.00697549 0.0983378 0.0328782 0 0 0 -0.00647284 -0.103588 -0.0327913 0 -0.000164368 0 0 0 0 0 0 0 0 0 0 0 0 0 0 0 0 0 4 0.002 
216 2 0.010664 0.101592 0.0329293 0 0 0 0.0610576 -0.120823 -0.0223056 0 -0.000164368 0 0 0 0 0 0 0 0 0 0 0 0 0 0 0 0 0 5 0.002 
443 1 0.0160315 0.101897 0.0329168 0 0 0 0.0885656 -0.157672 -0.00872008 0 -0.000164368 0 0 0 0 0 0 0 0 0 0 0 0 0 0 0 0 0 3 0.002 
309 1 0.00301354 0.103437 0.0329809 0 0 0 0.00279097 -0.107009 -0.00317004 0 -0.000164368 0 0 0 0 0 0 0 0 0 0 0 0 0 0 0 0 0 4 0.002 
200 9 0.00713509 0.103586 0.0329125 0 0 0 0.0388233 -0.131032 0.111441 0 -0.000164368 0 0 0 0 0 0 0 0 0 0 0 0 0 0 0 0 0 5 0.002 
108 2 0.00483013 0.107054 0.0328546 0 0 0 0.0286291 -0.100283 -0.0175347 0 -0.000164368 0 0 0 0 0 0 0 0 0 0 0 0 0 0 0 0 0 5 0.002 
60 4 0.0130503 0.107767 0.0329205 0 0 0 0.0408303 -0.0684265 0.0545493 0 -0.000164368 0 0 0 0 0 0 0 0 0 0 0 0 0 0 0 0 0 3 0.002 
339 4 0.0184435 0.106492 0.0328566 0 0 0 0.126066 -0.129677 0.0734657 0 -0.000164368 0 0 0 0 0 0 0 0 0 0 0 0 0 0 0 0 0 4 0.002 
380 3 0.0454446 -0.0578479 -0.00257146 0 0 0 -6.86559 -2.15951 26.9343 0.0519924 0.916397 -0.0462984 0 0 0 0 0 0 0 0 0 0 0 0 0 0 0 0 0 0.002 
542 4 0.0190105 -0.0221278 -0.0500484 0 0 0 6.00849 -16.1496 4.17411 0 -0.000164368 0 0 0 0 0 0 0 0 0 0 0 0 0 0 0 0 0 0 0.002 
458 3 0.0410243 0.0328124 0.0798112 0 0 0 -0.0627732 -1.23685 0.394413 0 -0.000164368 0 0 0 0 0 0 0 0 0 0 0 0 0 0 0 0 0 1 0.002 
270 1 0.0202991 0.0512015 -0.0355 0 0 0 2.22516e-308 -8.04937e-20 3.36607e-12 -0 0 0 0 0 0 0 0 0 0 0 0 0 0 0 0 0 0 0 0 0.002 
79 1 0.042682 0.0514779 -0.0355 0 0 0 4.97826e-155 -6.08928e-20 -3.92797e-12 3.52232e-155 0 0 0 0 0 0 0 0 0 0 0 0 0 0 0 0 0 0 1 0.002 
127 3 0.0250769 0.0534114 -0.0355 0 0 0 0 2.01892e-20 3.36615e-12 0 0 0 0 0 0 0 0 0 0 0 0 0 0 0 0 0 0 0 2 0.002 
276 4 0.0334442 0.0547305 -0.0355 0 0 0 -9.01778e-308 1.42223e-19 -5.61328e-12 9.00561e-308 -1.35525e-20 -3.55271e-15 0 0 0 0 0 0 0 0 0 0 0 0 0 0 0 0 0 0.002 
48 3 0.0235006 0.0573261 -0.0355 0 0 0 -8.37996e-148 -1.82697e-19 2.8042e-12 -4.88814e-148 0 0 0 0 0 0 0 0 0 0 0 0 0 0 0 0 0 0 0 0.002 
52 2 0.0282373 0.058442 -0.0355 0 0 0 -6.35461e-261 3.04475e-19 4.47982e-12 3.25121e-260 0 0 0 0 0 0 0 0 0 0 0 0 0 0 0 0 0 0 0 0.002 
351 1 0.0418462 0.0566895 -0.0355 0 0 0 2.54987e-188 2.23183e-19 3.92796e-12 -2.96207e-188 1.35525e-20 0 0 0 0 0 0 0 0 0 0 0 0 0 0 0 0 0 0 0.002 
39 3 0.0456599 0.0647321 -0.0355 0 0 0 -2.8861e-134 1.01412e-19 -4.86403e-15 1.69351e-134 0 0 0 0 0 0 0 0 0 0 0 0 0 0 0 0 0 0 0 0.002 
373 7 0.0238363 0.0639737 -0.0323359 0 0 0 -1.02604 -2.2609 0.153347 0 -0.000164368 0 0 0 0 0 0 0 0 0 0 0 0 0 0 0 0 0 0 0.002 
386 1 0.0409171 0.064449 -0.0328649 0 0 0 1.54562 0.619535 1.80106 0 -0.000164368 0 0 0 0 0 0 0 0 0 0 0 0 0 0 0 0 0 1 0.002 
432 4 0.0235072 0.0690409 -0.0329073 0 0 0 -1.01845 -1.48613 0.976255 0 -0.000164368 0 0 0 0 0 0 0 0 0 0 0 0 0 0 0 0 0 0 0.002 
462 8 0.0430934 0.0731859 0.00462478 0 0 0 -0.713083 0.1323 -1.07134 0 -0.000164368 0 0 0 0 0 0 0 0 0 0 0 0 0 0 0 0 0 2 0.002 
116 1 0.0196224 0.0618142 -0.0255354 0 0 0 -3.01443 -2.35027 2.74863 0 -0.000164368 0 0 0 0 0 0 0 0 0 0 0 0 0 0 0 0 0 3 0.002 
496 2 0.0203978 0.0562535 -0.0237521 0 0 0 0.788518 -3.88774 0.877312 0 -0.000164368 0 0 0 0 0 0 0 0 0 0 0 0 0 0 0 0 0 0 0.002 
356 7 0.0362451 0.0523366 -0.00885838 0 0 0 -7.11781 -9.56675 11.0926 0 -0.000164368 0 0 0 0 0 0 0 0 0 0 0 0 0 0 0 0 0 8 0.002 
159 2 0.0275278 0.0650588 -0.0152927 0 0 0 2.00318 2.95616 -4.50621 0 -0.000164368 0 0 0 0 0 0 0 0 0 0 0 0 0 0 0 0 0 0 0.002 
189 5 0.0334458 0.0644239 -0.00698188 0 0 0 -1.54953 -3.99199 -1.35188 0 -0.000164368 0 0 0 0 0 0 0 0 0 0 0 0 0 0 0 0 0 4 0.002 
424 5 0.0307485 0.0699548 -0.00303447 0 0 0 0.46068 -1.03011 -0.0236401 0 -0.000164368 0 0 0 0 0 0 0 0 0 0 0 0 0 0 0 0 0 4 0.002 
463 9 0.0236289 0.0676225 -0.000102079 0 0 0 0.854514 -1.55246 0.41693 0 -0.000164368 0 0 0 0 0 0 0 0 0 0 0 0 0 0 0 0 0 0 0.002 
289 3 0.0200086 0.0710017 -0.00047345 0 0 0 1.78798 0.401859 -1.73391 0 -0.000164368 0 0 0 0 0 0 0 0 0 0 0 0 0 0 0 0 0 2 0.002 
456 8 0.025208 0.0745538 -0.0247039 0 0 0 1.00196 -2.31354 1.34449 0 -0.000164368 0 0 0 0 0 0 0 0 0 0 0 0 0 0 0 0 0 0 0.002 
146 9 0.047426 0.0411346 0.00271651 0 0 0 -6.04292e-05 5.43303 -82.2692 3.41116e-07 -2.75687 -0.182063 0 0 0 0 0 0 0 0 0 0 0 0 0 0 0 0 0 0.002 
490 2 0.0316295 0.0709193 0.0107867 0 0 0 0.248489 -1.03466 -0.207417 0 -0.000164368 0 0 0 0 0 0 0 0 0 0 0 0 0 0 0 0 0 0 0.002 
322 2 0.0334744 0.0670171 0.0167166 0 0 0 -1.10387 -1.52759 0.109245 0 -0.000164368 0 0 0 0 0 0 0 0 0 0 0 0 0 0 0 0 0 3 0.002 
529 14 0.0222177 0.0630743 0.0201758 0 0 0 1.14603 -0.812169 -0.379342 0 -0.000164368 0 0 0 0 0 0 0 0 0 0 0 0 0 0 0 0 0 0 0.002 
301 5 0.0364581 0.0559905 0.0243305 0 0 0 -1.26825 -1.97592 4.07687 0 -0.000164368 0 0 0 0 0 0 0 0 0 0 0 0 0 0 0 0 0 1 0.002 
455 1 0.0453583 0.0615974 0.0220145 0 0 0 1.04568 -0.0575528 -0.680149 0 -0.000164368 0 0 0 0 0 0 0 0 0 0 0 0 0 0 0 0 0 3 0.002 
499 2 0.0331607 0.0703905 0.0215937 0 0 0 1.00543 -0.369409 -0.794054 0 -0.000164368 0 0 0 0 0 0 0 0 0 0 0 0 0 0 0 0 0 0 0.002 
280 6 0.0334619 0.0588437 0.0251426 0 0 0 0.194418 -0.406677 -0.0534871 0 -0.000164368 0 0 0 0 0 0 0 0 0 0 0 0 0 0 0 0 0 3 0.002 
516 2 0.0283631 0.0724653 0.0259567 0 0 0 0.675944 -0.427194 0.470086 0 -0.000164368 0 0 0 0 0 0 0 0 0 0 0 0 0 0 0 0 0 0 0.002 
468 8 0.0455257 0.0664298 0.0307544 0 0 0 0.166569 -0.572927 0.435275 0 -0.000164368 0 0 0 0 0 0 0 0 0 0 0 0 0 0 0 0 0 2 0.002 
420 3 0.0267218 0.062048 0.0276536 0 0 0 -0.0042458 -0.855506 -0.799762 0 -0.000164368 0 0 0 0 0 0 0 0 0 0 0 0 0 0 0 0 0 1 0.002 
447 1 0.0452553 0.0638511 0.0271019 0 0 0 -0.694066 0.140845 0.375992 0 -0.000164368 0 0 0 0 0 0 0 0 0 0 0 0 0 0 0 0 0 1 0.002 
141 5 0.0395354 0.060699 0.0289961 0 0 0 -0.947529 -0.411599 0.234703 0 -0.000164368 0 0 0 0 0 0 0 0 0 0 0 0 0 0 0 0 0 9 0.002 
243 5 0.0203753 0.0627901 0.0275903 0 0 0 0.485834 0.309263 -1.84223 0 -0.000164368 0 0 0 0 0 0 0 0 0 0 0 0 0 0 0 0 0 2 0.002 
53 3 0.0249912 0.0602289 0.0307818 0 0 0 0.199592 -0.7454 -0.384865 0 -0.000164368 0 0 0 0 0 0 0 0 0 0 0 0 0 0 0 0 0 3 0.002 
439 1 0.0328057 0.0593591 0.032276 0 0 0 -0.418586 -0.384289 0.0793098 0 -0.000164368 0 0 0 0 0 0 0 0 0 0 0 0 0 0 0 0 0 2 0.002 
406 5 0.0192164 0.037934 0.019625 0 0 0 3.12081 -1.92227 3.60585 0 -0.000164368 0 0 0 0 0 0 0 0 0 0 0 0 0 0 0 0 0 3 0.002 
361 3 0.0333993 0.077696 -0.0326676 0 0 0 5.53101 -2.74456 0.133375 0 -0.000164368 0 0 0 0 0 0 0 0 0 0 0 0 0 0 0 0 0 1 0.002 
402 1 0.032267 0.0805167 -0.0298702 0 0 0 -1.68314 -4.11839 4.87746 0 -0.000164368 0 0 0 0 0 0 0 0 0 0 0 0 0 0 0 0 0 3 0.002 
350 8 0.0320326 0.09125 -0.0303824 0 0 0 -7.76595 2.05099 6.96781 0 -0.000164368 0 0 0 0 0 0 0 0 0 0 0 0 0 0 0 0 0 1 0.002 
399 3 0.0342384 0.102117 -0.031886 0 0 0 0.672515 -0.085024 0.230316 0 -0.000164368 0 0 0 0 0 0 0 0 0 0 0 0 0 0 0 0 0 5 0.002 
522 2 0.0226164 0.104137 -0.0320848 0 0 0 0.650636 0.625051 0.149112 0 -0.000164368 0 0 0 0 0 0 0 0 0 0 0 0 0 0 0 0 0 0 0.002 
390 4 0.0376417 0.105893 -0.0290545 0 0 0 2.60814 -4.60372 6.88352 0 -0.000164368 0 0 0 0 0 0 0 0 0 0 0 0 0 0 0 0 0 2 0.002 
272 2 0.0423763 0.104396 -0.0277224 0 0 0 -3.51989 5.03296 2.39648 0 -0.000164368 0 0 0 0 0 0 0 0 0 0 0 0 0 0 0 0 0 0 0.002 
477 2 0.0228028 0.0766423 -0.0294686 0 0 0 0.76681 3.49466 3.05157 0 -0.000164368 0 0 0 0 0 0 0 0 0 0 0 0 0 0 0 0 0 0 0.002 
378 2 0.0278665 0.0818806 -0.0279576 0 0 0 -13.23 2.49401 2.47314 0 -0.000164368 0 0 0 0 0 0 0 0 0 0 0 0 0 0 0 0 0 1 0.002 
519 1 0.0226111 0.0972035 -0.0255238 0 0 0 3.99874 0.891995 0.399831 0 -0.000164368 0 0 0 0 0 0 0 0 0 0 0 0 0 0 0 0 0 0 0.002 
475 2 0.0364798 0.104802 -0.0231389 0 0 0 -3.12659 -2.79166 3.56647 0 -0.000164368 0 0 0 0 0 0 0 0 0 0 0 0 0 0 0 0 0 0 0.002 
527 8 0.0452001 0.102128 -0.0184053 0 0 0 -1.6434 2.0707 7.22105 0 -0.000164368 0 0 0 0 0 0 0 0 0 0 0 0 0 0 0 0 0 1 0.002 
541 6 0.0292757 0.0895519 -0.0153197 0 0 0 -2.05974 -1.34808 1.71173 0 -0.000164368 0 0 0 0 0 0 0 0 0 0 0 0 0 0 0 0 0 0 0.002 
544 2 0.0234891 0.1071 -0.0196197 0 0 0 -3.78533 9.38333 -6.81841 0 -0.000164368 0 0 0 0 0 0 0 0 0 0 0 0 0 0 0 0 0 0 0.002 
507 6 0.0454107 0.0959612 -0.0131018 0 0 0 -0.321778 -0.901043 0.100991 0 -0.000164368 0 0 0 0 0 0 0 0 0 0 0 0 0 0 0 0 0 0 0.002 
134 2 0.0218571 0.107397 -0.0130935 0 0 0 2.44109 0.0565626 2.2942 0 -0.000164368 0 0 0 0 0 0 0 0 0 0 0 0 0 0 0 0 0 0 0.002 
517 2 0.0328673 0.0864444 -0.0118178 0 0 0 0.394222 -2.74645 1.57339 0 -0.000164368 0 0 0 0 0 0 0 0 0 0 0 0 0 0 0 0 0 0 0.002 
203 3 0.0409832 0.0999374 -0.0112287 0 0 0 1.35908 0.0217601 0.273812 0 -0.000164368 0 0 0 0 0 0 0 0 0 0 0 0 0 0 0 0 0 6 0.002 
538 1 0.019704 0.104409 -0.0150883 0 0 0 -4.10603 6.42835 -4.24677 0 -0.000164368 0 0 0 0 0 0 0 0 0 0 0 0 0 0 0 0 0 0 0.002 
423 3 0.0304708 0.105032 -0.0129593 0 0 0 0.638003 -0.291373 -0.458851 0 -0.000164368 0 0 0 0 0 0 0 0 0 0 0 0 0 0 0 0 0 2 0.002 
103 5 0.027986 0.101839 -0.00937979 0 0 0 0.530158 0.0619249 0.993924 0 -0.000164368 0 0 0 0 0 0 0 0 0 0 0 0 0 0 0 0 0 4 0.002 
472 3 0.0436664 0.0931251 -0.00369411 0 0 0 -0.343118 -1.58089 1.19977 0 -0.000164368 0 0 0 0 0 0 0 0 0 0 0 0 0 0 0 0 0 1 0.002 
315 1 0.0396025 0.104987 -0.00462523 0 0 0 -0.516381 -0.374768 0.70729 0 -0.000164368 0 0 0 0 0 0 0 0 0 0 0 0 0 0 0 0 0 2 0.002 
336 9 0.0229221 0.0941808 -0.00143082 0 0 0 0.333199 -0.382802 0.70489 0 -0.000164368 0 0 0 0 0 0 0 0 0 0 0 0 0 0 0 0 0 2 0.002 
329 7 0.031298 0.0940231 0.000553104 0 0 0 -1.11529 -0.45354 5.54935 0 -0.000164368 0 0 0 0 0 0 0 0 0 0 0 0 0 0 0 0 0 2 0.002 
324 5 0.0226057 0.0787314 -0.00193186 0 0 0 -0.984215 -0.652913 -1.63987 0 -0.000164368 0 0 0 0 0 0 0 0 0 0 0 0 0 0 0 0 0 3 0.002 
347 3 0.0431821 0.0823099 0.00328832 0 0 0 2 -2.39299 0.702205 0 -0.000164368 0 0 0 0 0 0 0 0 0 0 0 0 0 0 0 0 0 1 0.002 
450 2 0.0342458 0.0960505 0.00370614 0 0 0 1.0664 -0.442622 1.71643 0 -0.000164368 0 0 0 0 0 0 0 0 0 0 0 0 0 0 0 0 0 1 0.002 
471 5 0.0426453 0.107332 0.00143608 0 0 0 -1.37024 -0.269618 0.0773345 0 -0.000164368 0 0 0 0 0 0 0 0 0 0 0 0 0 0 0 0 0 0 0.002 
392 1 0.0201794 0.097431 0.00448587 0 0 0 0.782435 0.506455 -0.678339 0 -0.000164368 0 0 0 0 0 0 0 0 0 0 0 0 0 0 0 0 0 4 0.002 
308 1 0.0188155 0.0849281 0.00819094 0 0 0 0.171691 -0.582675 -1.03657 0 -0.000164368 0 0 0 0 0 0 0 0 0 0 0 0 0 0 0 0 0 7 0.002 
416 5 0.0241089 0.0970765 0.00873619 0 0 0 -4.5245 2.02592 -1.46716 0 -0.000164368 0 0 0 0 0 0 0 0 0 0 0 0 0 0 0 0 0 2 0.002 
449 4 0.0419529 0.0973116 0.00945703 0 0 0 -0.110324 1.13978 -1.06739 0 -0.000164368 0 0 0 0 0 0 0 0 0 0 0 0 0 0 0 0 0 3 0.002 
140 4 0.0253078 0.104054 0.00970806 0 0 0 0.718903 -0.603423 0.304478 0 -0.000164368 0 0 0 0 0 0 0 0 0 0 0 0 0 0 0 0 0 3 0.002 
543 1 0.047248 0.0816186 -0.0236261 0 0 0 -3.33272 -0.0572729 -0.23839 0 -0.000164368 0 0 0 0 0 0 0 0 0 0 0 0 0 0 0 0 0 0 0.002 
498 4 0.0432022 0.0785884 0.0139076 0 0 0 -1.09876 0.869115 -0.811188 0 -0.000164368 0 0 0 0 0 0 0 0 0 0 0 0 0 0 0 0 0 0 0.002 
294 1 0.0463793 0.0921351 0.0147904 0 0 0 -0.217317 1.03695 -1.57396 0 -0.000164368 0 0 0 0 0 0 0 0 0 0 0 0 0 0 0 0 0 4 0.002 
217 2 0.0286801 0.101489 0.0163088 0 0 0 0.526552 -1.11686 1.53218 0.00119326 0.0105711 -0.0201382 0 1 0 0 0 0 0 0 0 0 0 0 0 0 0 0 4 0.002 