ITEM: TIMESTEP
13100000
ITEM: NUMBER OF ATOMS
18249
ITEM: BOX BOUNDS ff ff ff
-0.01 0.45
-0.15 0.15
-0.08 0.1
ITEM: ATOMS id type x y z ix iy iz vx vy vz fx fy fz c_cc_1 c_cc_2 c_cc_3 c_cc_4 c_cc_5 c_cc_6 c_cc_7 c_cc_8 c_cc_9 c_cc_10 c_cc_11 c_cc_12 c_cc_13 c_cc_14 c_cc_15 c_cc_16 f_fppacc radius c_cc_17 
14000 1 0.0404113 -0.0020072 -0.0608952 0 0 0 -0.343239 0.635289 -0.0984673 0 -1.05196e-05 0 0 0 0 0 0 0 0 0 0 0 0 0 0 0 0 0 54 0.0008 0 
7483 7 0.00668495 -0.00751455 -0.0582305 0 0 0 0.44589 -3.70222 0.550047 0 -1.05196e-05 0 0 0 0 0 0 0 0 0 0 0 0 0 0 0 0 0 103 0.0008 0 
20390 4 0.046993 -0.0439689 -0.0383857 0 0 0 -7.10128 -9.21534 11.784 0 -3.55035e-05 0 0 0 0 0 0 0 0 0 0 0 0 0 0 0 0 0 1 0.0012 0 
15753 2 0.0180819 -0.0105757 -0.0578863 0 0 0 1.54221 -4.40242 0.636477 0 -1.05196e-05 0 0 0 0 0 0 0 0 0 0 0 0 0 0 0 0 0 85 0.0008 0 
20495 11 0.0282699 -0.0073459 -0.0575866 0 0 0 0.489052 -2.24818 0.714244 0 -3.55035e-05 0 0 0 0 0 0 0 0 0 0 0 0 0 0 0 0 0 0 0.0012 0 
14849 6 0.0373027 -0.0329933 -0.0489336 0 0 0 10.6977 -51.5176 31.8482 0 -1.05196e-05 0 0 0 0 0 0 0 0 0 0 0 0 0 0 0 0 0 76 0.0008 0 
7916 7 0.0249942 -0.0292964 -0.0511181 0 0 0 -6.13072 -19.2206 10.7795 0 -1.05196e-05 0 0 0 0 0 0 0 0 0 0 0 0 0 0 0 0 0 99 0.0008 0 
19804 9 0.0286897 -0.0506648 -0.0205217 0 0 0 -0.00694206 -41.1061 101.319 9.92668e-06 0.733303 0.297989 0 0 0 0 0 0 0 0 0 0 0 0 0 0 0 0 0 0.0012 0 
7660 5 0.0357034 -0.0463916 -0.0261071 0 0 0 -0.0133644 -52.183 92.8125 3.6817e-07 0.199113 0.111847 0 0 0 0 0 0 0 0 0 0 0 0 0 0 0 0 113 0.0008 0 
20489 8 0.0260538 -0.0294832 -0.0485841 0 0 0 0.0332855 -13.9664 7.28324 0 -3.55035e-05 0 0 0 0 0 0 0 0 0 0 0 0 0 0 0 0 0 0 0.0012 0 
20300 2 0.0334675 -0.0467745 -0.0237905 0 0 0 -0.347097 -47.7466 93.6887 -0.000166355 0.68014 0.347348 0 1 0 0 0 0 0 0 0 0 0 0 0 0 0 0 9 0.0012 0 
19676 12 0.033137 -0.0457964 -0.0230034 0 0 0 0.289984 -45.7731 91.5486 0.000166806 0.661339 0.329075 0 1 0 0 0 0 0 0 0 0 0 0 0 0 0 0 13 0.0012 0 
20500 4 0.0178572 -0.0347634 -0.0468949 0 0 0 -0.525453 -8.10914 7.49755 0 -3.55035e-05 0 0 0 0 0 0 0 0 0 0 0 0 0 0 0 0 0 0 0.0012 0 
2463 2 0.0209874 -0.028489 -0.0489172 0 0 0 1.53793 -3.45364 1.2456 0 -1.05196e-05 0 0 0 0 0 0 0 0 0 0 0 0 0 0 0 0 0 114 0.0008 0 
3382 4 0.0202003 -0.0520682 -0.0118011 0 0 0 -0.00216774 -23.6097 104.132 -8.80005e-05 0.223046 0.0506333 0 0 0 2 0 0 0 0 0 0 0 0 0 0 0 0 872 0.0008 0 
5050 3 0.0209006 -0.0513362 -0.0120421 0 0 0 0.00188264 -24.064 102.69 -0.0018782 0.220125 0.0530918 0 0 2 1 0 0 0 0 0 0 0 0 0 0 0 0 812 0.0008 0 
16675 2 0.0316444 -0.035708 -0.0493933 0 0 0 0.266574 -0.103926 0.0784809 3.60116e-17 -4.78501e-06 3.61347e-06 0 0 0 0 0 0 0 0 0 0 0 0 0 0 0 0 11 0.0008 0 
20488 5 0.0186615 -0.037155 -0.0450459 0 0 0 0.184831 -9.0142 7.61679 0 -3.55035e-05 0 0 0 0 0 0 0 0 0 0 0 0 0 0 0 0 0 0 0.0012 0 
675 3 0.0205689 -0.0500729 -0.0113563 0 0 0 -0.0711968 -22.6299 100.246 0.00675597 0.227615 0.0608449 0 0 3 0 0 0 0 0 0 0 0 0 0 0 0 0 841 0.0008 0 
11253 8 0.0202143 -0.0509585 -0.011214 0 0 0 -0.0249675 -22.4801 101.912 0.00161541 0.219071 0.0490939 0 0 2 1 0 0 0 2 0 0 0 0 0 0 0 0 646 0.0008 0 
4918 9 0.0213356 -0.0505842 -0.0122922 0 0 0 -0.0509864 -24.6572 101.238 -0.00386775 0.214006 0.0600353 0 0 2 0 0 0 0 1 2 0 0 0 0 0 0 0 868 0.0008 0 
2302 4 0.0219834 -0.0499754 -0.0125906 0 0 0 -0.514143 -25.7941 99.8571 0.00359049 0.1951 0.10483 0 0 0 4 0 0 0 0 1 0 0 0 0 0 0 0 923 0.0008 0 
7147 3 0.0213927 -0.0496139 -0.0118077 0 0 0 0.0443853 -23.4805 99.4145 0.0132458 0.244289 0.141858 0 0 2 1 0 0 0 0 1 0 0 0 0 0 0 0 788 0.0008 0 
2549 2 0.0224744 -0.0489884 -0.0129002 0 0 0 -1.48366 -25.6148 95.8176 0.147942 0.0929723 0.431255 0 6 0 1 0 0 0 0 0 0 0 0 0 0 0 0 897 0.0008 0 
13823 5 0.00653904 -0.0602115 0.00952009 0 0 0 -0.000919887 2.9745e-05 7.31333e-05 -1.67594e-07 9.65426e-10 -1.25853e-07 0 0 0 0 2 0 0 0 0 0 0 0 0 0 0 0 154 0.0008 0 
11603 8 0.0199186 -0.0494793 -0.0106444 0 0 0 0.0346584 -21.136 99.0885 0.0110184 0.218221 0.0427355 0 0 1 0 0 0 0 3 0 0 0 0 0 0 0 0 245 0.0008 0 
16883 3 0.0207536 -0.0497978 -0.0106706 0 0 0 0.0741545 -21.3833 99.4977 0.029611 0.226229 0.0413227 0 0 2 0 0 0 0 2 0 0 0 0 0 0 0 0 300 0.0008 0 
11658 5 0.0206468 -0.0484102 -0.0108585 0 0 0 0.398512 -21.1963 96.7058 0.120108 0.198018 0.0766377 0 0 1 0 5 0 0 1 0 0 0 0 0 0 0 0 486 0.0008 0 
617 3 0.0223619 -0.0489452 -0.0122255 0 0 0 -2.37054 -27.2675 94.2045 0.407809 -0.0192381 1.1399 0 1 4 1 0 0 0 0 0 0 0 0 0 0 0 0 699 0.0008 0 
9966 6 0.021547 -0.0485618 -0.0120517 0 0 0 0.50601 -24.1612 97.3134 0.54923 -0.0566712 1.00808 0 1 2 1 1 4 0 0 0 0 0 0 0 0 0 0 692 0.0008 0 
5276 5 0.0214827 -0.0487407 -0.0110726 0 0 0 3.82159 -22.6927 99.2534 0.40258 0.0810708 0.265547 0 0 3 0 4 1 0 0 0 0 0 0 0 0 0 0 692 0.0008 0 
7671 3 0.0231809 -0.0479972 -0.0130392 0 0 0 -3.59313 -23.9568 92.5032 -0.00306192 0.23769 0.124933 0 1 5 0 0 0 0 0 0 0 0 0 0 0 0 0 758 0.0008 0 
282 4 0.0224009 -0.0474767 -0.0124249 0 0 0 -3.38141 -22.0848 91.3607 0.272818 -0.0724018 0.939593 0 1 2 6 0 1 0 0 0 0 0 0 0 0 0 0 891 0.0008 0 
11468 7 0.0235034 -0.0483987 -0.0136853 0 0 0 -0.00448156 -27.2905 96.5965 0.0209452 0.178658 0.0853498 0 1 1 0 0 0 1 0 0 0 0 0 0 0 0 0 137 0.0008 0 
14672 5 0.0249729 -0.0465605 -0.0143113 0 0 0 -1.58885 -28.1412 91.4375 -0.603935 0.475488 -0.446734 0 0 0 0 3 0 0 0 0 0 0 0 0 0 0 0 121 0.0008 0 
17736 2 0.0242191 -0.0475164 -0.0139778 0 0 0 0.180683 -28.0448 95.1043 -0.109031 0.239023 -0.0145529 0 1 1 0 1 0 1 0 0 0 0 0 0 0 0 0 70 0.0008 0 
8832 3 0.0336788 -0.040192 -0.0460071 0 0 0 -0.286464 -0.039778 0.030039 -5.75142e-18 -4.78501e-06 3.61347e-06 0 0 0 0 0 0 0 0 0 0 0 0 0 0 0 0 75 0.0008 0 
4236 6 0.0109341 -0.0426205 -0.0406416 0 0 0 -8.83267 -10.7677 9.18633 0 -1.05196e-05 0 0 0 0 0 0 0 0 0 0 0 0 0 0 0 0 0 92 0.0008 0 
500 6 0.0206558 -0.0481784 -0.010013 0 0 0 0.216998 -20.1589 96.192 -0.00478941 0.209944 0.0672704 0 0 0 0 2 2 0 0 0 0 0 0 0 0 0 0 871 0.0008 0 
3488 2 0.0199145 -0.0483061 -0.0100338 0 0 0 0.227659 -19.9758 96.6558 0.00160368 0.200439 0.0394073 0 1 0 0 1 1 0 1 0 0 0 0 0 0 0 0 653 0.0008 0 
4700 3 0.0223436 -0.0470997 -0.0112667 0 0 0 -0.370364 -20.2191 96.7618 0.582987 -0.562017 0.86152 0 0 9 1 0 0 0 0 0 0 0 0 0 0 0 0 874 0.0008 0 
8427 2 0.0214805 -0.0476081 -0.0112802 0 0 0 1.74065 -22.8215 97.3485 0.444662 -0.0602383 0.528909 0 4 1 1 2 1 0 0 0 0 0 0 0 0 0 0 437 0.0008 0 
2661 1 0.021293 -0.047545 -0.0102494 0 0 0 0.138351 -20.4804 95.1943 -0.0355251 0.20659 0.135124 3 2 1 0 2 1 0 0 0 0 0 0 0 0 0 0 796 0.0008 0 
7521 7 0.0220444 -0.0468786 -0.0116683 0 0 0 -0.523302 -21.2073 94.1458 0.481065 -0.271013 0.727414 0 1 1 1 0 0 6 0 0 0 0 0 0 0 0 0 784 0.0008 0 
12004 1 0.0232865 -0.0473001 -0.0124514 0 0 0 -2.46056 -21.128 87.6603 0.218413 0.183408 0.584188 3 0 2 1 0 0 1 0 0 0 0 0 0 0 0 0 407 0.0008 0 
9524 3 0.023239 -0.046409 -0.0126754 0 0 0 0.183819 -24.1346 91.8845 -0.00336171 0.267119 0.090093 1 0 4 1 0 0 0 0 0 0 0 0 0 0 0 0 404 0.0008 0 
97 5 0.0241753 -0.0464298 -0.0133793 0 0 0 0.537199 -26.4098 92.7254 -0.0591729 0.300565 -0.0124857 1 1 1 0 2 0 0 0 0 0 0 0 0 0 0 0 957 0.0008 0 
1300 2 0.0241495 -0.0456901 -0.0128197 0 0 0 0.0765535 -25.4897 91.33 0.00413269 0.217933 0.0470861 0 4 1 0 1 0 0 0 0 0 0 0 0 0 0 0 587 0.0008 0 
12243 4 0.0249729 -0.0452499 -0.013756 0 0 0 0.391402 -27.639 90.7606 -0.0160483 0.202344 0.0158568 0 1 0 3 2 0 0 0 0 0 0 0 0 0 0 0 509 0.0008 0 
8968 1 0.0257388 -0.0455231 -0.0146973 0 0 0 2.98457 -30.6877 93.3989 -1.50231 0.79812 -1.22835 1 0 0 1 1 0 0 0 0 0 0 0 0 0 0 0 169 0.0008 0 
5208 5 0.0264691 -0.0445198 -0.0150787 0 0 0 -0.173561 -30.0031 88.9989 0.280617 0.0327876 0.337783 1 0 0 0 1 0 0 0 0 0 0 0 0 0 0 0 131 0.0008 0 
9359 3 0.0202929 -0.0467467 -0.00938642 0 0 0 -0.0100912 -18.8513 93.4527 -0.0160693 0.19209 0.0410923 1 0 2 0 0 0 0 0 0 0 0 0 0 0 0 0 470 0.0008 0 
16691 6 0.0210658 -0.046727 -0.0105101 0 0 0 -0.247923 -20.5273 93.544 0.00763698 0.195722 0.100403 1 1 2 0 0 4 1 0 0 0 0 0 0 0 0 0 370 0.0008 0 
3794 3 0.0212759 -0.0463388 -0.00971601 0 0 0 -0.0126038 -19.508 92.6571 -0.00892667 0.206386 0.0535517 1 0 3 0 0 1 0 0 0 0 0 0 0 0 0 0 823 0.0008 0 
16848 5 0.0220473 -0.0457431 -0.0111396 0 0 0 -0.630983 -20.8139 91.993 0.0119824 0.1685 0.0338831 0 0 1 0 6 1 1 0 0 0 0 0 0 0 0 0 249 0.0008 0 
6942 12 0.0222113 -0.0459921 -0.0105369 0 0 0 -0.455466 -20.3866 92.4749 0.0242169 0.235867 0.0800013 0 0 2 0 1 1 1 0 0 0 0 4 0 0 0 0 606 0.0008 0 
1252 1 0.0230874 -0.046043 -0.0116457 0 0 0 -0.840956 -22.6701 91.9254 0.00927991 0.0917636 0.0593114 2 0 2 0 1 0 1 0 0 0 0 1 0 0 0 0 967 0.0008 0 
14579 9 0.0230574 -0.045187 -0.0119137 0 0 0 0.0840619 -23.3203 90.4023 -0.00122656 0.198227 0.0484524 1 1 1 0 1 0 0 0 3 0 0 0 0 0 0 0 475 0.0008 0 
5227 9 0.0238499 -0.0449191 -0.0118603 0 0 0 0.19048 -23.8547 89.6407 0.00332532 0.186276 0.0445143 1 1 0 0 0 0 0 0 3 0 0 0 0 0 0 0 812 0.0008 0 
12650 2 0.0248228 -0.0445197 -0.0129133 0 0 0 0.0872851 -25.9672 88.9899 -0.000757021 0.193475 0.0514091 0 3 0 1 0 0 0 0 1 0 0 0 0 0 0 0 526 0.0008 0 
370 1 0.0240389 -0.0443008 -0.0125457 0 0 0 0.124659 -24.8188 88.6843 0.00333567 0.195615 0.0512661 2 2 0 0 0 0 0 0 2 0 0 0 0 0 0 0 850 0.0008 0 
16015 1 0.0255505 -0.0439667 -0.0137976 0 0 0 -0.0559386 -27.5662 87.9135 0.00280692 0.18903 0.0615163 2 1 0 1 0 0 0 0 0 0 0 0 0 0 0 0 359 0.0008 0 
2800 3 0.0264672 -0.0432844 -0.0143765 0 0 0 -0.106288 -28.661 86.4194 0.0381748 0.180518 0.103565 1 0 0 0 1 0 0 0 0 0 0 0 0 0 0 0 695 0.0008 0 
17341 8 0.0157752 -0.0399104 -0.0406917 0 0 0 0.692188 -2.95418 5.13882 0 -1.05196e-05 0 0 0 0 0 0 0 0 0 0 0 0 0 0 0 0 0 61 0.0008 0 
4033 5 0.0201676 -0.0454311 -0.00881548 0 0 0 0.0214811 -17.6446 90.8749 -0.00039033 0.195699 0.0386726 0 0 1 0 2 0 0 0 0 0 0 0 0 0 0 0 785 0.0008 0 
9248 8 0.0212677 -0.0454124 -0.0100195 0 0 0 -0.0515602 -19.5516 91.1504 -0.0139577 0.217837 0.0604081 0 0 1 0 1 1 0 3 0 0 0 1 0 0 0 0 559 0.0008 0 
7206 6 0.0210299 -0.0453453 -0.00901879 0 0 0 -0.0223279 -18.133 90.6429 -0.00569628 0.197506 0.0454517 0 0 1 0 1 2 0 1 0 0 0 0 0 0 0 0 779 0.0008 0 
5538 5 0.0211633 -0.0442814 -0.00932128 0 0 0 -0.0288741 -18.4688 88.6943 -0.00221269 0.190355 0.0443678 0 0 0 0 5 1 0 1 0 0 0 0 0 0 0 0 744 0.0008 0 
123 1 0.0221865 -0.044702 -0.0106802 0 0 0 -0.0613935 -20.8332 89.6597 -0.00437266 0.215782 0.0597985 4 0 0 0 1 0 0 1 1 0 0 1 0 0 0 0 979 0.0008 0 
76 8 0.022594 -0.0446369 -0.0104042 0 0 0 0.137801 -20.7706 89.1734 -0.00230526 0.205943 0.0556084 1 0 0 0 1 0 0 3 0 0 0 1 0 0 0 0 863 0.0008 0 
7079 5 0.023237 -0.0438615 -0.0113097 0 0 0 0.0103176 -22.5763 87.7957 0.000991004 0.190199 0.0489702 2 0 0 0 3 0 0 1 2 0 0 0 0 0 0 0 585 0.0008 0 
258 1 0.0242213 -0.0430204 -0.0118143 0 0 0 0.0142415 -23.6806 86.0582 0.000931537 0.184968 0.050728 4 0 0 0 1 0 0 0 0 0 0 0 0 0 0 0 864 0.0008 0 
10493 4 0.0251187 -0.0431867 -0.0129109 0 0 0 -0.0486939 -25.7876 86.4187 0.000580828 0.186121 0.0552314 3 1 0 2 0 0 0 0 0 0 0 0 0 0 0 0 477 0.0008 0 
2710 6 0.0267282 -0.0417234 -0.0139519 0 0 0 -0.035727 -27.9465 83.4537 1.65225e-05 0.179025 0.0600283 0 0 0 0 0 3 0 0 0 0 0 0 0 0 0 0 787 0.0008 0 
2399 5 0.0259064 -0.0421303 -0.0133473 0 0 0 -0.0388115 -26.6223 84.3356 0.000175461 0.181107 0.0571271 0 0 0 1 2 1 0 0 0 0 0 0 0 0 0 0 918 0.0008 0 
14906 2 0.0275452 -0.0409336 -0.0145095 0 0 0 -0.0371146 -28.9956 81.9155 -1.52708e-05 0.175801 0.0621736 0 2 0 0 0 1 0 0 0 0 0 0 0 0 0 0 254 0.0008 0 
19642 8 0.0291723 -0.0409904 -0.0163468 0 0 0 -12.0949 -27.0873 71.8485 2.33644 -0.305154 2.43863 0 0 0 0 0 0 0 1 0 0 0 0 0 0 0 0 50 0.0012 0 
19073 1 0.0303733 -0.0394889 -0.0168546 0 0 0 -4.83376 -31.5389 75.4381 6.28189 -2.15187 6.72589 3 0 0 0 0 0 0 1 0 0 0 0 0 0 0 0 95 0.0012 0 
4900 4 0.0310145 -0.040207 -0.018046 0 0 0 -0.358413 -35.9594 80.064 0.107914 0.105712 0.193185 1 0 0 0 0 0 0 0 0 0 0 0 0 0 0 0 121 0.0008 0 
9517 2 0.0210621 -0.0479452 -0.0345931 0 0 0 5.3463 -9.84292 18.6346 -0.00139434 0.00827997 0.0139389 0 0 0 0 0 0 0 0 0 0 0 0 0 0 0 0 72 0.0008 0 
15848 6 0.0208979 -0.0432381 -0.00864939 0 0 0 0.0353886 -17.0759 86.5577 -0.000996198 0.185144 0.0365095 0 0 0 0 1 7 0 0 0 0 0 0 0 0 0 0 121 0.0008 0 
579 4 0.0202081 -0.044271 -0.00829245 0 0 0 0.00519735 -16.5501 88.5645 0.000103798 0.190844 0.0359554 0 0 0 1 2 2 0 0 0 0 0 0 0 0 0 0 564 0.0008 0 
15817 4 0.0210113 -0.0439412 -0.00813234 0 0 0 -0.027651 -16.5848 87.6646 0.00056355 0.18878 0.0370909 0 0 0 3 1 1 0 0 0 0 0 0 0 0 0 0 252 0.0008 0 
2095 7 0.0221175 -0.0433268 -0.0100839 0 0 0 -0.00318344 -19.935 86.8573 0.000428909 0.196239 0.0461184 1 0 0 0 1 0 4 1 0 0 0 0 0 0 0 0 870 0.0008 0 
15619 1 0.0219533 -0.0440142 -0.00943678 0 0 0 0.0567831 -19.0273 87.9392 0.00144135 0.196088 0.0450386 2 0 0 0 1 1 1 1 0 0 0 0 0 0 0 0 374 0.0008 0 
1830 1 0.0226947 -0.042636 -0.00972403 0 0 0 0.0998615 -19.4068 85.2057 0.00145712 0.183419 0.0429091 5 0 0 0 0 0 1 0 0 0 0 0 0 0 0 0 779 0.0008 0 
34 8 0.0229852 -0.043548 -0.0104013 0 0 0 0.0710007 -20.9182 87.0897 0.00373073 0.194087 0.0459449 3 0 0 0 1 0 1 1 0 0 0 0 0 0 0 0 909 0.0008 0 
12424 6 0.0234728 -0.042762 -0.0108695 0 0 0 -0.0149274 -21.6789 85.5092 0.000932579 0.184503 0.0465926 2 0 0 0 1 1 0 1 0 0 0 0 0 0 0 0 569 0.0008 0 
15410 5 0.0241388 -0.0419099 -0.0111909 0 0 0 0.0133524 -22.3874 83.804 0.000264442 0.179837 0.0478781 1 0 0 0 4 1 0 0 0 0 0 0 0 0 0 0 493 0.0008 0 
6228 2 0.0250975 -0.0421696 -0.0123966 0 0 0 -0.033718 -24.7952 84.3786 -0.000294534 0.181078 0.0532291 1 2 0 1 2 0 0 0 0 0 0 0 0 0 0 0 684 0.0008 0 
3400 4 0.0249806 -0.0413789 -0.0117451 0 0 0 0.00915612 -23.477 82.7323 0.000128835 0.177478 0.0503662 0 1 0 3 1 0 0 0 0 0 0 0 0 0 0 0 945 0.0008 0 
4454 12 0.0265423 -0.0404996 -0.0131039 0 0 0 -0.0159914 -26.2738 80.9653 -7.02728e-06 0.1736 0.0565088 0 0 0 0 0 1 0 0 0 0 0 3 0 0 0 0 848 0.0008 0 
3056 7 0.0256679 -0.041025 -0.0126552 0 0 0 -0.0463999 -25.2579 82.1019 2.44341e-05 0.176131 0.0539664 0 1 0 1 1 0 1 0 0 0 0 1 0 0 0 0 874 0.0008 0 
83 6 0.0282329 -0.0399146 -0.0147596 0 0 0 0.00406922 -29.5681 79.8237 1.08062e-05 0.171206 0.0635068 0 1 0 0 0 1 0 0 0 0 0 0 0 0 0 0 908 0.0008 0 
17183 5 0.0273299 -0.0396793 -0.0137531 0 0 0 -0.094658 -27.4682 79.4502 1.73777e-06 0.17062 0.0588459 0 1 0 0 1 1 0 0 0 0 0 1 0 0 0 0 207 0.0008 0 
16148 6 0.0318632 -0.0384887 -0.0171729 0 0 0 -0.716454 -34.1551 76.444 0.0652217 0.101783 0.141369 1 0 0 0 0 5 0 0 0 0 0 0 0 0 0 0 369 0.0008 0 
5066 2 0.0328232 -0.0380859 -0.0165202 0 0 0 -0.0935044 -33.1348 76.1407 -0.0296345 0.158495 0.0887692 0 4 0 0 0 1 0 0 0 0 0 0 0 0 0 0 626 0.0008 0 
19122 5 0.0306864 -0.0374838 -0.0177028 0 0 0 -0.187197 -35.2916 74.6883 0.127315 0.552758 0.280379 1 0 0 0 6 1 0 0 0 0 0 0 0 0 0 0 197 0.0012 0 
16766 3 0.0322509 -0.0383732 -0.0183321 0 0 0 -0.0398455 -36.6622 76.6111 0.00805765 0.170631 0.0661532 0 0 1 0 1 1 0 0 0 0 0 0 0 0 0 0 209 0.0008 0 
760 7 0.0335314 -0.0375599 -0.0175619 0 0 0 0.0141027 -35.1073 75.1229 -0.00461581 0.160636 0.0722119 0 1 0 0 0 0 2 0 0 0 0 0 0 0 0 0 880 0.0008 0 
100 2 0.0319708 -0.0372495 -0.0191111 0 0 0 -0.00946813 -38.1958 74.482 -0.00513722 0.16678 0.0768048 0 3 1 0 1 0 0 0 0 0 0 0 0 0 0 0 1006 0.0008 0 
11780 5 0.0332795 -0.0369807 -0.0189015 0 0 0 0.0378937 -37.7444 73.9266 -0.000491436 0.15822 0.0811526 0 1 0 0 1 0 1 0 0 0 0 0 0 0 0 0 559 0.0008 0 
1299 8 0.0209308 -0.0426044 -0.00741264 0 0 0 0.0480429 -15.0728 85.0963 0.000107161 0.182281 0.0329756 0 0 0 1 0 1 0 4 0 0 0 0 0 0 0 0 1037 0.0008 0 
2651 9 0.0200588 -0.0432443 -0.00761888 0 0 0 0.0397887 -15.2413 86.4771 0.00132738 0.186474 0.0329796 0 0 0 2 0 1 0 1 2 0 0 0 0 0 0 0 930 0.0008 0 
53 4 0.0208218 -0.0421587 -0.00798665 0 0 0 0.0571566 -15.785 84.3467 3.80238e-05 0.180854 0.0333534 0 0 0 5 0 1 0 1 1 0 0 0 0 0 0 0 1037 0.0008 0 
5218 9 0.0217727 -0.0427168 -0.00872708 0 0 0 -0.010058 -17.5579 85.3379 -3.22976e-05 0.183331 0.0392235 2 0 0 2 0 1 1 1 0 0 0 0 0 0 0 0 682 0.0008 0 
3831 9 0.0219609 -0.0416648 -0.00898688 0 0 0 -0.0993644 -17.8415 83.4351 -0.000179329 0.179758 0.0381439 1 0 0 1 0 0 0 0 5 0 0 0 0 0 0 0 866 0.0008 0 
9969 12 0.0238088 -0.0413046 -0.0102731 0 0 0 0.0218624 -20.6772 82.4898 -0.000284438 0.174801 0.0446476 0 0 0 0 1 0 0 0 0 0 0 2 0 0 0 0 648 0.0008 0 
3437 2 0.0229833 -0.0414589 -0.00994344 0 0 0 0.00153234 -19.7316 82.9962 -8.25598e-05 0.177862 0.0422103 1 2 0 0 0 0 0 0 1 0 0 1 0 0 0 0 888 0.0008 0 
9513 9 0.0243935 -0.0406248 -0.0109012 0 0 0 0.0711037 -21.8008 81.2123 -0.000827057 0.174387 0.0483961 0 0 0 1 1 0 0 0 1 0 0 1 0 0 0 0 665 0.0008 0 
5630 1 0.025546 -0.0402788 -0.0119788 0 0 0 0.0408792 -23.9147 80.5696 2.34604e-05 0.172901 0.0510832 1 0 0 1 0 0 1 0 0 0 0 1 0 0 0 0 848 0.0008 0 
4081 6 0.0274763 -0.0387971 -0.0133157 0 0 0 0.126151 -26.5995 77.4902 2.27579e-05 0.165912 0.0569374 0 0 0 0 1 0 0 0 0 0 0 0 0 0 0 0 849 0.0008 0 
847 1 0.0312025 -0.0362943 -0.0164656 0 0 0 -0.0160021 -32.9835 72.5709 -0.00141435 0.155905 0.0691088 6 0 0 0 1 0 0 0 0 0 0 0 0 0 0 0 676 0.0008 0 
13155 7 0.0312136 -0.037736 -0.0161499 0 0 0 -0.211151 -32.2665 75.3721 -0.0351547 0.160182 0.0406557 1 0 0 0 1 1 1 0 0 0 0 0 0 0 0 0 450 0.0008 0 
759 5 0.0321978 -0.0371316 -0.0156934 0 0 0 -0.00970396 -31.4291 74.2236 -0.00185666 0.15934 0.0620041 1 1 0 0 3 0 1 0 0 0 0 0 0 0 0 0 1040 0.0008 0 
134 7 0.0333433 -0.0368643 -0.0162837 0 0 0 0.0166479 -32.5765 73.7075 -0.00316889 0.156826 0.0685038 0 1 0 0 1 0 3 0 0 0 0 0 0 0 0 0 831 0.0008 0 
19579 3 0.032301 -0.0366669 -0.0176271 0 0 0 0.0446722 -35.2913 73.3418 -0.0120198 0.534569 0.251309 1 2 5 0 3 1 2 0 0 0 0 0 0 0 0 0 273 0.0012 0 
9772 4 0.0336182 -0.0358733 -0.0170083 0 0 0 0.00346271 -34.0026 71.741 -0.000438648 0.154281 0.0731808 0 0 1 3 0 0 1 0 0 0 0 0 0 0 0 0 725 0.0008 0 
11851 5 0.0307812 -0.0354501 -0.0179566 0 0 0 -0.0651521 -36.0665 70.9195 -0.00132625 0.149997 0.0764354 0 0 1 0 4 0 0 0 0 0 0 0 0 0 0 0 517 0.0008 0 
3796 15 0.0321318 -0.0351134 -0.018435 0 0 0 -0.0403141 -36.8273 70.2355 -0.000607404 0.15082 0.0783116 0 0 1 0 1 0 0 0 0 0 0 0 0 0 4 0 616 0.0008 0 
7478 3 0.0312874 -0.0361471 -0.0188065 0 0 0 -0.022439 -37.6015 72.3399 -0.00406297 0.160898 0.0807443 0 1 0 0 2 0 0 0 0 0 0 0 0 0 1 0 801 0.0008 0 
462 7 0.00461172 -0.024012 -0.0388162 0 0 0 -0.142742 -1.76864 0.422274 0 -1.05196e-05 0 0 0 0 0 0 0 0 0 0 0 0 0 0 0 0 0 109 0.0008 0 
44 2 0.0201758 -0.042005 -0.00704903 0 0 0 0.0636748 -14.1333 83.9806 0.000130013 0.180188 0.0301296 0 1 0 1 0 0 0 1 1 0 0 0 0 0 0 0 956 0.0008 0 
4086 2 0.0217816 -0.0411986 -0.00779664 0 0 0 0.0555929 -15.887 82.3222 -0.00103828 0.177145 0.0348664 0 3 0 1 0 0 0 0 1 0 0 0 0 0 0 0 358 0.0008 0 
717 6 0.0212675 -0.0409861 -0.00796452 0 0 0 0.0575284 -15.4371 82.0466 0.000283666 0.175611 0.0314668 0 1 0 1 0 4 0 0 1 0 0 0 0 0 0 0 898 0.0008 0 
6430 3 0.0226308 -0.0411557 -0.00877438 0 0 0 0.0725343 -17.7489 82.1708 -0.000149066 0.176551 0.0388258 0 2 1 0 0 1 0 0 1 0 0 0 0 0 0 0 866 0.0008 0 
10725 10 0.022908 -0.0404353 -0.00927653 0 0 0 0.0878127 -18.4505 80.8935 -0.000410201 0.174512 0.038792 0 1 1 0 0 0 0 0 1 2 0 0 0 0 0 0 795 0.0008 0 
10239 8 0.0246829 -0.0388843 -0.0103541 0 0 0 -0.00202818 -20.6562 77.8062 -8.25701e-05 0.166924 0.0442395 0 0 0 0 0 0 0 3 0 0 0 0 0 0 0 0 565 0.0008 0 
10324 7 0.0253285 -0.0394139 -0.0113526 0 0 0 -0.045592 -22.6636 78.8736 -0.000106489 0.169197 0.0486671 1 0 0 0 0 0 1 1 1 0 0 0 0 0 0 0 619 0.0008 0 
8933 4 0.0255805 -0.0383474 -0.0111536 0 0 0 -0.00725269 -22.3155 76.7155 -5.69338e-05 0.164502 0.0479521 0 0 0 0 0 0 1 1 0 0 0 0 0 0 0 0 658 0.0008 0 
2167 5 0.0304794 -0.0352567 -0.0156772 0 0 0 0.022632 -31.3943 70.5164 0.00018586 0.151851 0.0676012 1 0 0 0 4 0 0 0 0 0 0 0 0 0 0 0 880 0.0008 0 
9091 5 0.0314572 -0.0360582 -0.0152408 0 0 0 0.0163195 -30.5592 72.096 0.000444808 0.156378 0.0661029 1 0 0 0 3 0 0 0 0 0 0 0 0 0 0 0 630 0.0008 0 
3304 6 0.0329125 -0.0357259 -0.0155344 0 0 0 0.0137057 -31.1319 71.4375 -0.000250292 0.152757 0.0672113 0 0 0 0 2 3 1 0 0 0 0 0 0 0 0 0 1034 0.0008 0 
564 10 0.0301998 -0.0353951 -0.0168634 0 0 0 -0.0121814 -33.7748 70.8063 1.42987e-05 0.152976 0.0715221 1 0 0 0 2 0 0 0 0 1 0 0 0 0 0 0 1021 0.0008 0 
13798 2 0.0322576 -0.0350522 -0.0170716 0 0 0 -0.0151706 -34.1851 70.0649 -0.000539674 0.149778 0.0727773 0 4 1 1 0 0 0 0 0 0 0 0 0 0 1 0 520 0.0008 0 
6951 2 0.0335448 -0.0347325 -0.0164629 0 0 0 -0.012258 -32.9637 69.4955 0.000110306 0.14878 0.0706809 0 3 0 1 0 1 0 0 0 0 0 0 0 0 0 0 677 0.0008 0 
12101 1 0.0309002 -0.0343087 -0.0170532 0 0 0 0.019518 -34.2235 68.6746 -0.00010076 0.14699 0.0726157 2 1 0 0 1 0 0 0 0 1 0 0 0 0 0 0 526 0.0008 0 
14143 1 0.0316719 -0.0340354 -0.0179213 0 0 0 -0.0194981 -35.7825 68.1191 -0.000127864 0.146046 0.0765476 1 1 0 0 0 0 0 0 0 0 0 0 0 0 1 0 391 0.0008 0 
3345 7 0.0332808 -0.0350828 -0.0179882 0 0 0 0.00308587 -35.9925 70.1415 -0.000574867 0.150648 0.0769995 0 2 1 1 0 0 1 0 0 0 0 0 0 0 1 0 304 0.0008 0 
7518 5 0.0207937 -0.040939 -0.00652317 0 0 0 0.00631021 -13.3162 81.7032 0.000194124 0.17457 0.0287227 0 1 0 0 2 1 0 0 0 0 0 0 0 0 0 0 740 0.0008 0 
7049 2 0.0199802 -0.0408888 -0.00649682 0 0 0 0.0136519 -12.9725 81.7694 0.000304825 0.175026 0.027658 0 0 0 0 1 0 0 0 0 0 0 0 0 0 0 0 880 0.0008 0 
17555 2 0.0207446 -0.0402557 -0.00700225 0 0 0 -0.0164651 -13.8507 80.6774 0.000387857 0.172913 0.0293147 0 1 0 0 1 1 0 0 0 0 0 0 0 0 0 0 277 0.0008 0 
16590 4 0.0216826 -0.0398275 -0.00742155 0 0 0 -0.0645223 -14.882 79.7635 5.97513e-05 0.171182 0.0320474 0 2 0 1 0 1 0 0 0 0 0 0 0 0 0 0 354 0.0008 0 
10637 1 0.023662 -0.0390788 -0.00932623 0 0 0 -0.0656266 -18.6712 78.2402 3.90335e-05 0.167921 0.0400993 1 0 0 0 0 0 0 1 0 1 0 0 0 0 0 0 500 0.0008 0 
9675 5 0.0226312 -0.0394867 -0.00833513 0 0 0 -0.056178 -16.6785 79.0412 5.25501e-05 0.169674 0.0358319 1 0 0 1 0 0 0 0 0 1 0 0 0 0 0 0 225 0.0008 0 
5616 7 0.0308089 -0.0342919 -0.0148648 0 0 0 0.0416957 -29.7685 68.5927 0.000160661 0.147299 0.0640743 0 0 0 0 1 0 4 0 0 0 0 0 0 0 0 0 761 0.0008 0 
11146 1 0.03205 -0.0348328 -0.0146258 0 0 0 0.0294937 -29.3564 69.6147 0.000201613 0.149794 0.0637611 2 0 0 0 1 1 1 0 0 0 0 0 0 0 0 0 558 0.0008 0 
16871 1 0.0302432 -0.0338058 -0.0160716 0 0 0 -0.00237808 -32.1317 67.6488 -1.08683e-05 0.144809 0.0687058 1 0 0 0 1 0 1 0 0 0 0 0 0 0 0 0 310 0.0008 0 
2782 8 0.0315902 -0.033433 -0.0163683 0 0 0 0.0127611 -32.8155 66.8769 0.00052289 0.14281 0.07052 2 0 0 0 0 0 0 4 0 0 0 0 0 0 0 0 1046 0.0008 0 
7604 2 0.0317897 -0.0348634 -0.0159348 0 0 0 0.0406072 -31.9714 69.7113 -9.61662e-05 0.149303 0.0687303 2 1 0 0 2 1 1 1 0 0 0 0 0 0 0 0 644 0.0008 0 
20087 3 0.0331017 -0.0334344 -0.0155256 0 0 0 -0.0059588 -31.0114 66.8826 0.00117858 0.482802 0.223274 1 2 5 0 0 0 0 1 0 0 0 0 0 0 0 0 56 0.0012 0 
5427 6 0.0329169 -0.0337147 -0.0173377 0 0 0 0.031842 -34.7328 67.4504 0.000448864 0.143559 0.0747002 1 2 1 0 0 0 1 0 0 0 0 0 0 0 0 0 476 0.0008 0 
16897 7 0.00799645 -0.050033 -0.0308331 0 0 0 -0.274 -6.40925 11.9015 0 -1.05196e-05 0 0 0 0 0 0 0 0 0 0 0 0 0 0 0 0 0 44 0.0008 0 
17475 3 0.00664603 -0.0489909 -0.0315023 0 0 0 1.14159 -8.62465 9.74053 0 -1.05196e-05 0 0 0 0 0 0 0 0 0 0 0 0 0 0 0 0 0 48 0.0008 0 
14584 10 0.00287715 -0.0259112 -0.0353136 0 0 0 0.375372 -1.67186 0.383639 0 -1.05196e-05 0 0 0 0 0 0 0 0 0 0 0 0 0 0 0 0 0 75 0.0008 0 
14194 2 0.0152836 -0.01728 -0.0351122 0 0 0 0.607984 -4.35429 0.579923 0 -1.05196e-05 0 0 0 0 0 0 0 0 0 0 0 0 0 0 0 0 0 73 0.0008 0 
3329 4 0.0325291 -0.0331692 -0.0139284 0 0 0 -0.0162256 -27.8535 66.3566 3.83739e-05 0.142403 0.0598202 0 0 1 1 0 0 0 0 0 0 0 0 0 0 0 0 917 0.0008 0 
18733 5 0.0309303 -0.032645 -0.0145865 0 0 0 0.0058288 -29.2071 65.2765 0.000633523 0.47299 0.213526 0 0 0 1 2 0 1 0 0 0 0 0 0 0 0 0 418 0.0012 0 
16763 1 0.0306142 -0.0322738 -0.016325 0 0 0 0.00227427 -32.7187 64.5237 0.00040751 0.138762 0.0706333 0 0 0 0 1 0 0 1 0 0 0 0 0 0 0 0 301 0.0008 0 
6581 1 0.0319822 -0.0322872 -0.0170586 0 0 0 0.00117969 -34.1766 64.5513 0.00101384 0.13854 0.0733764 0 0 0 0 0 0 0 1 0 0 0 0 0 0 0 0 666 0.0008 0 
47 1 0.033175 -0.0317403 -0.016222 0 0 0 -0.00639544 -32.4219 63.4686 -8.5977e-05 0.135838 0.0692288 3 0 1 0 0 0 0 0 0 0 0 0 0 0 0 0 874 0.0008 0 
5474 3 0.0193467 -0.0527544 -0.0260124 0 0 0 0.926822 -8.66824 15.8331 0 -1.05196e-05 0 0 0 0 0 0 0 0 0 0 0 0 0 0 0 0 0 134 0.0008 0 
11036 12 0.00980711 -0.049361 -0.0299878 0 0 0 0.885355 -8.78329 10.0018 0 -1.05196e-05 0 0 0 0 0 0 0 0 0 0 0 0 0 0 0 0 0 135 0.0008 0 
739 7 0.0335258 -0.0317169 -0.0147867 0 0 0 0.000729945 -29.5074 63.4146 -1.70061e-05 0.135162 0.0627076 1 0 1 0 0 0 0 0 0 0 0 0 0 0 0 0 967 0.0008 0 
2556 1 0.0313757 -0.0309687 -0.0162837 0 0 0 -0.077684 -32.561 61.9531 -0.000301732 0.133932 0.0703884 2 0 0 0 0 0 0 0 0 0 0 0 0 0 0 0 981 0.0008 0 
6688 7 0.0321656 -0.031694 -0.0152993 0 0 0 -0.0277156 -30.6058 63.3466 1.54577e-05 0.135788 0.0662766 2 0 1 0 1 0 1 0 0 0 0 0 0 0 0 0 697 0.0008 0 
5110 13 0.0327419 -0.0303365 -0.0158966 0 0 0 -0.0492448 -31.7948 60.653 -0.000809361 0.130176 0.0678708 2 0 0 0 0 0 1 0 0 0 0 0 0 0 0 0 1004 0.0008 0 
3551 3 0.0412979 -0.053474 -0.0293885 0 0 0 0.105699 0.1351 -0.217851 5.12075e-09 -3.10195e-06 2.48386e-06 0 0 0 0 0 0 0 0 0 0 0 0 0 0 0 0 88 0.0008 0 
14055 8 0.0213324 -0.0547954 -0.0272397 0 0 0 -0.389792 -0.0205354 0.0467691 0 -1.05196e-05 0 0 0 0 0 0 0 0 0 0 0 0 0 0 0 0 0 35 0.0008 0 
15205 2 0.0448051 -0.0560807 -0.0239229 0 0 0 0.0140138 0.00794372 -0.0204941 -9.588e-07 -3.13439e-06 8.00173e-06 0 0 0 0 0 0 0 0 0 0 0 0 0 0 0 0 33 0.0008 0 
6450 6 0.0286016 -0.0564763 -0.0229016 0 0 0 0.0878976 0.031365 -0.0809624 -5.62634e-18 -9.80505e-07 2.53098e-06 0 0 0 0 0 0 0 0 0 0 0 0 0 0 0 0 121 0.0008 0 
17011 3 0.0454984 -0.056758 -0.0221746 0 0 0 0.0485395 -0.0207843 0.0536502 5.09506e-07 3.89188e-07 -1.00514e-06 0 0 0 0 0 0 0 0 0 0 0 0 0 0 0 0 47 0.0008 0 
13870 2 0.0473483 -0.0562914 -0.0233789 0 0 0 0.0802338 0.0658536 -0.169988 4.16756e-19 -9.80505e-07 2.53098e-06 0 0 0 0 0 0 0 0 0 0 0 0 0 0 0 0 17 0.0008 0 
19112 5 0.0445497 -0.0586687 -0.00200205 0 0 0 -2.19396 -0.0126332 41.4378 0.00414405 0.534966 -0.0563896 0 0 0 0 0 0 0 0 0 0 0 0 0 0 0 0 2 0.0012 0 
338 3 0.0415972 -0.0573231 -0.0207158 0 0 0 0.00479969 0.0388476 -0.100277 3.08223e-19 -9.80505e-07 2.53098e-06 0 0 0 0 0 0 0 0 0 0 0 0 0 0 0 0 93 0.0008 0 
874 2 0.0158103 -0.0579612 -0.0190687 0 0 0 -0.0113508 0.00923449 -0.023837 1.2736e-18 -9.80505e-07 2.53098e-06 0 0 0 0 0 0 0 0 0 0 0 0 0 0 0 0 83 0.0008 0 
18020 5 0.0283998 -0.058165 -0.0185426 0 0 0 0.0709993 0.0193923 -0.0500574 1.91281e-18 -9.80505e-07 2.53098e-06 0 0 0 0 0 0 0 0 0 0 0 0 0 0 0 0 45 0.0008 0 
10842 11 0.0363696 -0.0580314 -0.0188875 0 0 0 0.0827894 -0.00228055 0.00588678 -1.80734e-17 -9.80505e-07 2.53098e-06 0 0 0 0 0 0 0 0 0 0 0 0 0 0 0 0 49 0.0008 0 
13872 3 0.0133988 -0.0589187 -0.0164363 0 0 0 -0.0253193 0.00594588 -0.0318076 3.53822e-18 -2.53692e-07 1.35713e-06 0 0 0 0 0 0 0 0 0 0 0 0 0 0 0 0 80 0.0008 0 
16806 4 0.0186297 -0.058618 -0.0173732 0 0 0 -0.0123992 0.00524995 -0.0135517 -8.5691e-19 -9.80505e-07 2.53098e-06 0 0 0 0 0 0 0 0 0 0 0 0 0 0 0 0 65 0.0008 0 
1903 4 0.0275243 -0.0588079 -0.0168831 0 0 0 0.0981706 0.0156524 -0.0404133 -9.55781e-11 -1.01228e-06 2.51763e-06 0 0 0 0 0 0 0 0 0 0 0 0 0 0 0 0 128 0.0008 0 
8602 1 0.0107989 -0.0591261 -0.0153265 0 0 0 -0.0445076 0.000390618 -0.00208962 -1.90249e-18 -2.53692e-07 1.35713e-06 0 0 0 0 0 0 0 0 0 0 0 0 0 0 0 0 48 0.0008 0 
2010 2 0.0265576 -0.0591981 -0.0149417 0 0 0 0.0514824 0.00644924 -0.0345004 4.44131e-18 -2.53692e-07 1.35713e-06 0 0 0 0 0 0 0 0 0 0 0 0 0 0 0 0 107 0.0008 0 
16168 4 0.0157701 -0.0592556 -0.0146338 0 0 0 -0.0123362 0.0031794 -0.0170083 1.56662e-19 -2.53692e-07 1.35713e-06 0 0 0 0 0 0 0 0 0 0 0 0 0 0 0 0 112 0.0008 0 
10441 10 0.0259195 -0.059496 -0.0133481 0 0 0 0.0685291 0.00336179 -0.017984 4.63232e-18 -2.53692e-07 1.35713e-06 0 0 0 0 0 0 0 0 0 0 0 0 0 0 0 0 140 0.0008 0 
11726 4 0.00104883 -0.0596269 -0.0126476 0 0 0 -0.001074 2.95479e-05 -0.000173813 1.44861e-07 3.78528e-09 -2.72661e-08 0 0 0 1 0 0 0 0 0 0 0 0 0 0 0 0 62 0.0008 0 
16349 4 0.00255781 -0.059526 -0.0131873 0 0 0 0.000181294 2.54081e-06 4.51903e-05 3.02499e-07 -5.82905e-08 -3.86616e-07 0 0 0 1 0 0 0 0 0 0 0 0 0 0 0 0 41 0.0008 0 
16870 13 0.00397632 -0.0596621 -0.0124592 0 0 0 0.000360044 -3.06417e-05 4.46199e-05 1.39084e-07 -7.97201e-08 -1.08545e-07 0 0 0 0 0 0 0 0 0 0 0 0 1 0 0 0 82 0.0008 0 
17147 2 0.0146883 -0.0595942 -0.0128224 0 0 0 -0.0312696 0.00222562 -0.011906 -1.605e-18 -2.53692e-07 1.35713e-06 0 0 0 0 0 0 0 0 0 0 0 0 0 0 0 0 78 0.0008 0 
340 4 0.0276669 -0.0595909 -0.01284 0 0 0 0.0420005 -0.0011086 0.0059305 2.76759e-20 -2.53692e-07 1.35713e-06 0 0 0 0 0 0 0 0 0 0 0 0 0 0 0 0 215 0.0008 0 
924 3 0.0317906 -0.0595596 -0.0130077 0 0 0 -0.0423463 0.00813164 -0.0435004 9.7102e-17 -2.53692e-07 1.35713e-06 0 0 0 0 0 0 0 0 0 0 0 0 0 0 0 0 86 0.0008 0 
7257 5 0.034446 -0.0597544 -0.0119624 0 0 0 0.0425589 -0.00106798 0.0577637 0 -1.05196e-05 0 0 0 0 0 0 0 0 0 0 0 0 0 0 0 0 0 74 0.0008 0 
1098 3 0.0474658 -0.0597473 -0.0120034 0 0 0 -0.058224 -0.00206072 0.0110239 -3.37956e-18 -2.53692e-07 1.35713e-06 0 0 0 0 0 0 0 0 0 0 0 0 0 0 0 0 82 0.0008 0 
17108 4 0.0133911 -0.0588119 -0.00500228 0 0 0 5.56255 -1.94977 17.2497 0 -1.05196e-05 0 0 0 0 0 0 0 0 0 0 0 0 0 0 0 0 0 55 0.0008 0 
4719 3 0.000799972 -0.0599173 -0.011094 0 0 0 -2.13613e-06 3.71465e-06 -8.00103e-06 -8.21209e-08 3.48307e-08 -2.26382e-09 0 0 2 1 0 0 0 0 0 0 0 0 0 0 0 0 133 0.0008 0 
14539 6 0.00230237 -0.0598162 -0.0116348 0 0 0 -1.02817e-05 -1.37784e-06 -1.47125e-05 -1.42339e-07 1.67988e-07 -2.22941e-07 0 0 1 1 0 0 0 0 0 0 0 0 0 0 0 0 75 0.0008 0 
689 6 0.00372054 -0.0599523 -0.0109067 0 0 0 -3.82661e-05 4.53382e-06 3.9622e-05 -1.19892e-07 1.65754e-07 -1.4953e-08 0 0 0 0 0 1 0 0 0 0 0 0 1 0 0 0 144 0.0008 0 
4777 3 0.00539459 -0.0597984 -0.0117301 0 0 0 0.000365248 -5.07129e-06 4.73401e-05 -1.64578e-07 2.67431e-08 -2.59522e-07 0 0 1 0 0 0 0 0 0 0 0 0 0 0 0 0 98 0.0008 0 
17363 3 0.00694506 -0.059945 -0.0109457 0 0 0 0.000332238 3.16345e-06 -2.21854e-05 -5.63109e-08 5.27439e-09 5.12132e-09 0 0 1 0 0 0 0 0 0 0 0 0 0 0 0 0 26 0.0008 0 