ITEM: TIMESTEP
18450000
ITEM: NUMBER OF ATOMS
2231
ITEM: BOX BOUNDS ff ff ff
-0.01 0.45
-0.15 0.15
-0.08 0.1
ITEM: ATOMS id type x y z ix iy iz vx vy vz fx fy fz c_cc_1 c_cc_2 c_cc_3 c_cc_4 c_cc_5 c_cc_6 c_cc_7 c_cc_8 c_cc_9 c_cc_10 c_cc_11 c_cc_12 c_cc_13 c_cc_14 c_cc_15 c_cc_16 f_fppacc radius 
1789 2 0.0037742 -0.04266 -0.0325025 0 0 0 3.82602 -1.24032 8.90041 0 -0.000164368 0 0 0 0 0 0 0 0 0 0 0 0 0 0 0 0 0 76 0.002 
663 7 0.00766586 -0.0172501 -0.0542292 0 0 0 0.175336 -11.0121 2.96547 0 -0.000164368 0 0 0 0 0 0 0 0 0 0 0 0 0 0 0 0 0 167 0.002 
2292 1 0.010311 -0.0224682 -0.0514338 0 0 0 -2.1239 -4.52455 4.79755 0 -0.000164368 0 0 0 0 0 0 0 0 0 0 0 0 0 0 0 0 0 0 0.002 
361 3 0.01116 -0.0122641 0.0563154 0 0 0 9.81862 35.5634 5.98258 0 -0.000164368 0 0 0 0 0 0 0 0 0 0 0 0 0 0 0 0 0 190 0.002 
1271 4 0.00705887 0.011793 -0.0597197 0 0 0 -1.03304e-16 -1.39991e-14 2.09586e-14 -1.73472e-18 0 0 0 0 0 0 0 0 0 0 0 0 0 0 0 0 0 0 131 0.002 
2282 6 0.00821627 0.0167175 -0.0461596 0 0 0 1.04613 -7.36628 -3.63316 0 -0.000164368 0 0 0 0 0 0 0 0 0 0 0 0 0 0 0 0 0 0 0.002 
2139 6 0.0174304 0.0163051 -0.0403581 0 0 0 0.282357 -2.90345 -1.47401 0 -0.000164368 0 0 0 0 0 0 0 0 0 0 0 0 0 0 0 0 0 35 0.002 
555 5 0.0163651 0.00878783 -0.0361825 0 0 0 0.174052 -6.84913 -6.36561 0 -0.000164368 0 0 0 0 0 0 0 0 0 0 0 0 0 0 0 0 0 186 0.002 
1445 5 0.00696187 0.0308996 -0.0197292 0 0 0 0.28923 -1.80505 1.15962 0 -0.000164368 0 0 0 0 0 0 0 0 0 0 0 0 0 0 0 0 0 154 0.002 
1065 3 0.00479371 0.0361392 -0.00034102 0 0 0 -0.43885 -2.12327 -1.37025 0 -0.000164368 0 0 0 0 0 0 0 0 0 0 0 0 0 0 0 0 0 125 0.002 
2243 1 0.00681131 0.0245105 0.0291545 0 0 0 -3.29536 -6.05775 2.6535 0 -0.000164368 0 0 0 0 0 0 0 0 0 0 0 0 0 0 0 0 0 2 0.002 
850 3 0.00715639 0.00929774 0.0439005 0 0 0 0.29393 -2.64907 2.2658 0 -0.000164368 0 0 0 0 0 0 0 0 0 0 0 0 0 0 0 0 0 131 0.002 
1734 14 0.0165773 0.0328278 0.0476445 0 0 0 5.41232 12.41 -7.80342 0.234378 -0.263157 -0.339898 0 0 0 0 0 0 0 0 0 0 0 0 0 0 0 0 85 0.002 
41 1 0.0150674 0.0528703 -0.0355008 0 0 0 5.81959e-16 -9.97516e-16 3.08544e-12 0 5.55112e-17 0 1 0 0 0 0 0 0 0 0 0 0 0 0 0 0 0 156 0.002 
480 3 0.0160532 0.0564897 -0.0354992 0 0 0 -5.82016e-16 1.12813e-15 3.08561e-12 0 0 0 1 0 0 0 0 0 0 0 0 0 0 0 0 0 0 0 200 0.002 
1707 1 0.0127315 0.062599 -0.0355 0 0 0 1.96482e-186 -1.42893e-19 3.37599e-12 5.37158e-186 0 0 0 0 0 0 0 0 0 0 0 0 0 0 0 0 0 0 1 0.002 
286 14 0.0158468 0.0688607 -0.0355 0 0 0 -6.84911e-130 1.42003e-19 3.3758e-12 1.15504e-129 0 0 0 0 0 0 0 0 0 0 0 0 0 0 0 0 0 0 131 0.002 
1981 13 0.00377877 0.0659206 -0.0322233 0 0 0 0.0568433 -1.19027 0.0626141 0 -0.000164368 0 0 0 0 0 0 0 0 0 0 0 0 0 0 0 0 0 28 0.002 
1650 1 0.00379249 0.0705021 -0.0330514 0 0 0 1.05142 -4.11118 1.38953 0.00422692 -0.0106681 -0.0300257 0 0 0 0 0 0 0 0 0 0 0 0 0 0 0 0 94 0.002 
2222 4 0.0177364 0.0615245 -0.0305911 0 0 0 0.874997 -1.12526 1.48939 0 -0.000164368 0 0 0 0 0 0 0 0 0 0 0 0 0 0 0 0 0 2 0.002 
161 8 0.0041904 0.047651 -0.0275831 0 0 0 1.07355 -4.55421 1.03594 0 -0.000164368 0 0 0 0 0 0 0 0 0 0 0 0 0 0 0 0 0 170 0.002 
1170 3 0.00626886 0.0688696 -0.0289186 0 0 0 0.277289 -0.95113 -0.101747 0 -0.000164368 0 0 0 0 0 0 0 0 0 0 0 0 0 0 0 0 0 97 0.002 
2305 9 0.00636461 0.0673177 -0.0252023 0 0 0 -2.89047 1.77764 -4.52039 0 -0.000164368 0 0 0 0 0 0 0 0 0 0 0 0 0 0 0 0 0 0 0.002 
1505 7 0.00415458 0.0433378 -0.0183376 0 0 0 1.10481 -2.43136 0.848006 0 -0.000164368 0 0 0 0 0 0 0 0 0 0 0 0 0 0 0 0 0 105 0.002 
677 9 0.00300183 0.0544645 -0.0176856 0 0 0 0.745286 -3.01305 2.42257 0 -0.000164368 0 0 0 0 0 0 0 0 0 0 0 0 0 0 0 0 0 221 0.002 
454 2 0.0096104 0.0676233 -0.0217974 0 0 0 5.52248 -2.28461 -3.00079 0 -0.000164368 0 0 0 0 0 0 0 0 0 0 0 0 0 0 0 0 0 33 0.002 
1325 5 0.0140673 0.0714974 0.00125961 0 0 0 -1.77285 1.30939 -2.5063 0 -0.000164368 0 0 0 0 0 0 0 0 0 0 0 0 0 0 0 0 0 62 0.002 
782 1 0.00649732 0.0731152 0.000375741 0 0 0 -0.17432 -0.536296 -1.521 0 -0.000164368 0 0 0 0 0 0 0 0 0 0 0 0 0 0 0 0 0 158 0.002 
1141 6 0.0182608 0.0742387 0.00267757 0 0 0 0.602073 0.275418 -1.72472 -0.00542506 0.00772144 -0.0233133 0 0 0 0 0 1 0 0 0 0 0 0 0 0 0 0 134 0.002 
629 8 0.00538336 0.0454472 0.00360197 0 0 0 -0.514424 -2.04409 -6.73973 0 -0.000164368 0 0 0 0 0 0 0 0 0 0 0 0 0 0 0 0 0 172 0.002 
2303 2 0.0180629 0.0736383 -0.0305718 0 0 0 2.79943 -3.01228 -2.10156 0 -0.000164368 0 0 0 0 0 0 0 0 0 0 0 0 0 0 0 0 0 0 0.002 
2088 3 0.00834741 0.0718097 0.00710669 0 0 0 -1.0901 -0.185111 -1.04301 0 -0.000164368 0 0 0 0 0 0 0 0 0 0 0 0 0 0 0 0 0 42 0.002 
1805 8 0.0135262 0.0727187 0.00698458 0 0 0 -0.27357 0.435618 -0.97423 0 -0.000164368 0 0 0 0 0 0 0 0 0 0 0 0 0 0 0 0 0 84 0.002 
238 13 0.00606319 0.0590177 0.00564973 0 0 0 0.422236 3.36948 -4.38532 0 -0.000164368 0 0 0 0 0 0 0 0 0 0 0 0 0 0 0 0 0 21 0.002 
299 1 0.0144535 0.0703844 0.011256 0 0 0 0.654228 0.549282 -1.44092 0 -0.000164368 0 0 0 0 0 0 0 0 0 0 0 0 0 0 0 0 0 168 0.002 
2299 2 0.0184134 0.0718792 0.0122111 0 0 0 0.176316 1.69087 -2.28329 0 -0.000164368 0 0 0 0 0 0 0 0 0 0 0 0 0 0 0 0 0 0 0.002 
447 1 0.00941248 0.0406979 0.019901 0 0 0 0.0751896 -2.59649 6.57391 0 -0.000164368 0 0 0 0 0 0 0 0 0 0 0 0 0 0 0 0 0 140 0.002 
242 6 0.00800643 0.0615564 0.0148589 0 0 0 -0.0967126 -0.322691 -0.944073 0 -0.000164368 0 0 0 0 0 0 0 0 0 0 0 0 0 0 0 0 0 80 0.002 
2248 4 0.0129134 0.0655118 0.0146526 0 0 0 -0.409391 -0.0143467 -0.919965 0 -0.000164368 0 0 0 0 0 0 0 0 0 0 0 0 0 0 0 0 0 1 0.002 
1276 6 0.00655721 0.074006 0.0158434 0 0 0 -0.305314 -0.203345 -0.18055 0 -0.000164368 0 0 0 0 0 0 0 0 0 0 0 0 0 0 0 0 0 142 0.002 
237 10 0.0111462 0.0735348 0.0150119 0 0 0 0.0272049 0.226912 -0.551337 0 -0.000164368 0 0 0 0 0 0 0 0 0 0 0 0 0 0 0 0 0 169 0.002 
1792 6 0.00987127 0.066753 0.017611 0 0 0 -0.328929 0.463403 -0.858099 0 -0.000164368 0 0 0 0 0 0 0 0 0 0 0 0 0 0 0 0 0 85 0.002 
542 4 0.0184463 0.0692539 0.0187009 0 0 0 -0.440566 0.0882699 -0.531896 0 -0.000164368 0 0 0 0 0 0 0 0 0 0 0 0 0 0 0 0 0 121 0.002 
1953 1 0.0158866 0.0734224 0.0169771 0 0 0 -0.500029 0.326604 0.254473 0 -0.000164368 0 0 0 0 0 0 0 0 0 0 0 0 0 0 0 0 0 53 0.002 
869 7 0.00467662 0.0647445 0.0205235 0 0 0 0.00745054 -0.202938 -0.445837 0 -0.000164368 0 0 0 0 0 0 0 0 0 0 0 0 0 0 0 0 0 168 0.002 
387 10 0.010101 0.0697686 0.0204543 0 0 0 0.0964841 0.148251 -0.288942 0 -0.000164368 0 0 0 0 0 0 0 0 0 0 0 0 0 0 0 0 0 96 0.002 
1606 5 0.00303007 0.0717451 0.0189594 0 0 0 0.0151536 0.018722 -0.446387 0 -0.000164368 0 0 0 0 0 0 0 0 0 0 0 0 0 0 0 0 0 115 0.002 
1013 8 0.00421804 0.0749351 0.0211929 0 0 0 -0.160608 -0.0840604 -0.0981689 0 -0.000164368 0 0 0 0 0 0 0 0 0 0 0 0 0 0 0 0 0 155 0.002 
949 3 0.00916635 0.0744886 0.02101 0 0 0 -0.434537 0.177578 0.0449642 0 -0.000164368 0 0 0 0 0 0 0 0 0 0 0 0 0 0 0 0 0 169 0.002 
618 7 0.0125172 0.0729071 0.019247 0 0 0 -0.293578 -0.238944 -0.0151018 0 -0.000164368 0 0 0 0 0 0 0 0 0 0 0 0 0 0 0 0 0 153 0.002 
1066 1 0.0186458 0.0733958 0.0204179 0 0 0 0.264224 0.00967972 -0.264943 0.0015819 0.0034641 0.00197141 1 0 0 0 0 0 0 0 0 0 0 0 0 0 0 0 122 0.002 
933 1 0.0115003 0.0630562 0.0221759 0 0 0 0.322739 0.305988 -0.668982 0 -0.000164368 0 0 0 0 0 0 0 0 0 0 0 0 0 0 0 0 0 157 0.002 
2127 4 0.00770841 0.0671837 0.0227056 0 0 0 -0.180238 0.250091 -0.395845 0 -0.000164368 0 0 0 0 0 0 0 0 0 0 0 0 0 0 0 0 0 41 0.002 
2043 12 0.0146201 0.0670923 0.0223317 0 0 0 -0.263877 -0.408275 -0.365932 0 -0.000164368 0 0 0 0 0 0 0 0 0 0 0 0 0 0 0 0 0 73 0.002 
1330 2 0.00354822 0.0686439 0.0216553 0 0 0 -0.209757 -0.123376 -0.438946 0 -0.000164368 0 0 0 0 0 0 0 0 0 0 0 0 0 0 0 0 0 135 0.002 
970 7 0.00644431 0.0715604 0.0213069 0 0 0 -0.307783 -0.157054 -0.160368 0 -0.000164368 0 0 0 0 0 0 0 0 0 0 0 0 0 0 0 0 0 179 0.002 
1185 6 0.00302854 0.0601934 0.0248545 0 0 0 0.0250482 -0.0112628 -0.540249 0 -0.000164368 0 0 0 0 0 0 0 0 0 0 0 0 0 0 0 0 0 123 0.002 
981 4 0.0154681 0.0628972 0.0253133 0 0 0 0.00905574 -0.0711108 -0.0501895 0 -0.000164368 0 0 0 0 0 0 0 0 0 0 0 0 0 0 0 0 0 141 0.002 
1994 3 0.012257 0.0661239 0.0255102 0 0 0 -0.0919916 0.102081 -0.0435147 0 -0.000164368 0 0 0 0 0 0 0 0 0 0 0 0 0 0 0 0 0 43 0.002 
1572 2 0.00610243 0.069872 0.0255559 0 0 0 -0.158071 0.0764104 -0.0609817 0 -0.000164368 0 0 0 0 0 0 0 0 0 0 0 0 0 0 0 0 0 115 0.002 
843 4 0.0122035 0.0705193 0.0239488 0 0 0 -0.0598905 -0.13413 -0.13713 0 -0.000164368 0 0 0 0 0 0 0 0 0 0 0 0 0 0 0 0 0 149 0.002 
2150 2 0.0156173 0.0723522 0.0252926 0 0 0 -0.265892 -0.165821 -0.0689582 0 -0.000164368 0 0 0 0 0 0 0 0 0 0 0 0 0 0 0 0 0 41 0.002 
199 4 0.0121874 0.0746366 0.0238234 0 0 0 -0.138349 -0.123969 -0.00225303 0 -0.000164368 0 0 0 0 0 0 0 0 0 0 0 0 0 0 0 0 0 224 0.002 
584 8 0.0034315 0.0647115 0.0267912 0 0 0 -0.319561 0.439326 -0.602108 0 -0.000164368 0 0 0 0 0 0 0 0 0 0 0 0 0 0 0 0 0 216 0.002 
1595 1 0.00821786 0.0663188 0.0273671 0 0 0 -0.00815428 0.00321391 -0.502274 0 -0.000164368 0 0 0 0 0 0 0 0 0 0 0 0 0 0 0 0 0 143 0.002 
1961 7 0.0160515 0.0691605 0.0277592 0 0 0 0.0623657 -0.101486 -0.181576 0 -0.000164368 0 0 0 0 0 0 0 0 0 0 0 0 0 0 0 0 0 83 0.002 
1012 7 0.00305488 0.0734161 0.0259393 0 0 0 -0.0017918 -0.0650059 -0.0235263 -0.00236574 -0.0011204 -0.00122268 0 0 0 0 0 0 1 0 0 0 0 0 0 0 0 0 115 0.002 
2144 6 0.0092344 0.0726759 0.0257756 0 0 0 0.0384376 -0.0622381 -0.106427 0 -0.000164368 0 0 0 0 0 0 0 0 0 0 0 0 0 0 0 0 0 47 0.002 
1631 1 0.0148257 0.051234 0.027799 0 0 0 -0.919401 -1.88071 -1.49626 0 -0.000164368 0 0 0 0 0 0 0 0 0 0 0 0 0 0 0 0 0 89 0.002 
187 7 0.00302834 0.0588978 0.0287528 0 0 0 0.139611 0.931846 -0.685949 -0.00200843 -0.000597496 0.000362073 0 0 0 0 0 0 1 0 0 0 0 0 0 0 0 0 89 0.002 
1381 4 0.00668152 0.0580242 0.0274044 0 0 0 -0.155899 1.11076 -1.81354 0.00200843 0.00026876 -0.000362073 0 0 0 0 0 0 1 0 0 0 0 0 0 0 0 0 102 0.002 
885 6 0.0155464 0.0605014 0.0286398 0 0 0 -0.0849882 -0.177795 0.158794 0 -0.000164368 0 0 0 0 0 0 0 0 0 0 0 0 0 0 0 0 0 116 0.002 
296 2 0.0119678 0.0627799 0.0288664 0 0 0 0.0550946 -0.229259 0.0788141 0 -0.000164368 0 0 0 0 0 0 0 0 0 0 0 0 0 0 0 0 0 160 0.002 
1239 4 0.0117434 0.0675948 0.0294789 0 0 0 -0.109468 0.0304549 0.132619 0 -0.000164368 0 0 0 0 0 0 0 0 0 0 0 0 0 0 0 0 0 135 0.002 
406 5 0.00491132 0.068259 0.0290926 0 0 0 -0.0273147 -0.0891909 -0.142445 0 -0.000164368 0 0 0 0 0 0 0 0 0 0 0 0 0 0 0 0 0 150 0.002 
77 12 0.00300141 0.0717692 0.0296652 0 0 0 0.00204862 -0.0846262 0.0331708 0 -0.000164368 0 0 0 0 0 0 0 0 0 0 0 0 0 0 0 0 0 196 0.002 
1140 12 0.00906046 0.0707448 0.0293989 0 0 0 0.0554953 0.0651578 0.0161333 0 -0.000164368 0 0 0 0 0 0 0 0 0 0 0 0 0 0 0 0 0 164 0.002 
1201 4 0.0135194 0.0717818 0.0296208 0 0 0 0.134073 -0.116241 0.0758932 0 -0.000164368 0 0 0 0 0 0 0 0 0 0 0 0 0 0 0 0 0 176 0.002 
1836 3 0.017612 0.0725434 0.0293789 0 0 0 -0.0667254 -0.207563 -0.0836688 0 -0.000164368 0 0 0 0 0 0 0 0 0 0 0 0 0 0 0 0 0 63 0.002 
2152 2 0.00656325 0.0738787 0.029641 0 0 0 -0.00281383 0.0131521 -0.0735028 -0.000906454 3.95244e-05 0.000374885 0 2 0 0 0 0 0 0 0 0 0 0 0 0 0 0 40 0.002 
426 3 0.0104692 0.0745316 0.0291137 0 0 0 0.0557994 -0.172882 -0.0310034 0.00109448 -0.000237241 -0.000660788 0 1 0 0 0 0 0 0 0 0 0 0 0 0 0 0 208 0.002 
1298 1 0.00392681 0.0512703 0.0319924 0 0 0 -1.28382 -0.00502168 -0.114487 0 -0.000164368 0 0 0 0 0 0 0 0 0 0 0 0 0 0 0 0 0 131 0.002 
1480 1 0.0121584 0.0527102 0.032093 0 0 0 -0.381271 -0.986844 -0.34366 0 -0.000164368 0 0 0 0 0 0 0 0 0 0 0 0 0 0 0 0 0 57 0.002 
1603 6 0.00428819 0.062447 0.0301742 0 0 0 -0.0175765 0.397675 -0.440116 0 -0.000164368 0 0 0 0 0 0 0 0 0 0 0 0 0 0 0 0 0 66 0.002 
627 2 0.0184185 0.0668601 0.0324727 0 0 0 0.0528226 -0.194098 0.139693 0 -0.000164368 0 0 0 0 0 0 0 0 0 0 0 0 0 0 0 0 0 172 0.002 
1033 2 0.00358902 0.0563975 0.0329793 0 0 0 0.45872 1.0042 -0.0482802 0 -0.000164368 0 0 0 0 0 0 0 0 0 0 0 0 0 0 0 0 0 179 0.002 
92 2 0.00672718 0.0600262 0.0325329 0 0 0 -0.189202 0.0671135 -0.327195 5.65884e-05 3.8204e-06 5.12164e-05 0 1 0 0 0 0 0 0 0 0 0 0 0 0 0 0 178 0.002 
1444 3 0.0114454 0.0603612 0.0327667 0 0 0 0.273263 0.0822898 -0.0103532 0 -0.000164368 0 0 0 0 0 0 0 0 0 0 0 0 0 0 0 0 0 143 0.002 
1481 4 0.00304095 0.0650605 0.0329411 0 0 0 0.0814387 0.0931513 -0.0559884 0 -0.000164368 0 0 0 0 0 0 0 0 0 0 0 0 0 0 0 0 0 121 0.002 
1782 5 0.00755736 0.0639233 0.0328793 0 0 0 0.0161728 0.00153464 0.0538597 -7.74699e-05 -0.00138063 -0.000230551 0 1 0 0 1 0 0 0 0 0 0 0 0 0 0 0 93 0.002 
1662 8 0.0116352 0.064988 0.0328743 0 0 0 0.0207194 -0.0376361 -0.05008 0 -0.000164368 0 0 0 0 0 0 0 0 0 0 0 0 0 0 0 0 0 84 0.002 
715 4 0.0167467 0.0632115 0.0329153 0 0 0 -0.123168 -0.149171 0.191207 0 -0.000164368 0 0 0 0 0 0 0 0 0 0 0 0 0 0 0 0 0 194 0.002 
1366 7 0.00722708 0.0679018 0.0327183 0 0 0 0.220245 0.0316931 -0.109129 0.000993058 -0.000881387 0.000408123 0 0 0 0 1 0 1 0 0 0 0 0 0 0 0 0 129 0.002 
1227 5 0.0144653 0.0678134 0.0329824 0 0 0 0.0974085 -0.0536377 -0.0313372 -0.00901511 -0.00879075 0.00150841 0 0 0 0 1 0 0 0 0 0 0 0 0 0 0 0 126 0.002 
1382 2 0.003086 0.0692275 0.032968 0 0 0 0.00731227 0.305529 -0.0519222 0.000439834 -0.00414628 0.000408819 0 1 0 0 0 0 0 0 0 0 0 0 0 0 0 0 145 0.002 
995 2 0.0111113 0.0700014 0.0328588 0 0 0 0.0357147 -0.159388 -0.0444834 0 -0.000164368 0 0 0 0 0 0 0 0 0 0 0 0 0 0 0 0 0 140 0.002 
738 5 0.00619187 0.0717469 0.033002 0 0 0 0.0973746 0.0434009 -0.0260403 -0.000648389 0.00320995 0.000344174 0 2 0 0 1 0 1 0 0 0 0 0 0 0 0 0 146 0.002 
1845 1 0.0158597 0.0715484 0.032964 0 0 0 -0.00849852 -0.0803128 0.00584422 0.00901511 0.00846202 -0.00150841 0 0 0 0 1 0 0 0 0 0 0 0 0 0 0 0 90 0.002 
1251 1 0.00299544 0.0741394 0.0329983 0 0 0 0.0255092 0.00393842 -0.0373627 -0.00203363 -0.00370419 0.000182104 1 0 0 0 1 0 0 0 0 0 0 0 0 0 0 0 117 0.002 
1914 2 0.00980392 0.073786 0.0329983 0 0 0 -0.0328754 -0.178568 -0.00525217 0 -0.000164368 0 0 0 0 0 0 0 0 0 0 0 0 0 0 0 0 0 55 0.002 
28 5 0.0136314 0.0749302 0.0327755 0 0 0 -0.0478106 -0.105427 0.00267153 9.61278e-05 -0.000144397 5.99712e-06 0 0 0 0 1 0 0 0 0 0 0 0 0 0 0 0 142 0.002 
932 2 0.00572323 0.0430521 0.0384169 0 0 0 0.783157 9.32596 -11.3885 0 -0.000164368 0 0 0 0 0 0 0 0 0 0 0 0 0 0 0 0 0 104 0.002 
526 2 0.0029984 0.0837731 -0.0328044 0 0 0 -0.0991872 0.723411 0.81676 0.00735678 0.00128217 -0.00338202 0 0 0 0 0 0 0 0 0 0 0 0 0 0 0 0 166 0.002 
1254 3 0.00967353 0.0852351 -0.0325272 0 0 0 0.933183 -0.13808 -0.614944 -0.0405521 -0.0348301 0.0172689 0 0 0 0 0 0 0 0 0 0 0 0 0 0 0 0 147 0.002 
1270 6 0.00513715 0.0879991 -0.0330743 0 0 0 -0.102572 0.766567 -0.0044871 -0.0190703 -0.04033 0.112156 0 0 0 0 0 2 0 0 0 0 0 0 0 0 0 0 131 0.002 
972 3 0.0113371 0.0888031 -0.0329613 0 0 0 0.514272 0.00327805 -0.067214 0.0405521 0.0345014 -0.0172689 0 0 0 0 0 0 0 0 0 0 0 0 0 0 0 0 177 0.002 
1236 1 0.00671507 0.0913982 -0.0318341 0 0 0 0.196821 0.419026 -0.120106 0.0125999 0.000875777 0.0493862 1 0 0 0 0 1 0 0 0 0 0 0 0 0 0 0 115 0.002 
947 4 0.017686 0.0909133 -0.0322278 0 0 0 -0.325076 -0.368218 0.00510712 0 -0.000164368 0 0 0 0 0 0 0 0 0 0 0 0 0 0 0 0 0 106 0.002 
290 2 0.00305309 0.0927786 -0.0329616 0 0 0 -0.102308 0.0247414 0.0689249 0 -0.000164368 0 0 0 0 0 0 0 0 0 0 0 0 0 0 0 0 0 179 0.002 
1138 3 0.00841927 0.0947761 -0.0329532 0 0 0 0.276418 0.535815 0.0708613 0.00108031 0.00351989 -0.00924515 1 0 2 0 0 0 0 0 0 0 0 0 0 0 0 0 151 0.002 
1623 3 0.0125416 0.0942426 -0.0329177 0 0 0 0.137943 -0.0661608 -0.022438 -0.000535379 -0.00147942 0.000220135 0 0 1 0 0 0 0 0 0 0 0 0 0 0 0 0 104 0.002 
930 3 0.0173052 0.0952298 -0.0329198 0 0 0 0.0884806 -0.0114121 -0.199256 -0.00344571 -0.0037529 -0.00563789 0 0 1 0 0 0 0 0 0 0 0 0 0 0 0 0 168 0.002 
2214 8 0.00482415 0.0965047 -0.032953 0 0 0 0.0310458 -0.0386903 0.0454245 -0.00133827 0.00240428 -6.56175e-05 0 0 1 0 0 0 0 1 0 0 0 0 0 0 0 0 12 0.002 
1387 4 0.0140633 0.0979357 -0.032996 0 0 0 0.207008 -0.0790797 0.00400556 0.000535379 0.00115068 -0.000220135 0 0 1 0 0 0 0 0 0 0 0 0 0 0 0 0 135 0.002 
384 6 0.00300399 0.100055 -0.0329939 0 0 0 -0.0262849 -0.0555746 0.0163722 -0.0038012 0.00286356 -0.000375053 0 0 0 0 0 1 0 1 0 0 0 0 0 0 0 0 198 0.002 
1363 1 0.00700207 0.0998638 -0.0330057 0 0 0 -0.0484595 0.0485761 0.0308909 5.31338e-06 0.000488757 0.000218873 0 0 0 0 0 0 0 0 0 0 0 0 0 0 0 0 157 0.002 
1306 4 0.0106157 0.101604 -0.0330028 0 0 0 0.00907418 -0.0538746 0.00297041 -0.000253433 -0.000652837 0.00010001 0 0 0 1 0 0 0 0 0 0 0 0 0 0 0 0 93 0.002 
2272 5 0.0146379 0.101906 -0.0329796 0 0 0 0.121307 -0.0377916 -0.136114 -0.000654892 -0.000619532 0.000729448 0 0 0 0 2 0 0 0 0 0 0 0 0 0 0 0 5 0.002 
1173 1 0.0186982 0.100909 -0.0329777 0 0 0 0.0180511 -0.0156112 0.0599994 -0.00546404 -0.00305796 0.00141886 1 0 0 0 0 0 0 0 0 0 0 0 0 0 0 0 127 0.002 
1360 1 0.00319137 0.104034 -0.0327003 0 0 0 -0.00376321 -0.0180478 -0.0537801 0.000126632 -0.00160865 -0.00205575 2 0 0 0 0 1 0 0 0 0 0 0 0 0 0 0 91 0.002 
1790 9 0.00721436 0.104178 -0.0329953 0 0 0 -0.0236917 0.0962859 0.00739505 0 -0.000164368 0 0 0 0 0 0 0 0 0 0 0 0 0 0 0 0 0 68 0.002 
2155 10 0.0173041 0.104851 -0.0325254 0 0 0 0.0929731 -0.0494054 -0.00681286 -0.00794189 0.00342305 0.000689345 0 0 0 0 1 0 0 0 0 2 0 0 0 0 0 0 20 0.002 
2195 3 0.0105281 0.107485 -0.0329339 0 0 0 0.0648107 0.106557 0.0233816 0 -0.000164368 0 0 0 0 0 0 0 0 0 0 0 0 0 0 0 0 0 15 0.002 
784 7 0.00299768 0.108007 -0.0329594 0 0 0 0.0157102 -0.00972864 -0.060945 0.000389487 -0.000556457 -0.00504001 1 0 0 0 0 0 0 0 0 0 0 0 0 0 0 0 182 0.002 
1126 4 0.0147964 0.10799 -0.0326299 0 0 0 0.0600957 -0.0234295 -0.0365926 0 -0.000164368 0 0 0 0 0 0 0 0 0 0 0 0 0 0 0 0 0 147 0.002 
1257 5 0.00663016 0.107585 0.00976174 0 0 0 -0.0253643 -0.0539228 0.162375 0 -0.000164368 0 0 0 0 0 0 0 0 0 0 0 0 0 0 0 0 0 46 0.002 
702 1 0.0045342 0.078177 -0.0307166 0 0 0 0.52298 -1.77236 -0.726604 0 -0.000164368 0 0 0 0 0 0 0 0 0 0 0 0 0 0 0 0 0 124 0.002 
1663 6 0.010938 0.0809487 -0.0320379 0 0 0 1.32589 -0.893503 -1.59928 0 -0.000164368 0 0 0 0 0 0 0 0 0 0 0 0 0 0 0 0 0 99 0.002 
1736 1 0.00617856 0.0850417 -0.0304777 0 0 0 0.934888 0.974515 0.328875 -0.0305192 -0.00899427 -0.022409 1 0 0 0 0 0 0 0 0 0 0 0 0 0 0 0 92 0.002 
2258 1 0.0130703 0.0847815 -0.0303875 0 0 0 0.77045 -0.142199 -0.393424 0 -0.000164368 0 0 0 0 0 0 0 0 0 0 0 0 0 0 0 0 0 0 0.002 
360 2 0.0143543 0.0886367 -0.0303036 0 0 0 0.597617 -0.0215628 -0.222131 0 -0.000164368 0 0 0 0 0 0 0 0 0 0 0 0 0 0 0 0 0 156 0.002 
2122 4 0.0031722 0.0898008 -0.0302233 0 0 0 -0.621332 0.9136 -0.376289 -0.0523492 0.0370745 0.163659 0 0 0 0 0 1 0 0 0 0 0 0 0 0 0 0 25 0.002 
227 6 0.010969 0.0917163 -0.0302351 0 0 0 0.330073 -0.166887 0.0760704 -3.36808e-05 -6.0346e-05 1.01254e-05 0 0 0 0 0 1 0 0 0 0 0 0 0 0 0 0 35 0.002 
1023 1 0.0046925 0.0943266 -0.029539 0 0 0 0.0658291 0.0494957 0.184308 0 -0.000164368 0 0 0 0 0 0 0 0 0 0 0 0 0 0 0 0 0 148 0.002 
2215 6 0.0146616 0.0940466 -0.0294496 0 0 0 0.488359 -0.0336257 -0.0860132 0 -0.000164368 0 0 0 0 0 0 0 0 0 0 0 0 0 0 0 0 0 10 0.002 
1977 1 0.00703768 0.0983885 -0.0292987 0 0 0 0.103887 -0.028424 0.0412773 -0.000788614 -0.000964982 -0.000626154 2 0 0 0 0 0 0 0 0 0 0 0 0 0 0 0 55 0.002 
1975 1 0.0104775 0.0976932 -0.0312389 0 0 0 0.311935 0.342589 0.0104679 0.030434 0.0497411 0.00088757 0 0 1 0 0 0 0 0 0 0 0 0 0 0 0 0 44 0.002 
1747 3 0.0169408 0.0987675 -0.0300897 0 0 0 0.150484 -0.0344459 0.151491 0 -0.000164368 0 0 0 0 0 0 0 0 0 0 0 0 0 0 0 0 0 82 0.002 
751 3 0.00816474 0.102211 -0.0296263 0 0 0 0.0985514 0.00557189 -0.062794 -0.000259558 -0.00151915 0.000176912 1 0 2 0 0 0 0 0 0 0 0 0 0 0 0 0 173 0.002 
1574 3 0.0135844 0.100826 -0.0292755 0 0 0 0.193266 0.0886914 -0.0432236 0.000220224 -3.32589e-05 -0.000556879 0 0 0 0 1 0 0 0 0 0 0 0 0 0 0 0 116 0.002 
721 5 0.0114521 0.104428 -0.0303061 0 0 0 0.0770453 -0.0620423 0.0137447 0.00219768 -0.000858787 -0.00114448 0 0 0 1 3 0 0 0 0 0 0 0 0 0 0 0 126 0.002 
1724 2 0.00677818 0.107876 -0.0314786 0 0 0 0.0407867 0.104683 0.0590517 0 -0.000164368 0 0 0 0 0 0 0 0 0 0 0 0 0 0 0 0 0 19 0.002 
2280 2 0.0101116 0.0777615 -0.0290084 0 0 0 1.29128 0.686129 -3.23208 0 -0.000164368 0 0 0 0 0 0 0 0 0 0 0 0 0 0 0 0 0 0 0.002 
805 6 0.00604015 0.0816386 -0.0283718 0 0 0 1.10269 -0.787245 -1.68776 0 -0.000164368 0 0 0 0 0 0 0 0 0 0 0 0 0 0 0 0 0 151 0.002 
1504 2 0.0183196 0.0863298 -0.0290718 0 0 0 0.688802 0.243656 -0.934913 -0.00080628 0.000821519 0.000573258 0 1 0 0 0 0 0 0 0 0 0 0 0 0 0 0 94 0.002 
1212 1 0.00710606 0.0890779 -0.0283596 0 0 0 0.155702 -0.490261 -0.34136 0 -0.000164368 0 0 0 0 0 0 0 0 0 0 0 0 0 0 0 0 0 138 0.002 
466 1 0.00869092 0.0946017 -0.0286595 0 0 0 0.307935 -0.125427 -0.0136902 3.36808e-05 -0.00026839 -1.01254e-05 0 0 0 0 0 1 0 0 0 0 0 0 0 0 0 0 155 0.002 
997 6 0.0186897 0.0951311 -0.0291896 0 0 0 0.570237 -0.178842 -0.186607 0.00344571 0.00342417 0.00563789 0 0 1 0 0 0 0 0 0 0 0 0 0 0 0 0 150 0.002 
37 5 0.0131528 0.0970636 -0.0271913 0 0 0 0.308528 0.127544 -0.290027 -0.0180336 0.0288565 -0.0271713 0 0 0 0 2 0 0 0 0 0 0 0 0 0 0 0 36 0.002 
811 5 0.00302214 0.0987939 -0.0291467 0 0 0 0.0328493 -0.0379426 0.0498976 0 -0.000164368 0 0 0 0 0 0 0 0 0 0 0 0 0 0 0 0 0 141 0.002 
2255 4 0.00303634 0.102837 -0.0289006 0 0 0 0.0317298 -0.110543 -0.0581275 0.000199613 -0.00552257 0.00241134 1 0 0 0 0 0 0 0 0 0 0 0 0 0 0 0 10 0.002 
2217 2 0.00299906 0.106654 0.0078618 0 0 0 -0.00244651 0.0569326 0.105511 -2.35638e-05 0.00287812 0.00280237 0 3 0 0 0 0 0 0 0 0 0 0 0 0 0 0 17 0.002 
560 4 0.00619185 0.105097 -0.0276901 0 0 0 0.0710368 -0.0496928 0.0249963 -0.00546695 -5.98557e-05 -0.000192863 0 0 1 2 0 0 0 0 0 0 0 0 0 0 0 0 181 0.002 
1645 1 0.015247 0.104482 -0.0290515 0 0 0 0.122275 -0.0108459 -0.0729818 -0.00480274 -0.00605264 -0.00030361 1 0 0 0 1 0 0 0 0 0 0 0 0 0 0 0 83 0.002 
2025 2 0.00319694 0.107752 -0.0286914 0 0 0 0.0793875 0.124651 0.173331 0 -0.000164368 0 0 0 0 0 0 0 0 0 0 0 0 0 0 0 0 0 53 0.002 
2213 4 0.0089217 0.107991 -0.0280486 0 0 0 0.03766 -0.0347064 0.00819066 0.00274107 0.00426989 -0.0125929 0 0 0 2 0 0 0 0 0 0 0 0 0 0 0 0 12 0.002 
413 11 0.0127669 0.108005 -0.0291115 0 0 0 0.0598899 -0.0136377 -0.01252 0.00287377 -0.000904158 0.00101154 0 0 0 1 1 0 0 0 0 0 0 0 0 0 0 0 111 0.002 
985 4 0.0166671 0.108009 -0.0278632 0 0 0 0.0382685 -0.00830575 0.0323145 -0.00256211 0.000768458 -0.00112618 1 0 0 0 0 0 0 0 0 0 0 0 0 0 0 0 121 0.002 
1917 4 0.00295211 0.086957 -0.0272831 0 0 0 0.554733 0.665308 0.0263238 0.0805351 0.0268854 -0.018831 0 0 0 0 0 0 0 0 0 0 0 0 0 0 0 0 52 0.002 
349 7 0.00786382 0.0849707 -0.0268512 0 0 0 0.171211 -0.618492 -1.25171 0.0305192 0.00866553 0.022409 1 0 0 0 0 0 0 0 0 0 0 0 0 0 0 0 102 0.002 
1375 6 0.0150618 0.0855289 -0.0266275 0 0 0 1.17804 1.86875 -2.26612 0 -0.000164368 0 0 0 0 0 0 0 0 0 0 0 0 0 0 0 0 0 139 0.002 
1494 4 0.0110358 0.0878109 -0.0265927 0 0 0 0.204705 -0.32924 -0.336894 0 -0.000164368 0 0 0 0 0 0 0 0 0 0 0 0 0 0 0 0 0 132 0.002 
317 11 0.00851353 0.0906627 -0.0248034 0 0 0 0.103542 -0.273764 -0.360853 0 -0.000164368 0 0 0 0 0 0 0 0 0 0 0 0 0 0 0 0 0 163 0.002 
1323 9 0.0137634 0.0909336 -0.0268681 0 0 0 0.102653 -0.0812869 -0.0733321 0 -0.000164368 0 0 0 0 0 0 0 0 0 0 0 0 0 0 0 0 0 145 0.002 
1446 6 0.0177147 0.0897665 -0.0271179 0 0 0 0.240547 0.0487311 -0.605751 0.00080628 -0.00115026 -0.000573258 0 1 0 0 0 0 0 0 0 0 0 0 0 0 0 0 151 0.002 
2267 4 0.00300289 0.0924419 -0.0263061 0 0 0 0.0377408 -0.183533 0.234153 0 -0.000164368 0 0 0 0 0 0 0 0 0 0 0 0 0 0 0 0 0 4 0.002 
898 1 0.00626552 0.0945645 -0.0253597 0 0 0 0.196596 -0.112341 -0.0275874 0.00037178 0.000295161 4.81769e-06 1 0 0 0 0 0 0 0 0 0 0 0 0 0 0 0 152 0.002 
322 2 0.0110236 0.0937989 -0.0253022 0 0 0 -0.0717231 0.0274407 -0.0109638 0 -0.000164368 0 0 0 0 0 0 0 0 0 0 0 0 0 0 0 0 0 195 0.002 
2297 9 0.0161663 0.0950024 -0.0256541 0 0 0 0.253594 0.134792 -0.137306 0.0189216 -0.0293281 0.0306923 0 0 0 0 1 0 0 0 0 0 0 0 0 0 0 0 1 0.002 
735 8 0.00303271 0.097184 -0.0254726 0 0 0 -0.039955 -0.194312 -0.090193 0 -0.000164368 0 0 0 0 0 0 0 0 0 0 0 0 0 0 0 0 0 123 0.002 
1800 7 0.00712441 0.0984681 -0.0253093 0 0 0 0.183342 -0.0662027 0.055721 -0.00262063 -0.00304403 0.00160947 2 0 0 0 0 0 2 0 0 0 0 0 0 0 0 0 53 0.002 
1096 8 0.0103692 0.100171 -0.0269868 0 0 0 0.10566 -0.136774 -0.161996 0.001007 -0.000688109 0.000226646 0 0 1 0 0 0 0 1 0 0 0 0 0 0 0 0 137 0.002 
2057 3 0.0176084 0.100005 -0.0263225 0 0 0 0.0870573 0.159371 0.156904 0 -0.000164368 0 0 0 0 0 0 0 0 0 0 0 0 0 0 0 0 0 21 0.002 
55 4 0.00316468 0.101319 -0.0252095 0 0 0 -0.0273184 -0.134538 -0.0661629 -0.000174031 -0.000766083 0.00341449 0 0 0 1 0 0 0 0 0 0 0 0 0 0 0 0 152 0.002 
920 3 0.00714269 0.102432 -0.0248639 0 0 0 0.00488859 -0.00776949 0.0247777 -0.000658395 0.000326682 0.00387545 0 0 2 1 0 0 1 0 0 0 0 0 0 0 0 0 154 0.002 
2013 13 0.0143413 0.102216 -0.0255921 0 0 0 -0.0512584 0.0604385 0.0429217 -3.79511e-05 -9.93649e-05 -2.10132e-05 0 0 0 0 0 0 0 0 0 0 0 0 1 0 0 0 73 0.002 
1304 1 0.00299814 0.105313 -0.0252978 0 0 0 0.00364477 -0.129918 -0.0623066 -0.000367122 -0.000676159 0.000137653 0 0 0 2 0 0 0 0 0 0 0 0 0 0 0 0 138 0.002 
1852 2 0.0101205 0.104483 -0.0265398 0 0 0 0.0462817 -0.0208942 -0.0165447 0.00306151 0.00455638 -0.00244914 0 0 1 0 1 0 0 0 0 0 0 0 0 0 0 0 66 0.002 
1267 3 0.0175575 0.104598 -0.025736 0 0 0 0.00281342 -0.085992 -0.0579653 0 -0.000164368 0 0 0 0 0 0 0 0 0 0 0 0 0 0 0 0 0 115 0.002 
1074 10 0.0138238 0.106181 -0.0256977 0 0 0 0.011623 0.0716817 -0.0661079 -3.91102e-05 -0.000364712 -4.20428e-05 0 0 0 0 0 0 0 0 0 1 0 0 1 0 0 0 172 0.002 
2236 3 0.00650459 0.107961 -0.0248761 0 0 0 0.111992 -0.0751877 -0.124032 -0.00435395 -0.00502501 0.0136237 0 0 0 1 0 0 0 0 0 0 0 0 0 0 0 0 10 0.002 
1389 4 0.00796861 0.0760805 -0.0258621 0 0 0 0.934959 -1.24686 -1.40978 0 -0.000164368 0 0 0 0 0 0 0 0 0 0 0 0 0 0 0 0 0 88 0.002 
2022 4 0.0056257 0.0802327 -0.0243218 0 0 0 -1.1066 -0.768055 -1.05183 0 -0.000164368 0 0 0 0 0 0 0 0 0 0 0 0 0 0 0 0 0 61 0.002 
1219 5 0.0153664 0.0818014 -0.0251341 0 0 0 2.87221 -0.314042 -4.1693 0 -0.000164368 0 0 0 0 0 0 0 0 0 0 0 0 0 0 0 0 0 104 0.002 
2298 7 0.00525941 0.0858753 -0.0238505 0 0 0 0.257949 1.4625 -1.13478 0 -0.000164368 0 0 0 0 0 0 0 0 0 0 0 0 0 0 0 0 0 0 0.002 
2064 8 0.0105366 0.0850306 -0.0237277 0 0 0 0.0968504 -0.806069 -0.60289 0 -0.000164368 0 0 0 0 0 0 0 0 0 0 0 0 0 0 0 0 0 48 0.002 
934 1 0.00483016 0.0906002 -0.0231151 0 0 0 0.172664 -0.0843054 0.340846 0 -0.000164368 0 0 0 0 0 0 0 0 0 0 0 0 0 0 0 0 0 191 0.002 
1942 5 0.0160495 0.0914568 -0.0233732 0 0 0 0.528748 0.0153536 -0.200742 0.00219103 -0.0133267 -0.00276434 0 0 0 0 1 0 0 0 0 0 0 0 0 0 0 0 39 0.002 
801 5 0.0107665 0.0977427 -0.0238334 0 0 0 0.139179 0.0153782 -0.0024415 0.00174711 -0.00135183 0.00267086 0 0 0 0 0 0 1 1 0 0 0 0 0 0 0 0 122 0.002 
2283 7 0.0148001 0.0985287 -0.023858 0 0 0 0.0706359 -0.0551024 0.06962 -0.00265462 0.000421329 -0.00719362 0 0 0 0 1 0 1 0 0 0 0 0 0 0 0 0 4 0.002 
1627 4 0.0109505 0.102138 -0.0233962 0 0 0 -0.0676539 -0.138091 0.0218823 0 -0.000164368 0 0 0 0 0 0 0 0 0 0 0 0 0 0 0 0 0 89 0.002 
1302 3 0.0185832 0.101714 -0.0228328 0 0 0 0.236821 0.0418184 0.190431 0 -0.000164368 0 0 0 0 0 0 0 0 0 0 0 0 0 0 0 0 0 127 0.002 
1690 9 0.0104759 0.108001 -0.0240529 0 0 0 0.0668133 0.00710368 0.05864 0.000253027 -0.000894599 0.000263224 0 0 0 0 0 0 0 0 0 0 0 0 0 0 0 0 95 0.002 
638 6 0.0165667 0.108002 -0.0234297 0 0 0 0.0583669 -0.0158865 -0.0284152 1.06296e-06 -0.000238994 -9.37128e-06 0 0 0 0 0 0 0 0 0 1 0 0 0 0 0 0 129 0.002 
1379 8 0.0175394 0.0851026 -0.0224872 0 0 0 0.911628 -0.201695 -0.920451 0 -0.000164368 0 0 0 0 0 0 0 0 0 0 0 0 0 0 0 0 0 155 0.002 
156 4 0.00894841 0.0886854 -0.0210449 0 0 0 0.282933 -0.513081 -0.299875 0 -0.000164368 0 0 0 0 0 0 0 0 0 0 0 0 0 0 0 0 0 161 0.002 
2301 2 0.00790244 0.0931156 -0.0212108 0 0 0 0.401027 -0.256781 -0.00398992 0 -0.000164368 0 0 0 0 0 0 0 0 0 0 0 0 0 0 0 0 0 0 0.002 
980 2 0.00360375 0.0950347 -0.0221223 0 0 0 0.155472 -0.126637 0.0133474 0 -0.000164368 0 0 0 0 0 0 0 0 0 0 0 0 0 0 0 0 0 144 0.002 
2032 1 0.0150914 0.0944758 -0.0209655 0 0 0 0.55638 0.136471 -0.173547 -0.0124642 0.00932095 -0.00721692 0 0 0 0 1 0 0 0 0 0 0 0 0 0 0 0 45 0.002 
1175 4 0.00755098 0.0971031 -0.0215409 0 0 0 0.191123 -0.222118 0.0285668 0 -0.000164368 0 0 0 0 0 0 0 0 0 0 0 0 0 0 0 0 0 143 0.002 
1992 2 0.0165689 0.0983195 -0.0202903 0 0 0 0.0516401 0.148544 0.179458 0.00109186 -0.00342704 0.00207879 0 1 0 0 0 0 1 0 0 0 0 0 0 0 0 0 44 0.002 
573 1 0.00314919 0.0995651 -0.021602 0 0 0 0.0441023 0.19904 0.00838795 0 -0.000164368 0 0 0 0 0 0 0 0 0 0 0 0 0 0 0 0 0 182 0.002 
2257 3 0.00664111 0.101757 -0.0206779 0 0 0 0.112462 -0.113317 0.198414 0 -0.000164368 0 0 0 0 0 0 0 0 0 0 0 0 0 0 0 0 0 3 0.002 
1262 8 0.0137981 0.10153 -0.0205814 0 0 0 0.480426 -0.133755 -0.343136 -0.000550834 -0.00113554 -0.000428513 0 0 0 0 0 0 0 1 0 0 0 0 0 0 0 0 94 0.002 
1118 6 0.00331593 0.104214 -0.0205698 0 0 0 -0.00865556 -0.0439945 -0.0812995 -2.32066e-05 -0.00193934 0.000383453 0 0 0 0 0 2 0 0 0 0 0 0 0 0 0 0 116 0.002 
1124 4 0.00796808 0.105288 -0.0221986 0 0 0 0.0215753 0.0707438 0.0677968 -0.000101716 -0.000381717 -7.08432e-05 0 0 1 0 0 0 0 0 0 0 0 0 0 0 0 0 118 0.002 
1512 3 0.0175345 0.10505 -0.0208824 0 0 0 0.363989 0.0825143 0.0948601 -0.0074638 -0.00770389 -0.00148524 0 0 0 0 0 0 0 0 0 0 0 0 0 0 0 0 120 0.002 
204 7 0.0128054 0.105594 -0.0218633 0 0 0 0.153682 -0.0019455 -0.00826802 -7.62631e-05 -0.000158569 8.32447e-05 0 0 0 0 0 0 1 0 0 0 0 0 0 0 0 0 220 0.002 
250 5 0.00300072 0.108004 -0.0217894 0 0 0 0.00840375 -0.0219692 -0.0874138 -8.26453e-05 -0.000555834 -0.00025827 0 0 0 0 0 1 0 0 0 0 0 0 0 0 0 0 200 0.002 
727 2 0.0145215 0.0840702 -0.0190445 0 0 0 0.0648982 -0.98047 -1.15944 0 -0.000164368 0 0 0 0 0 0 0 0 0 0 0 0 0 0 0 0 0 173 0.002 
1858 3 0.00397719 0.0889302 -0.0195002 0 0 0 -0.211748 -0.787802 0.0524488 0 -0.000164368 0 0 0 0 0 0 0 0 0 0 0 0 0 0 0 0 0 82 0.002 
890 6 0.0144694 0.0903343 -0.0196642 0 0 0 -0.0670382 0.436624 -0.21152 0 -0.000164368 0 0 0 0 0 0 0 0 0 0 0 0 0 0 0 0 0 178 0.002 
1768 10 0.0185673 0.0905866 -0.0201267 0 0 0 0.188713 0.1177 -0.886625 0 -0.000164368 0 0 0 0 0 0 0 0 0 0 0 0 0 0 0 0 0 106 0.002 