ITEM: TIMESTEP
5350000
ITEM: NUMBER OF ATOMS
653
ITEM: BOX BOUNDS ff ff ff
-0.01 0.45
-0.15 0.15
-0.08 0.1
ITEM: ATOMS id type x y z ix iy iz vx vy vz fx fy fz c_cc_1 c_cc_2 c_cc_3 c_cc_4 c_cc_5 c_cc_6 c_cc_7 c_cc_8 c_cc_9 c_cc_10 c_cc_11 c_cc_12 c_cc_13 c_cc_14 c_cc_15 c_cc_16 f_fppacc radius 
631 1 0.00374413 -0.0473146 -0.0333315 0 0 0 -0.24304 -2.97885 3.23977 0.107661 0.161246 0.10743 0 0 0 0 0 0 0 0 0 0 0 0 0 0 0 0 0 0.002 
646 2 0.00336989 -0.0550249 -0.0161556 0 0 0 -0.0476626 -1.07962 3.76594 0 -0.000164368 0 0 0 0 0 0 0 0 0 0 0 0 0 0 0 0 0 0 0.002 
86 6 0.0173524 -0.0187846 -0.051087 0 0 0 1.58039 -15.2779 4.81767 0 -0.000164368 0 0 0 0 0 0 0 0 0 0 0 0 0 0 0 0 0 7 0.002 
156 4 0.00958651 -0.00751895 -0.0515249 0 0 0 0.759791 -0.529517 0.890523 0 -0.000164368 0 0 0 0 0 0 0 0 0 0 0 0 0 0 0 0 0 4 0.002 
539 8 0.0170068 -0.0363576 -0.0445557 0 0 0 0.292965 -1.82927 1.13065 0 -0.000164368 0 0 0 0 0 0 0 0 0 0 0 0 0 0 0 0 0 2 0.002 
622 4 0.00975845 0.0309057 0.0411032 0 0 0 0.473077 2.38035 -1.11329 0 -0.000164368 0 0 0 0 0 0 0 0 0 0 0 0 0 0 0 0 0 0 0.002 
648 5 0.015427 0.0152888 0.0557492 0 0 0 -1.56095 18.7533 -6.62443 -0.0168643 -0.00261627 -0.0382012 0 0 0 0 0 0 0 0 0 0 0 0 0 0 0 0 0 0.002 
661 2 0.017928 0.0214665 0.0537523 0 0 0 -18.8302 38.8547 -13.2827 0 -0.000164368 0 0 0 0 0 0 0 0 0 0 0 0 0 0 0 0 0 0 0.002 
41 1 0.015132 0.0528518 -0.0355 0 0 0 -5.54273e-74 2.03206e-20 1.68051e-12 8.23215e-74 0 0 0 0 0 0 0 0 0 0 0 0 0 0 0 0 0 0 1 0.002 
213 4 0.00654456 0.0536875 -0.0326221 0 0 0 0.224086 -5.40938 0.0664187 0 -0.000164368 0 0 0 0 0 0 0 0 0 0 0 0 0 0 0 0 0 3 0.002 
634 2 0.00783913 0.0592598 -0.0297203 0 0 0 2.34941 -2.4869 1.46564 0 -0.000164368 0 0 0 0 0 0 0 0 0 0 0 0 0 0 0 0 0 1 0.002 
297 3 0.0034234 0.07302 -0.0239595 0 0 0 0.056557 -1.90147 0.788518 0 -0.000164368 0 0 0 0 0 0 0 0 0 0 0 0 0 0 0 0 0 11 0.002 
641 1 0.00400723 0.0635179 -0.0167563 0 0 0 1.05924 -2.3644 2.26564 0 -0.000164368 0 0 0 0 0 0 0 0 0 0 0 0 0 0 0 0 0 0 0.002 
440 5 0.0140727 0.0420001 -0.0124514 0 0 0 0.240036 -1.60973 -0.290215 0 -0.000164368 0 0 0 0 0 0 0 0 0 0 0 0 0 0 0 0 0 2 0.002 
21 8 0.0107085 0.0648628 -0.0105103 0 0 0 -0.999335 -3.38305 0.453131 0 -0.000164368 0 0 0 0 0 0 0 0 0 0 0 0 0 0 0 0 0 9 0.002 
8 5 0.00556531 0.0516662 -0.00133908 0 0 0 1.27462 -2.00818 1.16401 0 -0.000164368 0 0 0 0 0 0 0 0 0 0 0 0 0 0 0 0 0 3 0.002 
625 3 0.00299928 0.0559579 0.000109868 0 0 0 0.397638 -2.98389 -0.925396 -0.0205512 -0.00377479 -0.0015404 0 0 0 0 0 0 0 0 0 0 0 0 0 0 0 0 0 0.002 
575 3 0.00690303 0.0583592 0.00219384 0 0 0 -1.31023 0.0609267 -0.961377 0 -0.000164368 0 0 0 0 0 0 0 0 0 0 0 0 0 0 0 0 0 3 0.002 
578 2 0.013707 0.0571145 0.00188479 0 0 0 0.620832 3.9634 -3.59958 0 -0.000164368 0 0 0 0 0 0 0 0 0 0 0 0 0 0 0 0 0 0 0.002 
393 11 0.0147517 0.068215 0.0117072 0 0 0 -0.342287 -1.05417 -0.51605 0 -0.000164368 0 0 0 0 0 0 0 0 0 0 0 0 0 0 0 0 0 8 0.002 
533 4 0.0125104 0.0591927 0.0182261 0 0 0 -0.423644 -1.31218 0.0524875 0 -0.000164368 0 0 0 0 0 0 0 0 0 0 0 0 0 0 0 0 0 7 0.002 
321 7 0.0170275 0.0734966 0.0177155 0 0 0 -0.816274 -0.676508 -0.208391 0 -0.000164368 0 0 0 0 0 0 0 0 0 0 0 0 0 0 0 0 0 2 0.002 
181 6 0.00323224 0.0543158 0.0280378 0 0 0 1.24303 -6.32652 11.3799 0 -0.000164368 0 0 0 0 0 0 0 0 0 0 0 0 0 0 0 0 0 4 0.002 
9 6 0.0104956 0.0665389 0.0231232 0 0 0 0.0798731 -0.753698 -0.0224888 0 -0.000164368 0 0 0 0 0 0 0 0 0 0 0 0 0 0 0 0 0 7 0.002 
334 2 0.0171829 0.0655808 0.0217392 0 0 0 0.0761277 -1.09165 -0.571347 0 -0.000164368 0 0 0 0 0 0 0 0 0 0 0 0 0 0 0 0 0 6 0.002 
316 2 0.00674884 0.0680902 0.0237118 0 0 0 -0.0220725 -0.887344 -0.327246 0 -0.000164368 0 0 0 0 0 0 0 0 0 0 0 0 0 0 0 0 0 8 0.002 
313 1 0.0146649 0.0729953 0.0247496 0 0 0 0.0798998 -0.783866 -0.372302 0 -0.000164368 0 0 0 0 0 0 0 0 0 0 0 0 0 0 0 0 0 5 0.002 
485 2 0.01008 0.0563455 0.0256152 0 0 0 0.369845 -1.02671 -0.520176 0 -0.000164368 0 0 0 0 0 0 0 0 0 0 0 0 0 0 0 0 0 1 0.002 
34 3 0.0163505 0.0676226 0.0276068 0 0 0 0.757776 -0.489571 -0.203601 0 -0.000164368 0 0 0 0 0 0 0 0 0 0 0 0 0 0 0 0 0 5 0.002 
216 2 0.00305175 0.0693307 0.02611 0 0 0 0.00939992 -0.584327 -0.0564877 0 -0.000164368 0 0 0 0 0 0 0 0 0 0 0 0 0 0 0 0 0 8 0.002 
211 2 0.0114294 0.069542 0.025794 0 0 0 0.114866 -0.762233 -0.303913 0 -0.000164368 0 0 0 0 0 0 0 0 0 0 0 0 0 0 0 0 0 6 0.002 
425 1 0.0122273 0.0652751 0.0285363 0 0 0 0.488688 -0.34675 0.0597236 0 -0.000164368 0 0 0 0 0 0 0 0 0 0 0 0 0 0 0 0 0 10 0.002 
16 3 0.00538752 0.0675525 0.029206 0 0 0 0.0490003 -0.592325 -0.0956072 0.00101238 -0.00026371 -0.00328051 0 0 1 0 0 0 0 0 0 0 0 0 0 0 0 0 13 0.002 
624 7 0.00977645 0.0710625 0.029687 0 0 0 0.415059 -0.910257 0.197427 0 -0.000164368 0 0 0 0 0 0 0 0 0 0 0 0 0 0 0 0 0 0 0.002 
606 4 0.00343441 0.0741749 0.03028 0 0 0 0.0465289 -0.382252 0.189074 0 -0.000164368 0 0 0 0 0 0 0 0 0 0 0 0 0 0 0 0 0 0 0.002 
140 4 0.00357529 0.0660507 0.032431 0 0 0 0.0367509 -0.439602 -0.0155731 -0.00101238 -6.5026e-05 0.00328051 0 0 1 0 0 0 0 0 0 0 0 0 0 0 0 0 5 0.002 
628 2 0.0183551 0.0724669 0.032335 0 0 0 -0.140014 -0.0479253 0.0857565 0 -0.000164368 0 0 0 0 0 0 0 0 0 0 0 0 0 0 0 0 0 0 0.002 
494 7 0.0139139 0.0644992 0.0330032 0 0 0 0.415501 -0.359348 -0.0342428 -0.000140464 0.000390016 0.000681942 0 0 0 0 0 0 0 0 0 0 0 0 0 0 0 0 1 0.002 
572 3 0.00957328 0.067071 0.0329881 0 0 0 0.225444 -0.655062 -0.00514399 0 -0.000164368 0 0 0 0 0 0 0 0 0 0 0 0 0 0 0 0 0 1 0.002 
329 7 0.00300811 0.070285 0.0330011 0 0 0 0.00313542 -0.537411 -0.0028954 5.68949e-06 4.65939e-05 -0.000422077 0 0 0 0 0 0 0 0 0 0 0 0 0 0 0 0 4 0.002 
300 1 0.00707074 0.0703805 0.0329207 0 0 0 0.0466311 -0.710095 0.123599 0 -0.000164368 0 0 0 0 0 0 0 0 0 0 0 0 0 0 0 0 0 5 0.002 
121 2 0.00979645 0.043887 0.0375704 0 0 0 0.397265 25.1157 -30.4683 0 -0.000164368 0 0 0 0 0 0 0 0 0 0 0 0 0 0 0 0 0 6 0.002 
410 6 0.0136534 0.0411504 0.0400149 0 0 0 2.14657 23.9937 -22.5345 0 -0.000164368 0 0 0 0 0 0 0 0 0 0 0 0 0 0 0 0 0 2 0.002 
185 5 0.00324612 0.0891099 -0.0329188 0 0 0 0.515722 -1.18813 -0.901364 0 -0.000164368 0 0 0 0 0 0 0 0 0 0 0 0 0 0 0 0 0 5 0.002 
604 8 0.0132785 0.0952364 -0.0322511 0 0 0 2.42168 0.247819 -0.897479 0 -0.000164368 0 0 0 0 0 0 0 0 0 0 0 0 0 0 0 0 0 0 0.002 
659 4 0.00364492 0.0802329 -0.023416 0 0 0 3.06038 -8.22597 7.76461 0 -0.000164368 0 0 0 0 0 0 0 0 0 0 0 0 0 0 0 0 0 0 0.002 
528 6 0.0170173 0.105323 -0.0211236 0 0 0 2.72521 -0.99045 0.32352 0 -0.000164368 0 0 0 0 0 0 0 0 0 0 0 0 0 0 0 0 0 1 0.002 
655 1 0.0138744 0.0933846 -0.0171109 0 0 0 -1.47792 -0.627849 2.84876 0 -0.000164368 0 0 0 0 0 0 0 0 0 0 0 0 0 0 0 0 0 0 0.002 
203 3 0.0106949 0.0973417 -0.00638022 0 0 0 0.818585 0.802599 1.9704 0 -0.000164368 0 0 0 0 0 0 0 0 0 0 0 0 0 0 0 0 0 6 0.002 
534 13 0.014371 0.0769384 -0.00378115 0 0 0 0.176509 2.40356 -0.302471 0 -0.000164368 0 0 0 0 0 0 0 0 0 0 0 0 0 0 0 0 0 1 0.002 
653 9 0.00756866 0.0776596 -0.000568962 0 0 0 -0.469249 -2.00687 2.79759 0 -0.000164368 0 0 0 0 0 0 0 0 0 0 0 0 0 0 0 0 0 0 0.002 
424 5 0.0094606 0.091462 -0.00468769 0 0 0 0.726325 1.16945 -2.90303 0 -0.000164368 0 0 0 0 0 0 0 0 0 0 0 0 0 0 0 0 0 5 0.002 
586 9 0.00463323 0.105715 0.00136825 0 0 0 -1.75294 -0.286864 -0.338265 0 -0.000164368 0 0 0 0 0 0 0 0 0 0 0 0 0 0 0 0 0 4 0.002 
288 1 0.014431 0.0893702 0.00848789 0 0 0 -0.167119 -0.262668 -1.09069 0 -0.000164368 0 0 0 0 0 0 0 0 0 0 0 0 0 0 0 0 0 2 0.002 
621 4 0.0107697 0.0858737 0.0139596 0 0 0 0.214793 -0.961721 -0.781216 0 -0.000164368 0 0 0 0 0 0 0 0 0 0 0 0 0 0 0 0 0 0 0.002 
399 3 0.0176673 0.0930421 0.0139718 0 0 0 -0.852226 0.696399 -0.44695 0 -0.000164368 0 0 0 0 0 0 0 0 0 0 0 0 0 0 0 0 0 7 0.002 
400 7 0.0177058 0.0987186 0.0149984 0 0 0 -0.833152 1.41698 -0.142949 0 -0.000164368 0 0 0 0 0 0 0 0 0 0 0 0 0 0 0 0 0 8 0.002 
495 8 0.0181376 0.102688 0.0162464 0 0 0 0.388351 -0.857479 0.0328705 0 -0.000164368 0 0 0 0 0 0 0 0 0 0 0 0 0 0 0 0 0 6 0.002 
355 5 0.00892248 0.0856789 0.0176056 0 0 0 0.220843 -0.599526 -0.132231 0 -0.000164368 0 0 0 0 0 0 0 0 0 0 0 0 0 0 0 0 0 6 0.002 
125 10 0.00772175 0.0931955 0.0168157 0 0 0 -0.729666 0.185062 -0.494654 0 -0.000164368 0 0 0 0 0 0 0 0 0 0 0 0 0 0 0 0 0 8 0.002 
56 7 0.0141168 0.0965462 0.0202523 0 0 0 -0.0630886 0.594235 -0.445448 0 -0.000164368 0 0 0 0 0 0 0 0 0 0 0 0 0 0 0 0 0 9 0.002 
593 1 0.00995241 0.106508 0.0213315 0 0 0 1.31245 -0.707892 1.57971 0 -0.000164368 0 0 0 0 0 0 0 0 0 0 0 0 0 0 0 0 0 0 0.002 
629 8 0.00468048 0.0750934 0.0222641 0 0 0 -0.205615 -0.836399 -1.255 0 -0.000164368 0 0 0 0 0 0 0 0 0 0 0 0 0 0 0 0 0 0 0.002 
546 1 0.0173404 0.0768294 0.0219641 0 0 0 -0.559005 -0.764676 0.1803 0 -0.000164368 0 0 0 0 0 0 0 0 0 0 0 0 0 0 0 0 0 4 0.002 
619 6 0.0128973 0.0877299 0.0232476 0 0 0 0.946721 -0.565354 0.211732 0 -0.000164368 0 0 0 0 0 0 0 0 0 0 0 0 0 0 0 0 0 2 0.002 
26 9 0.00458591 0.0918044 0.0228486 0 0 0 0.763364 0.172591 0.214683 -0.027853 -0.0368243 -0.0259596 0 0 0 0 0 0 0 0 1 0 0 0 0 0 0 0 4 0.002 
647 3 0.0180091 0.0947923 0.0232887 0 0 0 -0.671343 -1.29165 0.813974 0 -0.000164368 0 0 0 0 0 0 0 0 0 0 0 0 0 0 0 0 0 0 0.002 
4 6 0.00547743 0.096581 0.0224225 0 0 0 -0.500709 0.219532 -0.239778 0 -0.000164368 0 0 0 0 0 0 0 0 0 0 0 0 0 0 0 0 0 4 0.002 
490 2 0.0104599 0.0968505 0.0220628 0 0 0 -0.219791 0.263021 -0.469879 0 -0.000164368 0 0 0 0 0 0 0 0 0 0 0 0 0 0 0 0 0 3 0.002 
347 3 0.00364558 0.102515 0.0233725 0 0 0 -0.246566 1.20349 1.31474 0 -0.000164368 0 0 0 0 0 0 0 0 0 0 0 0 0 0 0 0 0 3 0.002 
102 1 0.014307 0.105079 0.0219139 0 0 0 -1.263 2.36823 0.251902 0 -0.000164368 0 0 0 0 0 0 0 0 0 0 0 0 0 0 0 0 0 7 0.002 
452 8 0.00376802 0.107789 0.0234221 0 0 0 0.176513 0.376693 0.0886542 0 -0.000164368 0 0 0 0 0 0 0 0 0 0 0 0 0 0 0 0 0 8 0.002 
649 4 0.0174815 0.0798034 0.0250995 0 0 0 -0.76319 -0.919737 0.99964 -0.0719052 0.00166882 0.129693 0 0 0 1 0 0 0 0 0 0 0 0 0 0 0 0 1 0.002 
207 2 0.014748 0.0829695 0.0255708 0 0 0 0.209782 -0.264206 -0.119959 0 -0.000164368 0 0 0 0 0 0 0 0 0 0 0 0 0 0 0 0 0 10 0.002 
430 4 0.00321129 0.0886515 0.025376 0 0 0 0.257341 -0.0954313 0.0613195 0.000681348 -0.000658103 -0.00115378 0 0 0 1 0 0 0 0 0 0 0 0 0 0 0 0 2 0.002 
204 7 0.010607 0.0908626 0.0254396 0 0 0 -0.0877867 -0.430511 -0.167517 0 -0.000164368 0 0 0 0 0 0 0 0 0 0 0 0 0 0 0 0 0 4 0.002 
249 4 0.0173417 0.0901867 0.02544 0 0 0 0.371543 -1.15457 0.358504 0.00477236 -0.00178516 0.0111001 0 0 0 1 0 0 0 0 0 0 0 0 0 0 0 0 6 0.002 
365 10 0.0144673 0.0967186 0.0250144 0 0 0 -0.797041 -0.211964 0.154044 0 -0.000164368 0 0 0 0 0 0 0 0 0 0 0 0 0 0 0 0 0 5 0.002 
290 2 0.0107215 0.101201 0.0236665 0 0 0 -0.0175794 0.366105 -0.0104988 0 -0.000164368 0 0 0 0 0 0 0 0 0 0 0 0 0 0 0 0 0 12 0.002 
231 7 0.0184211 0.102863 0.0256622 0 0 0 -0.102831 0.181717 0.553888 -0.0159539 -0.0245716 -0.0532126 0 0 0 0 0 0 1 0 0 0 0 0 0 0 0 0 10 0.002 
469 3 0.015969 0.107489 0.0246545 0 0 0 -0.267381 0.192493 0.338636 0 -0.000164368 0 0 0 0 0 0 0 0 0 0 0 0 0 0 0 0 0 4 0.002 
322 2 0.0137779 0.0779813 0.0261273 0 0 0 0.251589 -0.564038 -0.546133 0 -0.000164368 0 0 0 0 0 0 0 0 0 0 0 0 0 0 0 0 0 13 0.002 
332 2 0.00903863 0.0820061 0.0267813 0 0 0 0.0372422 -0.383687 -0.167906 0 -0.000164368 0 0 0 0 0 0 0 0 0 0 0 0 0 0 0 0 0 9 0.002 
443 1 0.00630827 0.0857449 0.0267968 0 0 0 0.0968086 -0.292301 0.310798 0.0179818 -0.00270565 -0.00404809 1 0 0 0 0 0 0 0 0 0 0 0 0 0 0 0 6 0.002 
159 2 0.0140408 0.0929199 0.0262578 0 0 0 0.0426058 -0.270072 0.229133 -0.0063209 0.0143577 -0.00899144 0 1 0 0 0 0 0 0 0 0 0 0 0 0 0 0 5 0.002 
548 4 0.00571134 0.0940812 0.0258542 0 0 0 0.210102 0.633414 0.90061 0.0249838 -0.0299319 -0.00754091 0 0 0 1 0 0 0 0 1 0 0 0 0 0 0 0 4 0.002 
404 6 0.00472221 0.0978984 0.0262471 0 0 0 0.0443142 0.194807 0.207645 0.0280286 0.0528743 0.0305063 0 0 0 1 0 1 0 0 0 0 0 0 0 0 0 0 7 0.002 
382 2 0.0103393 0.0978985 0.026179 0 0 0 0.0938263 0.0309582 -0.218246 0 -0.000164368 0 0 0 0 0 0 0 0 0 0 0 0 0 0 0 0 0 2 0.002 
598 1 0.0158001 0.100074 0.0270046 0 0 0 0.160017 -0.0887204 -0.0884057 0 -0.000164368 0 0 0 0 0 0 0 0 0 0 0 0 0 0 0 0 0 0 0.002 
221 16 0.0144331 0.10425 0.0267952 0 0 0 0.826359 0.574094 0.0582962 0 -0.000164368 0 0 0 0 0 0 0 0 0 0 0 0 0 0 0 0 0 4 0.002 
580 5 0.0120862 0.107645 0.027686 0 0 0 -0.231555 0.0799506 0.0130182 2.75008e-05 -0.000143012 -7.86546e-05 0 0 0 0 1 0 0 0 0 0 0 0 0 0 0 0 4 0.002 
368 5 0.00464657 0.107964 0.0273324 0 0 0 -0.408882 -0.0501692 0.253615 0.000233079 -0.000153403 0.000278475 0 0 0 0 1 0 0 0 0 0 0 0 0 0 0 0 2 0.002 
200 9 0.0098642 0.0772307 0.0301513 0 0 0 -0.0957258 -0.293974 -0.129741 0 -0.000164368 0 0 0 0 0 0 0 0 0 0 0 0 0 0 0 0 0 11 0.002 
508 9 0.0183778 0.0776407 0.0288253 0 0 0 0.134385 -0.708285 0.0549465 0 -0.000164368 0 0 0 0 0 0 0 0 0 0 0 0 0 0 0 0 0 3 0.002 
516 2 0.00445691 0.0824994 0.0286494 0 0 0 -0.0456296 -0.38791 0.00637475 0 -0.000164368 0 0 0 0 0 0 0 0 0 0 0 0 0 0 0 0 0 1 0.002 
77 12 0.00298545 0.0863842 0.0288859 0 0 0 0.0103886 -0.159123 0.21253 0.00769778 0.000658071 -0.0042954 1 0 0 0 0 0 0 0 0 0 0 1 0 0 0 0 9 0.002 
305 5 0.0123499 0.0860129 0.0289302 0 0 0 -0.0284497 -0.339051 -0.173119 0 -0.000164368 0 0 0 0 0 0 0 0 0 0 0 0 0 0 0 0 0 9 0.002 
53 3 0.0164894 0.0853013 0.0285576 0 0 0 -0.123187 -0.357381 -0.120205 0 -0.000164368 0 0 0 0 0 0 0 0 0 0 0 0 0 0 0 0 0 6 0.002 
453 3 0.00942958 0.0889606 0.0290683 0 0 0 0.0450919 -0.194236 -0.0718676 0 -0.000164368 0 0 0 0 0 0 0 0 0 0 0 0 0 0 0 0 0 3 0.002 
295 2 0.00299475 0.0907279 0.0287816 0 0 0 0.0444855 -0.140304 0.107792 0.00141286 -0.000301482 0.000318042 0 0 0 1 0 0 0 0 0 0 0 0 0 0 0 0 3 0.002 
433 9 0.0141736 0.0904332 0.0293717 0 0 0 -0.0582501 -0.300941 -0.0225036 0.0089297 -0.0164851 0.00164421 0 1 0 0 0 0 0 0 1 0 0 0 0 0 0 0 5 0.002 
439 1 0.018639 0.0901128 0.0291778 0 0 0 0.0706418 -0.396982 1.53259 -0.00477236 0.00145642 -0.0111001 0 0 0 1 0 0 0 0 0 0 0 0 0 0 0 0 7 0.002 
597 6 0.00739691 0.0928581 0.0293697 0 0 0 -0.0442436 -0.339533 -0.0109794 0 -0.000164368 0 0 0 0 0 0 0 0 0 0 0 0 0 0 0 0 0 2 0.002 
566 3 0.00310765 0.095203 0.0295017 0 0 0 0.00705481 -0.220485 -0.034 0 -0.000164368 0 0 0 0 0 0 0 0 0 0 0 0 0 0 0 0 0 2 0.002 
503 7 0.0124281 0.0953113 0.0291745 0 0 0 -0.239414 -0.309006 0.125359 0.0162993 0.00585731 -0.0117321 0 0 0 0 0 0 1 0 0 0 0 0 0 0 0 0 7 0.002 
576 2 0.0165785 0.0937281 0.0293662 0 0 0 -0.0534072 -0.353768 0.195088 0 -0.000164368 0 0 0 0 0 0 0 0 0 0 0 0 0 0 0 0 0 2 0.002 
357 7 0.00782434 0.097085 0.029565 0 0 0 0.0341784 -0.226975 -0.0838 0 -0.000164368 0 0 0 0 0 0 0 0 0 0 0 0 0 0 0 0 0 10 0.002 
309 1 0.00300725 0.0994437 0.0295027 0 0 0 0.0250886 -0.0922718 -0.0698084 -0.0257673 0.0130214 0.00228748 1 0 0 0 0 1 0 0 0 0 0 0 0 0 0 0 11 0.002 
632 6 0.0132301 0.100584 0.0301026 0 0 0 0.114785 -0.204463 0.0691392 0 -0.000164368 0 0 0 0 0 0 0 0 0 0 0 0 0 0 0 0 0 0 0.002 
385 7 0.00665427 0.101975 0.0284818 0 0 0 -0.421955 0.359393 0.391147 0 -0.000164368 0 0 0 0 0 0 0 0 0 0 0 0 0 0 0 0 0 4 0.002 
73 3 0.00300723 0.103589 0.0293499 0 0 0 0.0130846 -0.0506787 -0.0719684 0 -0.000164368 0 0 0 0 0 0 0 0 0 0 0 0 0 0 0 0 0 4 0.002 
96 2 0.00699679 0.106285 0.0300944 0 0 0 -0.0210777 -0.0702333 -0.0156924 -0.000206612 -0.00014224 -0.00025898 0 1 0 0 1 0 0 0 0 0 0 0 0 0 0 0 8 0.002 
540 4 0.0178489 0.107616 0.0289035 0 0 0 -0.123576 -0.0340569 -0.0964089 0 -0.000164368 0 0 0 0 0 0 0 0 0 0 0 0 0 0 0 0 0 5 0.002 
229 6 0.00624153 0.0793735 0.030454 0 0 0 -0.00675579 -0.654448 -0.325179 0 -0.000164368 0 0 0 0 0 0 0 0 0 0 0 0 0 0 0 0 0 13 0.002 
446 9 0.0107169 0.081118 0.0322962 0 0 0 0.135555 -0.347079 -0.0782735 -0.000641599 5.27487e-05 -0.000135006 0 0 0 0 0 0 0 0 1 0 0 0 0 0 0 0 5 0.002 
468 8 0.0065033 0.0865308 0.0307715 0 0 0 0.192551 -0.179914 -0.0199912 -0.000722649 0.000804708 -0.000270292 0 0 0 0 0 0 0 1 0 0 0 1 0 0 0 0 9 0.002 
391 4 0.0106008 0.0928992 0.0317673 0 0 0 -0.10307 -0.167201 0.0785087 -0.0166309 -0.00568497 0.0118399 0 0 0 1 0 0 1 0 0 0 0 0 0 0 0 0 10 0.002 
70 6 0.0161079 0.0978094 0.0304424 0 0 0 0.199446 -0.178043 -0.148293 0 -0.000164368 0 0 0 0 0 0 0 0 0 0 0 0 0 0 0 0 0 9 0.002 
218 4 0.00965779 0.101479 0.03182 0 0 0 0.122938 -0.109623 0.203661 -9.06364e-05 -0.000683225 -4.82218e-05 0 0 0 1 0 0 0 0 0 0 0 0 0 0 0 0 9 0.002 
423 3 0.0108063 0.105052 0.0304412 0 0 0 0.00142663 -0.160176 -0.00702745 6.31356e-05 0.000333132 0.000126876 0 0 0 1 1 0 0 0 0 0 0 0 0 0 0 0 5 0.002 
442 7 0.0173514 0.103747 0.0323685 0 0 0 0.190896 -0.013893 0.0300369 -0.000778048 0.000397235 0.0104468 0 0 0 0 0 0 2 0 0 0 0 0 0 0 0 0 7 0.002 
420 3 0.00330639 0.107078 0.031608 0 0 0 0.0503176 -0.0366557 0.0866484 0 -0.000164368 0 0 0 0 0 0 0 0 0 0 0 0 0 0 0 0 0 3 0.002 
194 2 0.014681 0.0770279 0.0325207 0 0 0 -0.141034 0.0611512 -0.0920189 0 -0.000164368 0 0 0 0 0 0 0 0 0 0 0 0 0 0 0 0 0 9 0.002 
383 6 0.0186644 0.078177 0.0329393 0 0 0 0.16025 -0.397701 -0.0372895 0 -0.000164368 0 0 0 0 0 0 0 0 0 0 0 0 0 0 0 0 0 4 0.002 
377 4 0.00317769 0.0821618 0.033008 0 0 0 0.0681185 -0.306002 -0.173594 -0.000674168 0.00396664 0.00552249 0 0 0 0 0 0 0 0 0 0 0 0 0 0 0 0 7 0.002 
324 5 0.00748191 0.0833542 0.0329865 0 0 0 0.0763005 -0.258963 -0.0510542 0.000831961 -0.00242497 0.000387154 0 0 0 0 1 0 0 1 1 0 0 0 0 0 0 0 7 0.002 
224 5 0.0135531 0.0839733 0.0325788 0 0 0 0.0633239 -0.23556 -0.000109774 0 -0.000164368 0 0 0 0 0 0 0 0 0 0 0 0 0 0 0 0 0 11 0.002 
371 3 0.0102371 0.0862459 0.0329724 0 0 0 0.120147 -0.257603 -0.0248652 -0.00117478 -0.00254179 0.000655852 0 0 1 0 1 0 0 0 0 0 0 0 0 0 0 0 5 0.002 
543 1 0.00305782 0.0869158 0.0329724 0 0 0 0.00514142 -0.311171 -0.0145588 0 -0.000164368 0 0 0 0 0 0 0 0 0 0 0 0 0 0 0 0 0 2 0.002 
431 5 0.0158206 0.0873607 0.0328741 0 0 0 0.0751683 -0.171439 0.0402329 -0.000334378 0.000352943 0.000128853 0 0 0 0 1 0 0 0 0 0 0 0 0 0 0 0 8 0.002 
477 2 0.00375707 0.0910645 0.0327008 0 0 0 0.0606428 -0.100952 0.311818 0 -0.000164368 0 0 0 0 0 0 0 0 0 0 0 0 0 0 0 0 0 5 0.002 
193 8 0.00762484 0.0898506 0.0329938 0 0 0 0.0882839 -0.0851608 -0.0610998 0 -0.000164368 0 0 0 0 0 0 0 0 0 0 0 0 0 0 0 0 0 13 0.002 
460 2 0.0124746 0.0895478 0.0328722 0 0 0 0.0370468 -0.150265 0.00963845 0.000294192 0.00380869 0.00698791 0 0 1 1 1 0 0 0 1 0 0 0 0 0 0 0 11 0.002 
308 1 0.015935 0.0918269 0.0329863 0 0 0 0.0873252 -0.188129 0.00602539 0.000271044 -0.00108095 -2.12461e-05 1 0 0 0 0 0 0 0 0 0 0 0 0 0 0 0 13 0.002 
395 6 0.00714873 0.0949029 0.0329691 0 0 0 -0.164113 -0.20178 -0.0211884 0 -0.000164368 0 0 0 0 0 0 0 0 0 0 0 0 0 0 0 0 0 4 0.002 
178 10 0.0138002 0.0952046 0.0329786 0 0 0 0.050526 -0.190071 0.216589 -0.000271044 0.000752215 2.12461e-05 1 0 0 0 0 0 0 0 0 0 0 0 0 0 0 0 9 0.002 
311 2 0.0181218 0.0954458 0.032984 0 0 0 0.0609881 -0.2653 -0.0442111 0 -0.000164368 0 0 0 0 0 0 0 0 0 0 0 0 0 0 0 0 0 9 0.002 
350 8 0.00303051 0.0972373 0.0329752 0 0 0 0.0308194 -0.16918 -0.026893 0 -0.000164368 0 0 0 0 0 0 0 0 0 0 0 0 0 0 0 0 0 2 0.002 
188 6 0.0106951 0.0977221 0.0327377 0 0 0 0.00648179 -0.193843 0.124539 0 -0.000164368 0 0 0 0 0 0 0 0 0 0 0 0 0 0 0 0 0 12 0.002 
475 2 0.00655803 0.0992154 0.0329706 0 0 0 0.0336237 -0.163822 0.00104044 0 -0.000164368 0 0 0 0 0 0 0 0 0 0 0 0 0 0 0 0 0 2 0.002 
161 8 0.00302098 0.101368 0.0330025 0 0 0 0.044742 -0.0377528 -0.0447776 0.0002748 0.000290521 0.00239537 1 0 0 0 0 0 0 1 0 0 0 0 0 0 0 0 11 0.002 
230 6 0.00638936 0.103515 0.0329242 0 0 0 0.0860082 -0.0553936 0.0312776 0.000855872 0.000184245 -0.000445599 0 0 0 0 0 0 0 1 0 0 0 0 0 0 0 0 9 0.002 
389 5 0.0134194 0.103388 0.0329896 0 0 0 0.18594 0.0229501 -0.0423949 -0.00133051 0.00032276 1.46798e-05 0 0 0 0 0 0 1 0 0 0 0 0 0 0 0 0 7 0.002 
192 7 0.00930244 0.107765 0.0330028 0 0 0 0.0538874 -0.0493261 -0.0213445 -0.000389031 -0.000215134 -0.000745483 0 1 0 0 0 0 0 0 0 0 0 0 0 0 0 0 12 0.002 
338 6 0.0132996 0.107612 0.032888 0 0 0 0.122058 -0.0468636 0.394534 -0.00497818 0.000816101 -0.00205113 0 0 0 0 0 1 0 0 0 0 0 0 0 0 0 0 3 0.002 
262 3 0.0172855 0.107892 0.0328837 0 0 0 0.025129 -0.0652413 -0.0502094 0.00497818 -0.00114484 0.00205113 0 0 0 0 0 1 0 0 0 0 0 0 0 0 0 0 5 0.002 
289 3 0.0187477 0.100032 0.032989 0 0 0 -0.0582944 -0.154624 -0.0373792 0 -0.000164368 0 0 0 0 0 0 0 0 0 0 0 0 0 0 0 0 0 4 0.002 
217 2 0.00811162 0.0903261 0.0100932 0 0 0 -4.37795 -2.6103 2.65251 0 -0.000164368 0 0 0 0 0 0 0 0 0 0 0 0 0 0 0 0 0 7 0.002 
656 1 0.0291223 -0.0472533 -0.0333215 0 0 0 0.638181 -12.2651 14.9905 0 -0.000164368 0 0 0 0 0 0 0 0 0 0 0 0 0 0 0 0 0 0 0.002 
257 6 0.0405717 -0.0509259 -0.0274327 0 0 0 -1.64921 -12.9713 23.0841 0 -0.000164368 0 0 0 0 0 0 0 0 0 0 0 0 0 0 0 0 0 2 0.002 
191 2 0.0286016 -0.0178137 0.0552134 0 0 0 -14.9664 55.9839 18.9618 -0.523404 0.384589 -2.44042 0 0 0 0 0 0 0 0 0 0 0 0 0 0 0 0 4 0.002 
146 9 0.0474147 0.00543908 -0.0408673 0 0 0 0.000220855 -81.7347 -10.8782 3.96295e-06 -0.364527 2.73896 0 0 0 0 0 0 0 0 0 0 0 0 0 0 0 0 0 0.002 
58 1 0.0278739 0.0304226 -0.045333 0 0 0 -3.26123 -17.5518 -9.39247 0 -0.000164368 0 0 0 0 0 0 0 0 0 0 0 0 0 0 0 0 0 4 0.002 
333 2 0.022817 0.0223222 0.0249671 0 0 0 1.64466 -3.64352 2.42961 0 -0.000164368 0 0 0 0 0 0 0 0 0 0 0 0 0 0 0 0 0 4 0.002 
63 6 0.0282829 0.00401557 0.05772 0 0 0 0.607279 20.1878 -2.84853 0.00817221 -0.0155426 -0.320393 0 0 0 0 0 0 0 0 0 0 0 0 0 0 0 0 9 0.002 
610 7 0.0385153 0.0341732 0.0467473 0 0 0 -3.21204 24.374 -19.1651 -0.0557511 -0.53318 -0.641535 0 0 0 0 0 0 0 0 0 0 0 0 0 0 0 0 0 0.002 
129 3 0.0383468 0.0723249 0.0062281 0 0 0 0.488327 -1.40432 -1.25203 0 -0.000164368 0 0 0 0 0 0 0 0 0 0 0 0 0 0 0 0 0 5 0.002 
270 1 0.0202947 0.05121 -0.0355 0 0 0 -1.57382e-177 1.42011e-19 -2.80419e-12 5.81536e-178 -1.35525e-20 0 0 0 0 0 0 0 0 0 0 0 0 0 0 0 0 0 0 0.002 
79 1 0.0427162 0.0514989 -0.0355085 0 0 0 7.08618e-07 -9.65331e-07 3.57803e-13 -2.44833e-07 3.3353e-07 -2.4869e-14 1 0 0 0 0 0 0 0 0 0 0 0 0 0 0 0 19 0.002 
127 3 0.0250783 0.0534295 -0.0355 0 0 0 -4.57857e-158 -5.6696e-23 1.69032e-12 -1.12206e-158 1.35525e-20 0 0 0 0 0 0 0 0 0 0 0 0 0 0 0 0 0 2 0.002 
45 4 0.0455497 0.0535789 -0.0354915 0 0 0 -7.08618e-07 9.65332e-07 2.08701e-13 2.44833e-07 -3.3353e-07 2.13163e-14 1 0 0 0 0 0 0 0 0 0 0 0 0 0 0 0 21 0.002 
276 4 0.0334494 0.0547386 -0.0355 0 0 0 2.24131e-46 1.21469e-19 -3.36617e-12 2.05432e-46 0 0 0 0 0 0 0 0 0 0 0 0 0 0 0 0 0 0 0 0.002 
48 3 0.0234949 0.0573356 -0.0355 0 0 0 -6.43868e-159 2.23279e-19 -3.9279e-12 -7.22531e-159 0 0 0 0 0 0 0 0 0 0 0 0 0 0 0 0 0 0 0 0.002 
52 2 0.0282392 0.0584505 -0.0355 0 0 0 1.57789e-08 4.05834e-08 -4.71748e-09 7.50008e-09 2.31455e-09 -1.90577e-09 0 0 0 0 0 0 0 0 0 0 0 0 0 0 0 0 0 0.002 
351 1 0.0418721 0.05671 -0.0355 0 0 0 2.14285e-224 -1.01433e-19 1.68066e-12 1.97089e-224 1.35525e-20 0 0 0 0 0 0 0 0 0 0 0 0 0 0 0 0 0 0 0.002 
39 3 0.0457171 0.0647552 -0.0355 0 0 0 2.14891e-08 -9.66743e-08 4.3219e-08 -1.3342e-08 -8.25982e-08 -1.18412e-07 0 0 0 0 0 0 0 0 0 0 0 0 0 0 0 0 0 0.002 
638 6 0.0289335 0.0615716 -0.0319849 0 0 0 -0.840274 0.701259 1.13275 0 -0.000164368 0 0 0 0 0 0 0 0 0 0 0 0 0 0 0 0 0 0 0.002 
299 1 0.0354713 0.0720894 -0.0326622 0 0 0 -0.373834 -0.880537 0.0405616 0 -0.000164368 0 0 0 0 0 0 0 0 0 0 0 0 0 0 0 0 0 4 0.002 
664 4 0.0456789 0.0670326 -0.0272632 0 0 0 0.0888474 5.41577 6.56055 0 -0.000164368 0 0 0 0 0 0 0 0 0 0 0 0 0 0 0 0 0 0 0.002 
323 7 0.0292397 0.0730702 -0.0309299 0 0 0 0.992166 -2.96447 0.242787 0 -0.000164368 0 0 0 0 0 0 0 0 0 0 0 0 0 0 0 0 0 5 0.002 
134 2 0.0338807 0.0649204 -0.025698 0 0 0 -1.87382 -0.666967 0.973236 0 -0.000164368 0 0 0 0 0 0 0 0 0 0 0 0 0 0 0 0 0 0 0.002 
54 6 0.0297642 0.0700439 -0.0264918 0 0 0 -0.515726 -2.1803 -1.0977 0 -0.000164368 0 0 0 0 0 0 0 0 0 0 0 0 0 0 0 0 0 1 0.002 
456 8 0.0336582 0.0745986 -0.0259049 0 0 0 -0.252503 -0.209017 0.127341 0 -0.000164368 0 0 0 0 0 0 0 0 0 0 0 0 0 0 0 0 0 0 0.002 
491 2 0.0396605 0.0651523 -0.0229081 0 0 0 0.168625 -2.34595 -0.486693 0 -0.000164368 0 0 0 0 0 0 0 0 0 0 0 0 0 0 0 0 0 5 0.002 
582 7 0.0458273 0.0689465 -0.0230424 0 0 0 -1.14977 -1.01045 1.11237 0 -0.000164368 0 0 0 0 0 0 0 0 0 0 0 0 0 0 0 0 0 0 0.002 
544 2 0.0457913 0.0666845 -0.0184886 0 0 0 0.83147 -1.81845 0.568921 0 -0.000164368 0 0 0 0 0 0 0 0 0 0 0 0 0 0 0 0 0 3 0.002 
499 2 0.0236253 0.0493117 -0.0133556 0 0 0 4.24975 -5.82911 4.14993 0 -0.000164368 0 0 0 0 0 0 0 0 0 0 0 0 0 0 0 0 0 4 0.002 
273 3 0.0415647 0.0587359 -0.0175053 0 0 0 0.977774 -3.62104 -0.0742961 0 -0.000164368 0 0 0 0 0 0 0 0 0 0 0 0 0 0 0 0 0 5 0.002 
583 1 0.029439 0.0622968 -0.0140655 0 0 0 -1.47376 -2.29561 2.65818 0 -0.000164368 0 0 0 0 0 0 0 0 0 0 0 0 0 0 0 0 0 0 0.002 
630 2 0.0194516 0.0420604 -0.0156963 0 0 0 1.09596 -0.476849 -2.06155 0 -0.000164368 0 0 0 0 0 0 0 0 0 0 0 0 0 0 0 0 0 0 0.002 
254 10 0.0267395 0.0671493 -0.00931164 0 0 0 1.39544 -4.3114 2.50014 0 -0.000164368 0 0 0 0 0 0 0 0 0 0 0 0 0 0 0 0 0 13 0.002 
663 7 0.0238398 0.0453087 -0.00387937 0 0 0 30.4478 2.11471 -78.1974 9.98559 -0.541544 -13.8924 0 0 0 0 0 0 0 0 0 0 0 0 0 0 0 0 0 0.002 
530 1 0.0284615 0.0607477 -0.00121213 0 0 0 -1.19427 -0.928731 -0.014748 0 -0.000164368 0 0 0 0 0 0 0 0 0 0 0 0 0 0 0 0 0 1 0.002 
362 1 0.0228254 0.0657624 0.00516428 0 0 0 0.158263 -1.11071 0.0186678 0 -0.000164368 0 0 0 0 0 0 0 0 0 0 0 0 0 0 0 0 0 3 0.002 
509 7 0.045175 0.07204 0.00414337 0 0 0 -3.99968 -0.493056 -3.61557 0 -0.000164368 0 0 0 0 0 0 0 0 0 0 0 0 0 0 0 0 0 8 0.002 
6 3 0.0473578 0.073623 -0.0286554 0 0 0 -0.495681 -1.08804 0.647739 0 -0.000164368 0 0 0 0 0 0 0 0 0 0 0 0 0 0 0 0 0 5 0.002 
662 1 0.034683 0.0680296 0.00599639 0 0 0 -12.3084 18.1479 -33.7397 0 -0.000164368 0 0 0 0 0 0 0 0 0 0 0 0 0 0 0 0 0 0 0.002 
589 5 0.0437572 0.0655222 0.0214809 0 0 0 -2.47118 1.63296 20.0738 0 -0.000164368 0 0 0 0 0 0 0 0 0 0 0 0 0 0 0 0 0 0 0.002 
375 4 0.0268838 0.0579256 0.0146142 0 0 0 1.59745 -0.954008 2.17216 0 -0.000164368 0 0 0 0 0 0 0 0 0 0 0 0 0 0 0 0 0 3 0.002 
551 10 0.0395592 0.0693997 0.0133347 0 0 0 1.39353 11.7691 -2.72135 0 -0.000164368 0 0 0 0 0 0 0 0 0 0 0 0 0 0 0 0 0 1 0.002 
199 4 0.0285837 0.0625886 0.0153957 0 0 0 0.379425 -0.446529 -0.340029 0 -0.000164368 0 0 0 0 0 0 0 0 0 0 0 0 0 0 0 0 0 10 0.002 
369 6 0.033656 0.0708351 0.017759 0 0 0 -0.536967 -0.256356 -0.687693 0 -0.000164368 0 0 0 0 0 0 0 0 0 0 0 0 0 0 0 0 0 6 0.002 
479 9 0.0259079 0.0709717 0.0195555 0 0 0 -0.452689 -0.134196 -1.35025 0 -0.000164368 0 0 0 0 0 0 0 0 0 0 0 0 0 0 0 0 0 4 0.002 
261 1 0.0230238 0.0742272 0.0199936 0 0 0 0.258284 -0.121714 -0.890794 0 -0.000164368 0 0 0 0 0 0 0 0 0 0 0 0 0 0 0 0 0 4 0.002 
14 5 0.0401041 0.0730645 0.0192111 0 0 0 -0.0668118 -0.419292 -0.617069 0 -0.000164368 0 0 0 0 0 0 0 0 0 0 0 0 0 0 0 0 0 8 0.002 
407 4 0.0460637 0.0548769 0.0126648 0 0 0 -2.92104 -0.707372 -7.77155 0 -0.000164368 0 0 0 0 0 0 0 0 0 0 0 0 0 0 0 0 0 6 0.002 
618 7 0.0359207 0.0704346 0.0233888 0 0 0 -0.539839 -0.0645317 -0.0763691 0 -0.000164368 0 0 0 0 0 0 0 0 0 0 0 0 0 0 0 0 0 0 0.002 
342 4 0.0458722 0.0734708 0.0219441 0 0 0 0.0229716 -0.502624 -0.292942 0 -0.000164368 0 0 0 0 0 0 0 0 0 0 0 0 0 0 0 0 0 7 0.002 
464 6 0.0271619 0.0746317 0.0239684 0 0 0 0.593816 -0.369105 -0.470046 0 -0.000164368 0 0 0 0 0 0 0 0 0 0 0 0 0 0 0 0 0 1 0.002 
103 5 0.0448031 0.0625604 0.0279851 0 0 0 1.33164 -0.954391 0.190946 0 -0.000164368 0 0 0 0 0 0 0 0 0 0 0 0 0 0 0 0 0 5 0.002 
173 3 0.0427583 0.0567853 0.0279653 0 0 0 0.227105 -0.926942 -0.159024 0 -0.000164368 0 0 0 0 0 0 0 0 0 0 0 0 0 0 0 0 0 4 0.002 
210 4 0.0397136 0.0589073 0.0297347 0 0 0 0.227877 -0.756605 -0.209311 0 -0.000164368 0 0 0 0 0 0 0 0 0 0 0 0 0 0 0 0 0 10 0.002 
235 3 0.024113 0.0673196 0.0287208 0 0 0 -0.0363155 -0.647075 -0.0938009 0 -0.000164368 0 0 0 0 0 0 0 0 0 0 0 0 0 0 0 0 0 5 0.002 
356 7 0.0446804 0.074391 0.0293342 0 0 0 -0.0405813 -0.293566 -0.0302734 0.00044608 -8.49095e-05 0.000951109 0 0 0 0 0 0 1 0 0 0 0 0 0 0 0 0 12 0.002 
44 5 0.0228341 0.0525901 0.0312063 0 0 0 -0.198964 -0.830706 -0.126663 0 -0.000164368 0 0 0 0 0 0 0 0 0 0 0 0 0 0 0 0 0 12 0.002 
396 3 0.043653 0.0586686 0.0319623 0 0 0 -0.00579542 -0.452656 -0.0134127 0 -0.000164368 0 0 0 0 0 0 0 0 0 0 0 0 0 0 0 0 0 3 0.002 
131 7 0.0234502 0.0652309 0.0323245 0 0 0 0.0445613 -0.641451 -0.0479616 0 -0.000164368 0 0 0 0 0 0 0 0 0 0 0 0 0 0 0 0 0 11 0.002 
532 8 0.0348452 0.0652646 0.0316708 0 0 0 -0.297089 -0.511317 0.0168125 0 -0.000164368 0 0 0 0 0 0 0 0 0 0 0 0 0 0 0 0 0 3 0.002 
55 4 0.0419341 0.0674064 0.0308013 0 0 0 -0.173687 -0.397773 -0.0599483 0 -0.000164368 0 0 0 0 0 0 0 0 0 0 0 0 0 0 0 0 0 8 0.002 
574 5 0.0299971 0.0699491 0.0321219 0 0 0 -0.602171 -0.409828 -0.0707393 0 -0.000164368 0 0 0 0 0 0 0 0 0 0 0 0 0 0 0 0 0 1 0.002 
527 8 0.0235719 0.0745408 0.0315473 0 0 0 0.204475 -0.332982 0.107348 0 -0.000164368 0 0 0 0 0 0 0 0 0 0 0 0 0 0 0 0 0 9 0.002 
51 2 0.0390097 0.074352 0.0314343 0 0 0 -0.157489 -0.212904 -0.0817076 0 -0.000164368 0 0 0 0 0 0 0 0 0 0 0 0 0 0 0 0 0 5 0.002 
114 6 0.0393721 0.0643837 0.0329827 0 0 0 -0.197563 -0.564576 0.0149307 0 -0.000164368 0 0 0 0 0 0 0 0 0 0 0 0 0 0 0 0 0 6 0.002 
451 1 0.0472364 0.0639667 0.0328281 0 0 0 0.15265 -0.174148 -0.065141 0 -0.000164368 0 0 0 0 0 0 0 0 0 0 0 0 0 0 0 0 0 3 0.002 
137 1 0.0374718 0.0707828 0.0325475 0 0 0 -0.150094 -0.22686 -0.121427 0 -0.000164368 0 0 0 0 0 0 0 0 0 0 0 0 0 0 0 0 0 3 0.002 
291 1 0.0434756 0.0718079 0.03264 0 0 0 -0.0681637 -0.407917 0.0653605 0 -0.000164368 0 0 0 0 0 0 0 0 0 0 0 0 0 0 0 0 0 5 0.002 
658 8 0.0375008 0.0506366 0.0287305 0 0 0 -9.08915 23.5391 -30.4352 0 -0.000164368 0 0 0 0 0 0 0 0 0 0 0 0 0 0 0 0 0 0 0.002 
172 5 0.0398391 0.0828291 -0.0329972 0 0 0 0.0823944 0.638192 -1.22511 0 -0.000164368 0 0 0 0 0 0 0 0 0 0 0 0 0 0 0 0 0 5 0.002 
272 2 0.0315385 0.0926155 -0.0320675 0 0 0 -1.32434 -1.6019 0.910657 0 -0.000164368 0 0 0 0 0 0 0 0 0 0 0 0 0 0 0 0 0 2 0.002 
640 1 0.0200422 0.0952678 -0.0303869 0 0 0 0.407266 0.140352 2.87383 0 -0.000164368 0 0 0 0 0 0 0 0 0 0 0 0 0 0 0 0 0 0 0.002 
504 1 0.0346436 0.101377 0.0075826 0 0 0 5.58455 -0.0956535 3.17055 0 -0.000164368 0 0 0 0 0 0 0 0 0 0 0 0 0 0 0 0 0 5 0.002 
482 4 0.0444927 0.0843854 -0.02992 0 0 0 -0.338019 0.472544 0.380148 0 -0.000164368 0 0 0 0 0 0 0 0 0 0 0 0 0 0 0 0 0 0 0.002 