ITEM: TIMESTEP
10600000
ITEM: NUMBER OF ATOMS
1294
ITEM: BOX BOUNDS ff ff ff
-0.01 0.45
-0.15 0.15
-0.08 0.1
ITEM: ATOMS id type x y z ix iy iz vx vy vz fx fy fz c_cc_1 c_cc_2 c_cc_3 c_cc_4 c_cc_5 c_cc_6 c_cc_7 c_cc_8 c_cc_9 c_cc_10 c_cc_11 c_cc_12 c_cc_13 c_cc_14 c_cc_15 c_cc_16 f_fppacc radius 
1313 5 0.0131586 -0.0521481 0.0245825 0 0 0 0.834824 2.88616 6.44434 0 -0.000164368 0 0 0 0 0 0 0 0 0 0 0 0 0 0 0 0 0 0 0.002 
839 3 0.0130988 -0.0408101 0.0252987 0 0 0 1.60471 1.86856 3.05616 0 -0.000164368 0 0 0 0 0 0 0 0 0 0 0 0 0 0 0 0 0 16 0.002 
209 9 0.00843407 -0.0158058 -0.0524407 0 0 0 0.422659 -19.0639 7.5614 0 -0.000164368 0 0 0 0 0 0 0 0 0 0 0 0 0 0 0 0 0 9 0.002 
714 4 0.00913154 -0.0364778 -0.0448353 0 0 0 1.07449 -10.2433 9.28611 0.00222552 -0.0873499 -0.0688778 0 0 0 0 0 0 0 0 0 0 0 0 0 0 0 0 35 0.002 
1146 2 0.0177444 0.00159857 -0.0569902 0 0 0 3.11645 -6.60333 -2.91112 0 -0.000164368 0 0 0 0 0 0 0 0 0 0 0 0 0 0 0 0 0 24 0.002 
250 5 0.00343907 0.00644499 -0.0545914 0 0 0 1.91693 -3.84431 0.593675 0 -0.000164368 0 0 0 0 0 0 0 0 0 0 0 0 0 0 0 0 0 48 0.002 
404 6 0.0164709 0.0214965 -0.0352629 0 0 0 0.336906 -1.49786 -0.586982 0 -0.000164368 0 0 0 0 0 0 0 0 0 0 0 0 0 0 0 0 0 27 0.002 
554 3 0.00400944 0.029445 -0.0257155 0 0 0 0.0505506 -1.15088 -0.241414 0 -0.000164368 0 0 0 0 0 0 0 0 0 0 0 0 0 0 0 0 0 27 0.002 
41 1 0.0151241 0.0528573 -0.0355008 0 0 0 0.00451261 -0.0173216 0.0381465 -0.0179121 -0.00450996 0.017941 0 0 0 0 0 0 0 0 0 0 0 0 0 0 0 0 2 0.002 
1083 8 0.0129076 0.0502452 -0.0325364 0 0 0 5.8595 -7.85978 7.82998 0 -0.000164368 0 0 0 0 0 0 0 0 0 0 0 0 0 0 0 0 0 2 0.002 
896 1 0.00410604 0.0660588 -0.032864 0 0 0 0.0384754 -2.53434 0.0644501 0 -0.000164368 0 0 0 0 0 0 0 0 0 0 0 0 0 0 0 0 0 38 0.002 
900 1 0.0132284 0.0625158 -0.029473 0 0 0 2.51154 2.78154 0.696443 0 -0.000164368 0 0 0 0 0 0 0 0 0 0 0 0 0 0 0 0 0 27 0.002 
852 2 0.0185574 0.0528068 -0.0287709 0 0 0 -1.93162 -3.99282 -4.72148 0 -0.000164368 0 0 0 0 0 0 0 0 0 0 0 0 0 0 0 0 0 17 0.002 
325 6 0.00708766 0.0585302 -0.0273155 0 0 0 0.884429 0.311097 -3.54724 0 -0.000164368 0 0 0 0 0 0 0 0 0 0 0 0 0 0 0 0 0 16 0.002 
959 6 0.0158593 0.0408438 -0.020375 0 0 0 0.137941 2.18424 -6.47105 0 -0.000164368 0 0 0 0 0 0 0 0 0 0 0 0 0 0 0 0 0 37 0.002 
1061 5 0.00425825 0.0385368 -0.0162645 0 0 0 0.89446 -2.08352 0.214496 0 -0.000164368 0 0 0 0 0 0 0 0 0 0 0 0 0 0 0 0 0 19 0.002 
121 2 0.0122671 0.0402029 -0.0101241 0 0 0 1.83387 3.92678 -10.8745 0 -0.000164368 0 0 0 0 0 0 0 0 0 0 0 0 0 0 0 0 0 51 0.002 
417 1 0.00758833 0.0509813 -0.0105272 0 0 0 -0.459212 -0.359065 0.94835 0 -0.000164368 0 0 0 0 0 0 0 0 0 0 0 0 0 0 0 0 0 60 0.002 
425 1 0.00930784 0.0695033 -0.00626869 0 0 0 -1.12503 -0.820693 6.43754 0 -0.000164368 0 0 0 0 0 0 0 0 0 0 0 0 0 0 0 0 0 47 0.002 
377 4 0.0109976 0.0408388 -0.0052497 0 0 0 -1.29166 3.95226 -4.14897 0 -0.000164368 0 0 0 0 0 0 0 0 0 0 0 0 0 0 0 0 0 52 0.002 
44 5 0.00580649 0.0461019 -0.00261527 0 0 0 -1.60277 -1.3059 -0.137669 0 -0.000164368 0 0 0 0 0 0 0 0 0 0 0 0 0 0 0 0 0 34 0.002 
369 6 0.014684 0.0556429 0.0020492 0 0 0 5.11367 2.98267 -6.07033 0 -0.000164368 0 0 0 0 0 0 0 0 0 0 0 0 0 0 0 0 0 40 0.002 
18 3 0.00745805 0.0682405 0.00910925 0 0 0 0.285363 -0.54671 -0.60417 0 -0.000164368 0 0 0 0 0 0 0 0 0 0 0 0 0 0 0 0 0 53 0.002 
675 1 0.0141731 0.0701547 0.0115641 0 0 0 0.494167 0.279761 -1.49646 0 -0.000164368 0 0 0 0 0 0 0 0 0 0 0 0 0 0 0 0 0 38 0.002 
1059 3 0.01115 0.0648314 0.0144637 0 0 0 0.367658 1.19073 -2.95936 0 -0.000164368 0 0 0 0 0 0 0 0 0 0 0 0 0 0 0 0 0 31 0.002 
902 3 0.0174818 0.0651566 0.0137628 0 0 0 0.671964 -0.0129824 -1.22388 0 -0.000164368 0 0 0 0 0 0 0 0 0 0 0 0 0 0 0 0 0 22 0.002 
1137 1 0.00921422 0.0421009 0.0157233 0 0 0 2.98121 -5.1653 7.60549 0 -0.000164368 0 0 0 0 0 0 0 0 0 0 0 0 0 0 0 0 0 3 0.002 
1078 1 0.0116257 0.0608981 0.0166275 0 0 0 -0.048644 0.918748 0.691851 0 -0.000164368 0 0 0 0 0 0 0 0 0 0 0 0 0 0 0 0 0 20 0.002 
966 3 0.0128565 0.0686731 0.0153761 0 0 0 0.476683 1.94655 -0.452899 0 -0.000164368 0 0 0 0 0 0 0 0 0 0 0 0 0 0 0 0 0 30 0.002 
326 4 0.0134759 0.0744121 0.016419 0 0 0 1.0495 -1.83375 0.441344 0 -0.000164368 0 0 0 0 0 0 0 0 0 0 0 0 0 0 0 0 0 58 0.002 
821 3 0.0152168 0.0651406 0.0177322 0 0 0 0.395364 0.576318 -0.436058 0 -0.000164368 0 0 0 0 0 0 0 0 0 0 0 0 0 0 0 0 0 29 0.002 
1104 4 0.00451513 0.0656589 0.0181106 0 0 0 -0.305812 -0.0804379 -1.18993 0 -0.000164368 0 0 0 0 0 0 0 0 0 0 0 0 0 0 0 0 0 12 0.002 
288 1 0.00913679 0.0697503 0.0176002 0 0 0 0.00973509 0.840032 -0.815737 0 -0.000164368 0 0 0 0 0 0 0 0 0 0 0 0 0 0 0 0 0 46 0.002 
820 4 0.0165489 0.0710439 0.0170155 0 0 0 0.0153158 -0.32742 -0.0424248 0 -0.000164368 0 0 0 0 0 0 0 0 0 0 0 0 0 0 0 0 0 17 0.002 
1199 14 0.0181759 0.0555891 0.020324 0 0 0 -0.0377288 -1.00321 -0.909629 0 -0.000164368 0 0 0 0 0 0 0 0 0 0 0 0 0 0 0 0 0 16 0.002 
836 4 0.0185345 0.0634662 0.0208265 0 0 0 0.295926 -0.0393221 -0.540113 0 -0.000164368 0 0 0 0 0 0 0 0 0 0 0 0 0 0 0 0 0 40 0.002 
1200 1 0.0182078 0.0675357 0.0206459 0 0 0 0.254637 -0.185252 -0.459853 0 -0.000164368 0 0 0 0 0 0 0 0 0 0 0 0 0 0 0 0 0 11 0.002 
892 5 0.00361064 0.0717164 0.0190278 0 0 0 -0.350165 0.473119 -0.735376 0 -0.000164368 0 0 0 0 0 0 0 0 0 0 0 0 0 0 0 0 0 28 0.002 
601 8 0.00882204 0.0748222 0.0203798 0 0 0 0.728641 0.578824 0.15347 0 -0.000164368 0 0 0 0 0 0 0 0 0 0 0 0 0 0 0 0 0 39 0.002 
526 2 0.0106996 0.0603974 0.0234987 0 0 0 -1.87455 0.405557 -0.661118 0 -0.000164368 0 0 0 0 0 0 0 0 0 0 0 0 0 0 0 0 0 34 0.002 
695 2 0.0136922 0.0638682 0.0213784 0 0 0 -0.381719 0.291482 -1.06652 0 -0.000164368 0 0 0 0 0 0 0 0 0 0 0 0 0 0 0 0 0 36 0.002 
552 8 0.00917729 0.0666325 0.0229632 0 0 0 -0.011064 0.305586 -0.4841 0 -0.000164368 0 0 0 0 0 0 0 0 0 0 0 0 0 0 0 0 0 57 0.002 
823 9 0.0147934 0.0679441 0.0230121 0 0 0 0.203065 -0.0231599 -0.485726 0 -0.000164368 0 0 0 0 0 0 0 0 0 0 0 0 0 0 0 0 0 22 0.002 
1115 2 0.00347102 0.0722352 0.0233979 0 0 0 -0.033074 0.490292 -0.525399 0 -0.000164368 0 0 0 0 0 0 0 0 0 0 0 0 0 0 0 0 0 20 0.002 
1064 5 0.0125926 0.0709172 0.0212526 0 0 0 -0.124186 -0.00299028 -0.458792 0 -0.000164368 0 0 0 0 0 0 0 0 0 0 0 0 0 0 0 0 0 25 0.002 
262 3 0.0155743 0.0739542 0.0214102 0 0 0 0.119844 -0.297716 -0.0910093 0 -0.000164368 0 0 0 0 0 0 0 0 0 0 0 0 0 0 0 0 0 40 0.002 
632 6 0.00805324 0.0737473 0.0255626 0 0 0 -0.198243 0.00257685 -0.283266 0 -0.000164368 0 0 0 0 0 0 0 0 0 0 0 0 0 0 0 0 0 50 0.002 
1148 4 0.0127038 0.0639391 0.027425 0 0 0 -0.377487 -0.717708 -0.173146 0.00718086 -0.00691842 -0.00262729 0 0 0 1 0 0 0 0 0 0 0 0 0 0 0 0 13 0.002 
1186 8 0.00935886 0.0660646 0.0272786 0 0 0 -0.090773 0.547327 -0.247887 0.00579252 -0.0197144 0.00744891 0 0 0 1 0 0 0 1 0 0 0 0 0 0 0 0 17 0.002 
1191 3 0.00939121 0.0699171 0.0263244 0 0 0 -0.152383 0.608667 -0.27759 -0.0129734 0.0261397 -0.00482162 0 0 0 0 0 0 0 1 0 0 0 0 0 0 0 0 28 0.002 
818 4 0.0173205 0.0685162 0.0266175 0 0 0 0.239386 0.583522 -0.783598 0 -0.000164368 0 0 0 0 0 0 0 0 0 0 0 0 0 0 0 0 0 33 0.002 
999 5 0.013818 0.0714096 0.025843 0 0 0 -0.0967468 0.525738 -0.116922 0 -0.000164368 0 0 0 0 0 0 0 0 0 0 0 0 0 0 0 0 0 32 0.002 
378 2 0.00946537 0.0587267 0.0289137 0 0 0 -1.09653 -0.25532 -0.0531565 0.00163774 0.000109438 -0.00267464 0 0 0 0 0 0 0 0 0 0 0 0 0 0 0 0 41 0.002 
314 6 0.00646575 0.062096 0.0293441 0 0 0 0.36624 0.205041 0.297557 0 -0.000164368 0 0 0 0 0 0 0 0 0 0 0 0 0 0 0 0 0 32 0.002 
845 3 0.0160202 0.0616575 0.0280489 0 0 0 -0.403334 0.411628 -0.541877 0 -0.000164368 0 0 0 0 0 0 0 0 0 0 0 0 0 0 0 0 0 32 0.002 
1071 3 0.00323528 0.0662875 0.0295525 0 0 0 0.155628 0.136417 -0.509869 0 -0.000164368 0 0 0 0 0 0 0 0 0 0 0 0 0 0 0 0 0 17 0.002 
329 7 0.0127238 0.0686067 0.028666 0 0 0 -0.00723628 0.277614 -0.00767217 0 -0.000164368 0 0 0 0 0 0 0 0 0 0 0 0 0 0 0 0 0 52 0.002 
718 11 0.0109208 0.0725502 0.0289482 0 0 0 -0.131877 -0.0387517 -0.274938 -0.00215083 0.00210157 -0.000489614 0 0 0 0 0 0 0 0 0 0 1 0 0 0 0 0 52 0.002 
1044 10 0.017909 0.0716082 0.0291798 0 0 0 0.102789 -0.218045 0.0442704 0.0210925 -0.0341828 0.0420081 0 0 0 0 0 0 0 0 0 1 0 0 0 0 0 0 25 0.002 
531 1 0.00300067 0.0736372 0.028975 0 0 0 0.00921242 -0.31075 0.0178661 0 -0.000164368 0 0 0 0 0 0 0 0 0 0 0 0 0 0 0 0 0 67 0.002 
324 5 0.0106768 0.0657574 0.0322557 0 0 0 -0.451983 0.55772 -0.00558421 0 -0.000164368 0 0 0 0 0 0 0 0 0 0 0 0 0 0 0 0 0 50 0.002 
1110 7 0.0177443 0.0659302 0.0323607 0 0 0 -0.0890624 0.648208 0.115514 0 -0.000164368 0 0 0 0 0 0 0 0 0 0 0 0 0 0 0 0 0 19 0.002 
627 2 0.00300683 0.0702249 0.0319354 0 0 0 0.0257125 0.0754421 -0.0559995 0 -0.000164368 0 0 0 0 0 0 0 0 0 0 0 0 0 0 0 0 0 45 0.002 
1172 8 0.00701648 0.0716111 0.03121 0 0 0 0.0461564 -0.129121 -0.142585 0 -0.000164368 0 0 0 0 0 0 0 0 0 0 0 0 0 0 0 0 0 22 0.002 
749 4 0.0169764 0.0743208 0.0320039 0 0 0 -0.0715142 -0.117319 0.020278 0 -0.000164368 0 0 0 0 0 0 0 0 0 0 0 0 0 0 0 0 0 45 0.002 
928 2 0.00910587 0.0579912 0.032818 0 0 0 -0.0195633 -0.487984 0.082634 -0.00163774 -0.000438175 0.00267464 0 0 0 0 0 0 0 0 0 0 0 0 0 0 0 0 43 0.002 
635 4 0.0146625 0.0632044 0.0329262 0 0 0 -0.306995 0.574597 -0.00242661 0 -0.000164368 0 0 0 0 0 0 0 0 0 0 0 0 0 0 0 0 0 53 0.002 
1122 1 0.00633562 0.0680481 0.0329334 0 0 0 0.460873 0.472568 -0.0500369 0 -0.000164368 0 0 0 0 0 0 0 0 0 0 0 0 0 0 0 0 0 25 0.002 
442 7 0.0174423 0.0702061 0.0329682 0 0 0 -0.0308635 0.228283 -0.104365 0 -0.000164368 0 0 0 0 0 0 0 0 0 0 0 0 0 0 0 0 0 42 0.002 
92 2 0.0117096 0.0704946 0.0328539 0 0 0 -0.0406046 0.141762 -0.116552 0.0207034 -0.0191598 0.00419006 0 1 0 0 0 0 0 0 0 0 0 0 0 0 0 0 59 0.002 
923 10 0.00302707 0.0742339 0.033001 0 0 0 -0.0655677 0.187179 -0.0111621 -0.00286541 -0.00269681 0.00351989 0 0 0 0 0 0 0 0 0 1 0 0 0 0 0 0 30 0.002 
1023 1 0.00996605 0.0740424 0.032611 0 0 0 -0.0905522 0.442329 -0.038835 -0.0207034 0.0188311 -0.00419006 0 1 0 0 0 0 0 0 0 0 0 0 0 0 0 0 33 0.002 
337 8 0.0173807 0.0984964 -0.0327683 0 0 0 0.968758 1.048 1.7875 0 -0.000164368 0 0 0 0 0 0 0 0 0 0 0 0 0 0 0 0 0 44 0.002 
322 2 0.00336833 0.101329 -0.0328568 0 0 0 0.0670973 -0.289021 0.0347864 0 -0.000164368 0 0 0 0 0 0 0 0 0 0 0 0 0 0 0 0 0 53 0.002 
898 1 0.0177144 0.103013 -0.0324905 0 0 0 0.321835 0.929025 0.426108 0 -0.000164368 0 0 0 0 0 0 0 0 0 0 0 0 0 0 0 0 0 19 0.002 
451 1 0.0134571 0.103564 -0.0328562 0 0 0 -0.760035 -0.375782 -0.120479 0 -0.000164368 0 0 0 0 0 0 0 0 0 0 0 0 0 0 0 0 0 37 0.002 
431 5 0.00358191 0.106218 -0.0327954 0 0 0 0.0530957 -0.233052 -0.00840159 0 -0.000164368 0 0 0 0 0 0 0 0 0 0 0 0 0 0 0 0 0 13 0.002 
1198 5 0.00464252 0.0760927 -0.0306629 0 0 0 0.271863 4.3667 -13.9018 0 -0.000164368 0 0 0 0 0 0 0 0 0 0 0 0 0 0 0 0 0 13 0.002 
4 6 0.00438883 0.0875238 -0.029688 0 0 0 0.263073 -1.54093 0.424218 0 -0.000164368 0 0 0 0 0 0 0 0 0 0 0 0 0 0 0 0 0 32 0.002 
77 12 0.00641194 0.0959273 -0.031347 0 0 0 -0.0903083 -0.980777 0.110093 0 -0.000164368 0 0 0 0 0 0 0 0 0 0 0 0 0 0 0 0 0 55 0.002 
536 2 0.00642876 0.101463 -0.0282355 0 0 0 0.374063 -0.279198 0.076526 0 -0.000164368 0 0 0 0 0 0 0 0 0 0 0 0 0 0 0 0 0 41 0.002 
1304 1 0.0149718 0.10106 -0.0279079 0 0 0 -0.189158 3.51772 -1.64285 0 -0.000164368 0 0 0 0 0 0 0 0 0 0 0 0 0 0 0 0 0 0 0.002 
706 9 0.00441174 0.105376 -0.0289363 0 0 0 0.102419 -0.315456 -0.0371814 0.000256622 -0.000253152 0.000503675 0 0 0 0 0 0 0 0 1 0 0 0 0 0 0 0 62 0.002 
972 3 0.00945383 0.105743 -0.0285548 0 0 0 0.427492 -0.296824 -0.389478 0 -0.000164368 0 0 0 0 0 0 0 0 0 0 0 0 0 0 0 0 0 26 0.002 
974 2 0.00483467 0.105905 -0.0249949 0 0 0 0.200625 -0.10143 -0.0478648 -0.000256622 -7.55842e-05 -0.000503675 0 0 0 0 0 0 0 0 1 0 0 0 0 0 0 0 33 0.002 
319 4 0.0161105 0.0895176 -0.0240991 0 0 0 1.60139 -0.524446 0.352732 0 -0.000164368 0 0 0 0 0 0 0 0 0 0 0 0 0 0 0 0 0 10 0.002 
252 6 0.00417995 0.0959516 -0.0226579 0 0 0 0.536656 -0.128104 0.126058 0 -0.000164368 0 0 0 0 0 0 0 0 0 0 0 0 0 0 0 0 0 31 0.002 
154 5 0.00712617 0.0778327 -0.0220423 0 0 0 1.0144 -0.709207 -0.219109 0 -0.000164368 0 0 0 0 0 0 0 0 0 0 0 0 0 0 0 0 0 14 0.002 
956 1 0.00522425 0.0891774 -0.0221543 0 0 0 0.91012 10.2768 9.34447 0 -0.000164368 0 0 0 0 0 0 0 0 0 0 0 0 0 0 0 0 0 12 0.002 
1111 4 0.00984612 0.0960298 -0.0210887 0 0 0 0.112918 -0.0153241 0.233675 0 -0.000164368 0 0 0 0 0 0 0 0 0 0 0 0 0 0 0 0 0 14 0.002 
368 5 0.00960361 0.107181 -0.0206999 0 0 0 0.290306 -0.25998 0.120746 0 -0.000164368 0 0 0 0 0 0 0 0 0 0 0 0 0 0 0 0 0 43 0.002 
553 7 0.00364055 0.0782846 -0.0182339 0 0 0 -0.940003 -0.175521 -0.0894258 0 -0.000164368 0 0 0 0 0 0 0 0 0 0 0 0 0 0 0 0 0 40 0.002 
735 8 0.00446429 0.10656 -0.0197987 0 0 0 -0.115909 0.0826599 -0.327623 0.0041265 -0.00525028 0.00945 0 0 0 0 0 0 0 1 0 0 0 0 0 0 0 0 24 0.002 
1033 2 0.016789 0.107091 -0.0184858 0 0 0 0.7708 -0.619836 0.987571 0 -0.000164368 0 0 0 0 0 0 0 0 0 0 0 0 0 0 0 0 0 30 0.002 
453 3 0.00577206 0.104813 -0.0164595 0 0 0 -0.5135 0.0852019 0.318384 -0.0041265 0.00492155 -0.00945 0 0 0 0 0 0 0 1 0 0 0 0 0 0 0 0 34 0.002 
731 2 0.0123579 0.105961 -0.0165986 0 0 0 0.186201 0.00507798 0.424421 0 -0.000164368 0 0 0 0 0 0 0 0 0 0 0 0 0 0 0 0 0 27 0.002 
835 12 0.00688651 0.10069 -0.0143132 0 0 0 0.245424 -0.172524 0.0805497 0 -0.000164368 0 0 0 0 0 0 0 0 0 0 0 0 0 0 0 0 0 33 0.002 
338 6 0.0117017 0.100707 -0.0149245 0 0 0 -0.492639 0.277012 -0.743996 0 -0.000164368 0 0 0 0 0 0 0 0 0 0 0 0 0 0 0 0 0 47 0.002 
1280 1 0.00923387 0.103941 -0.0136015 0 0 0 -0.101869 0.26685 0.377195 0 -0.000164368 0 0 0 0 0 0 0 0 0 0 0 0 0 0 0 0 0 0 0.002 
941 3 0.0169651 0.103496 -0.0140374 0 0 0 -0.951998 -0.489046 -0.594842 0.00145732 0.00909677 0.00182692 0 0 1 0 0 0 0 0 0 0 0 0 0 0 0 0 31 0.002 
631 1 0.0170967 0.107483 -0.0139212 0 0 0 -0.145596 -0.191053 -0.0303963 -0.00145732 -0.0094255 -0.00182692 0 0 1 0 0 0 0 0 0 0 0 0 0 0 0 0 39 0.002 
1043 8 0.00825933 0.107927 -0.0146656 0 0 0 -0.208747 0.317456 -0.0492854 0 -0.000164368 0 0 0 0 0 0 0 0 0 0 0 0 0 0 0 0 0 13 0.002 
1311 3 0.00355476 0.0883777 -0.0126575 0 0 0 0.67731 -0.0293537 0.0260519 0 -0.000164368 0 0 0 0 0 0 0 0 0 0 0 0 0 0 0 0 0 0 0.002 
416 5 0.0126737 0.0975173 -0.0107715 0 0 0 0.204347 0.0199536 -0.276265 0 -0.000164368 0 0 0 0 0 0 0 0 0 0 0 0 0 0 0 0 0 52 0.002 
240 1 0.00564249 0.104853 -0.0118895 0 0 0 -0.574174 0.10226 0.290635 0 -0.000164368 0 0 0 0 0 0 0 0 0 0 0 0 0 0 0 0 0 44 0.002 
1152 2 0.0117395 0.107891 -0.0117493 0 0 0 0.0610357 -0.113182 0.0465899 0 -0.000164368 0 0 0 0 0 0 0 0 0 0 0 0 0 0 0 0 0 8 0.002 
938 2 0.00841842 0.0840198 -0.00943553 0 0 0 -2.39223 -1.67165 1.59257 0 -0.000164368 0 0 0 0 0 0 0 0 0 0 0 0 0 0 0 0 0 14 0.002 
1270 6 0.00713848 0.0956417 -0.0102346 0 0 0 0.264429 -0.23137 0.444884 0 -0.000164368 0 0 0 0 0 0 0 0 0 0 0 0 0 0 0 0 0 1 0.002 
967 2 0.00891524 0.0994696 -0.00995642 0 0 0 0.0994329 0.168921 -0.0978097 0 -0.000164368 0 0 0 0 0 0 0 0 0 0 0 0 0 0 0 0 0 17 0.002 
732 4 0.00313739 0.1021 -0.0094618 0 0 0 -0.0800904 -0.414798 0.225598 0 -0.000164368 0 0 0 0 0 0 0 0 0 0 0 0 0 0 0 0 0 39 0.002 
621 4 0.00383172 0.107712 -0.00908355 0 0 0 0.13917 -0.07146 0.111437 0 -0.000164368 0 0 0 0 0 0 0 0 0 0 0 0 0 0 0 0 0 38 0.002 
954 5 0.0151675 0.107513 -0.00947018 0 0 0 -1.7241 -0.810706 0.510619 0 -0.000164368 0 0 0 0 0 0 0 0 0 0 0 0 0 0 0 0 0 26 0.002 
1185 6 0.00934493 0.1037 -0.00764168 0 0 0 -0.075422 -0.558087 0.361644 0 -0.000164368 0 0 0 0 0 0 0 0 0 0 0 0 0 0 0 0 0 9 0.002 
606 4 0.0133323 0.0988878 -0.00446872 0 0 0 0.65382 0.574463 -0.693051 0.00446767 -0.0582709 0.00900536 0 0 0 1 0 0 0 0 0 0 0 0 0 0 0 0 56 0.002 
493 5 0.00625527 0.1046 -0.00453343 0 0 0 0.291021 0.192495 -0.126715 0 -0.000164368 0 0 0 0 0 0 0 0 0 0 0 0 0 0 0 0 0 53 0.002 
961 1 0.00298605 0.107524 -0.00466158 0 0 0 0.0491883 0.0540474 0.107654 0.0203164 0.00430311 -0.000403334 0 0 0 0 0 0 0 0 0 0 0 0 0 0 0 0 15 0.002 
182 2 0.00843376 0.0888862 -0.00307337 0 0 0 0.569441 0.645555 -0.160236 0 -0.000164368 0 0 0 0 0 0 0 0 0 0 0 0 0 0 0 0 0 47 0.002 
641 1 0.00668365 0.0987182 -0.00368399 0 0 0 0.304689 0.00161228 -0.0624563 0 -0.000164368 0 0 0 0 0 0 0 0 0 0 0 0 0 0 0 0 0 24 0.002 
550 10 0.0137016 0.10269 -0.00338124 0 0 0 0.853857 -0.186091 0.123837 -0.00446767 0.0579422 -0.00900536 0 0 0 1 0 0 0 0 0 0 0 0 0 0 0 0 43 0.002 
997 6 0.0110442 0.107828 -0.00262109 0 0 0 0.364141 -0.0661965 0.300314 0 -0.000164368 0 0 0 0 0 0 0 0 0 0 0 0 0 0 0 0 0 22 0.002 
962 6 0.00623715 0.0933663 -0.000605795 0 0 0 0.412048 1.00331 -0.740226 0 -0.000164368 0 0 0 0 0 0 0 0 0 0 0 0 0 0 0 0 0 35 0.002 
245 1 0.00966363 0.0917922 0.00073273 0 0 0 -0.0473389 0.285079 -1.06992 0 -0.000164368 0 0 0 0 0 0 0 0 0 0 0 0 0 0 0 0 0 34 0.002 
1196 5 0.00325993 0.0973947 -0.000791174 0 0 0 0.106575 0.831678 -1.19749 0 -0.000164368 0 0 0 0 0 0 0 0 0 0 0 0 0 0 0 0 0 9 0.002 
674 10 0.0106045 0.0966943 -0.00113395 0 0 0 0.170006 0.357154 -0.790254 0 -0.000164368 0 0 0 0 0 0 0 0 0 0 0 0 0 0 0 0 0 32 0.002 
9 6 0.0109769 0.100587 -0.000245653 0 0 0 0.203111 0.144359 -0.624397 0 -0.000164368 0 0 0 0 0 0 0 0 0 0 0 0 0 0 0 0 0 61 0.002 
1317 6 0.00602059 0.102389 -0.00117619 0 0 0 0.120334 0.0935213 -0.277341 0 -0.000164368 0 0 0 0 0 0 0 0 0 0 0 0 0 0 0 0 0 0 0.002 
263 2 0.0159542 0.104151 -3.00183e-06 0 0 0 0.274699 -0.0539636 -0.266204 0 -0.000164368 0 0 0 0 0 0 0 0 0 0 0 0 0 0 0 0 0 31 0.002 
1149 4 0.00338124 0.107217 0.000275842 0 0 0 -0.209545 0.544393 0.218744 0 -0.000164368 0 0 0 0 0 0 0 0 0 0 0 0 0 0 0 0 0 0 0.002 
665 2 0.0176858 0.0842623 0.00299616 0 0 0 1.11314 0.0599096 -0.360667 0 -0.000164368 0 0 0 0 0 0 0 0 0 0 0 0 0 0 0 0 0 36 0.002 
998 5 0.00303245 0.103788 0.00300809 0 0 0 0.0116304 -0.0493447 -0.0470532 0 -0.000164368 0 0 0 0 0 0 0 0 0 0 0 0 0 0 0 0 0 19 0.002 
1223 2 0.0115818 0.104184 0.00152552 0 0 0 0.414409 -0.165856 0.439598 0 -0.000164368 0 0 0 0 0 0 0 0 0 0 0 0 0 0 0 0 0 4 0.002 
1299 5 0.0105182 0.107982 0.00233839 0 0 0 0.356443 -0.070547 0.43267 0 -0.000164368 0 0 0 0 0 0 0 0 0 0 0 0 0 0 0 0 0 2 0.002 
1076 2 0.0156975 0.107944 0.00185123 0 0 0 -0.0658853 -0.00625142 -0.100863 0 -0.000164368 0 0 0 0 0 0 0 0 0 0 0 0 0 0 0 0 0 16 0.002 
933 1 0.00341824 0.0805013 0.00436968 0 0 0 0.687822 -0.453102 1.66238 0 -0.000164368 0 0 0 0 0 0 0 0 0 0 0 0 0 0 0 0 0 28 0.002 
827 2 0.00803937 0.103248 0.00423726 0 0 0 0.0632333 0.45308 0.0264321 0 -0.000164368 0 0 0 0 0 0 0 0 0 0 0 0 0 0 0 0 0 25 0.002 
920 3 0.00345441 0.107516 0.00447582 0 0 0 0.0750291 -0.0123878 -0.107354 0 -0.000164368 0 0 0 0 0 0 0 0 0 0 0 0 0 0 0 0 0 25 0.002 
794 6 0.018704 0.106621 0.00451308 0 0 0 0.139592 0.116917 -0.10098 0 -0.000164368 0 0 0 0 0 0 0 0 0 0 0 0 0 0 0 0 0 20 0.002 
1153 8 0.00653488 0.0949004 0.0067349 0 0 0 -1.6475 1.70227 -0.795823 0 -0.000164368 0 0 0 0 0 0 0 0 0 0 0 0 0 0 0 0 0 25 0.002 
676 1 0.0159211 0.0982761 0.00549199 0 0 0 0.104001 0.538936 -0.543177 0 -0.000164368 0 0 0 0 0 0 0 0 0 0 0 0 0 0 0 0 0 38 0.002 
1229 6 0.00349778 0.101561 0.00637752 0 0 0 0.0287055 0.0426231 0.0742851 0 -0.000164368 0 0 0 0 0 0 0 0 0 0 0 0 0 0 0 0 0 5 0.002 
741 5 0.0124991 0.102099 0.00705848 0 0 0 -0.581501 1.12423 -0.921947 0 -0.000164368 0 0 0 0 0 0 0 0 0 0 0 0 0 0 0 0 0 31 0.002 
1293 6 0.0087324 0.107629 0.0059111 0 0 0 0.0788451 0.0472843 0.325576 0 -0.000164368 0 0 0 0 0 0 0 0 0 0 0 0 0 0 0 0 0 0 0.002 
297 3 0.00302586 0.0942145 0.00927683 0 0 0 0.039093 -0.0575044 -0.147817 0 -0.000164368 0 0 0 0 0 0 0 0 0 0 0 0 0 0 0 0 0 43 0.002 
1289 4 0.00310511 0.0982783 0.00865797 0 0 0 0.0651581 0.109066 0.0773973 0 -0.000164368 0 0 0 0 0 0 0 0 0 0 0 0 0 0 0 0 0 1 0.002 
440 5 0.00902303 0.0990273 0.00914698 0 0 0 0.0870412 -0.204811 0.164025 0 -0.000164368 0 0 0 0 0 0 0 0 0 0 0 0 0 0 0 0 0 60 0.002 
1218 8 0.00849926 0.103624 0.00839285 0 0 0 -0.019724 -0.0879734 0.157174 0 -0.000164368 0 0 0 0 0 0 0 0 0 0 0 0 0 0 0 0 0 6 0.002 
626 1 0.0125776 0.105201 0.00982847 0 0 0 -0.281024 0.798702 0.330809 0 -0.000164368 0 0 0 0 0 0 0 0 0 0 0 0 0 0 0 0 0 34 0.002 
339 4 0.00305502 0.10714 0.00962244 0 0 0 0.0143255 -0.0264881 0.0605087 0 -0.000164368 0 0 0 0 0 0 0 0 0 0 0 0 0 0 0 0 0 39 0.002 
1244 12 0.0186158 0.106901 0.00980101 0 0 0 0.460879 0.889067 0.00856272 0.0232097 0.0220803 -0.000430504 0 0 0 0 0 0 0 0 0 0 0 2 0 0 0 0 9 0.002 
230 6 0.0071836 0.107967 0.00963892 0 0 0 -0.217968 0.126247 0.130404 0 -0.000164368 0 0 0 0 0 0 0 0 0 0 0 0 0 0 0 0 0 51 0.002 
1193 8 0.0110459 0.0763195 0.0114139 0 0 0 0.353281 0.132408 -0.658981 0 -0.000164368 0 0 0 0 0 0 0 0 0 0 0 0 0 0 0 0 0 26 0.002 
481 2 0.00559213 0.0865977 0.0114327 0 0 0 0.100537 0.511906 -0.780319 0 -0.000164368 0 0 0 0 0 0 0 0 0 0 0 0 0 0 0 0 0 24 0.002 
1154 12 0.00506711 0.0908501 0.0100312 0 0 0 -0.343232 -0.26216 0.260885 0 -0.000164368 0 0 0 0 0 0 0 0 0 0 0 0 0 0 0 0 0 14 0.002 
1322 2 0.0184955 0.0916754 0.0118059 0 0 0 2.69835 -0.673421 -0.204007 0 -0.000164368 0 0 0 0 0 0 0 0 0 0 0 0 0 0 0 0 0 0 0.002 
411 1 0.0100732 0.0942883 0.0112074 0 0 0 -0.140664 0.00209054 -0.213945 0 -0.000164368 0 0 0 0 0 0 0 0 0 0 0 0 0 0 0 0 0 4 0.002 
225 4 0.00677836 0.0966972 0.0118002 0 0 0 -0.209588 0.0808504 0.0308133 0 -0.000164368 0 0 0 0 0 0 0 0 0 0 0 0 0 0 0 0 0 22 0.002 
467 1 0.0155121 0.0996186 0.0107926 0 0 0 -0.153565 0.778687 0.342307 -0.000922279 -0.0010349 0.0114693 1 0 0 0 0 0 0 0 0 0 0 0 0 0 0 0 42 0.002 
125 10 0.00321284 0.102438 0.0105708 0 0 0 -0.206395 -0.122443 0.0134606 0 -0.000164368 0 0 0 0 0 0 0 0 0 0 0 0 0 0 0 0 0 43 0.002 
799 3 0.00595952 0.105002 0.0120302 0 0 0 -0.387594 0.211507 0.213358 8.60444e-05 -0.000142606 -0.000130251 0 0 1 0 0 0 0 0 0 0 0 0 0 0 0 0 42 0.002 
1306 4 0.0167223 0.103459 0.0101291 0 0 0 0.0431076 0.536773 0.139569 -0.0270485 -0.0333175 0.00072404 0 0 0 1 0 0 0 0 0 0 0 0 0 0 0 0 1 0.002 
548 4 0.00420213 0.0816097 0.0127384 0 0 0 0.741032 1.60425 -0.952422 0 -0.000164368 0 0 0 0 0 0 0 0 0 0 0 0 0 0 0 0 0 45 0.002 
1166 1 0.0176444 0.082575 0.0130494 0 0 0 -0.0292416 -0.195147 -0.102518 0 -0.000164368 0 0 0 0 0 0 0 0 0 0 0 0 0 0 0 0 0 7 0.002 
871 2 0.00532933 0.0894177 0.014422 0 0 0 0.00764193 -0.0487456 0.00167763 -0.00238685 -0.00288067 -0.000189312 0 1 0 0 0 0 0 0 0 0 0 0 0 0 0 0 17 0.002 
1068 4 0.010615 0.0893834 0.0137482 0 0 0 0.284906 -0.247718 -0.036426 0.000291664 -0.0102094 -0.00914386 0 0 0 1 0 0 0 0 0 0 0 0 0 0 0 0 15 0.002 
1009 1 0.00684487 0.0929033 0.0132106 0 0 0 -0.0469023 0.0672612 0.0385739 0.00238685 0.00255193 0.000189312 0 1 0 0 0 0 0 0 0 0 0 0 0 0 0 0 13 0.002 
926 2 0.0030448 0.0976183 0.0132783 0 0 0 -0.419122 0.101484 -0.0656018 0 -0.000164368 0 0 0 0 0 0 0 0 0 0 0 0 0 0 0 0 0 23 0.002 
407 4 0.0186666 0.0965255 0.0126076 0 0 0 0.0802865 1.62404 -0.288409 0 -0.000164368 0 0 0 0 0 0 0 0 0 0 0 0 0 0 0 0 0 35 0.002 
987 4 0.00629191 0.100638 0.0123873 0 0 0 -0.0470146 0.0861831 0.144665 0 -0.000164368 0 0 0 0 0 0 0 0 0 0 0 0 0 0 0 0 0 16 0.002 
570 1 0.0116372 0.0999156 0.0123494 0 0 0 -0.0437506 0.0724918 0.341022 0 -0.000164368 0 0 0 0 0 0 0 0 0 0 0 0 0 0 0 0 0 38 0.002 
257 6 0.00977528 0.103544 0.0122993 0 0 0 -0.181681 0.193825 0.184222 -0.000489528 -0.00210927 -0.00266527 0 0 0 0 0 1 0 0 0 0 0 0 0 0 0 0 35 0.002 
927 3 0.013869 0.10318 0.0133324 0 0 0 -0.24447 0.306495 0.269709 0 -0.000164368 0 0 0 0 0 0 0 0 0 0 0 0 0 0 0 0 0 23 0.002 
1292 9 0.00311066 0.107723 0.0137379 0 0 0 0.014513 -0.0670904 0.104005 0 -0.000164368 0 0 0 0 0 0 0 0 0 0 0 0 0 0 0 0 0 1 0.002 
189 5 0.0111995 0.107477 0.0130352 0 0 0 -0.000744046 -0.147899 0.170289 0 -0.000164368 0 0 0 0 0 0 0 0 0 0 0 0 0 0 0 0 0 28 0.002 
1253 2 0.0154715 0.106768 0.0122695 0 0 0 0.212721 0.279182 -0.00322601 0.0038388 0.0107442 -0.000293535 0 1 0 0 0 0 0 0 0 0 0 0 0 0 0 0 4 0.002 
503 7 0.00877828 0.0759398 0.0147195 0 0 0 -0.257426 1.23706 -0.563972 0 -0.000164368 0 0 0 0 0 0 0 0 0 0 0 0 0 0 0 0 0 47 0.002 
128 4 0.0173199 0.0766715 0.016412 0 0 0 0.286003 -0.136484 -0.46479 -0.000271731 -0.000642671 -0.00036063 0 0 0 1 0 0 0 0 0 0 0 0 0 0 0 0 47 0.002 
477 2 0.0132011 0.078601 0.0147243 0 0 0 3.06659 -0.597666 -1.24887 0 -0.000164368 0 0 0 0 0 0 0 0 0 0 0 0 0 0 0 0 0 15 0.002 
983 5 0.00494767 0.0852005 0.0154716 0 0 0 1.07144 1.47619 0.0625897 -0.0108851 -0.0783777 -0.0524523 0 0 0 0 1 0 0 0 0 0 0 0 0 0 0 0 22 0.002 
1201 4 0.0155478 0.0868072 0.01626 0 0 0 0.102646 -0.176898 0.054371 0 -0.000164368 0 0 0 0 0 0 0 0 0 0 0 0 0 0 0 0 0 3 0.002 
801 5 0.0185813 0.0893756 0.0152162 0 0 0 0.250236 -0.384653 0.845119 -0.0628948 0.0536677 -0.035796 0 0 0 0 1 0 0 0 0 0 0 0 0 0 0 0 30 0.002 
336 9 0.00299576 0.0936526 0.0148068 0 0 0 0.107546 -0.187315 -0.00255321 -0.019945 -0.00062685 0.00148434 0 0 0 0 0 0 0 0 1 0 0 0 0 0 0 0 47 0.002 
721 5 0.0121034 0.0943903 0.0147745 0 0 0 -0.915981 0.502952 0.215174 0 -0.000164368 0 0 0 0 0 0 0 0 0 0 0 0 0 0 0 0 0 37 0.002 
1117 1 0.00578715 0.0962701 0.0159282 0 0 0 -0.470616 0.0682926 0.286257 0.0154451 0.00532333 0.000967372 0 0 0 0 0 0 0 0 1 0 0 0 0 0 0 0 1 0.002 
568 1 0.0096188 0.0974571 0.0157147 0 0 0 -0.264902 -0.119121 0.676823 0.0125456 -0.018686 -0.00757338 1 0 0 0 0 0 0 0 0 0 0 0 0 0 0 0 18 0.002 
989 4 0.00751174 0.100776 0.0162408 0 0 0 -0.23736 0.229255 -0.00887109 -0.0125456 0.0183573 0.00757338 1 0 0 0 0 0 0 0 0 0 0 0 0 0 0 0 13 0.002 
824 6 0.0150676 0.0989721 0.0147092 0 0 0 -0.142377 0.281213 0.642491 0.000922279 0.000706166 -0.0114693 1 0 0 0 0 0 0 0 0 0 0 0 0 0 0 0 37 0.002 
140 4 0.00300115 0.101432 0.0145264 0 0 0 0.00475942 0.0253234 0.204385 0 -0.000164368 0 0 0 0 0 0 0 0 0 0 0 0 0 0 0 0 0 39 0.002 
143 7 0.0176003 0.102447 0.0161167 0 0 0 -0.0994201 -0.169095 0.156495 0 -0.000164368 0 0 0 0 0 0 0 0 0 0 0 0 0 0 0 0 0 7 0.002 
1062 4 0.00550558 0.104351 0.0159469 0 0 0 -0.0412988 0.0222167 0.254497 0.00079337 0.00102412 -0.00213523 0 0 1 1 0 0 0 0 0 0 0 0 0 0 0 0 21 0.002 
1160 2 0.00958374 0.104371 0.0162033 0 0 0 -0.169528 -0.0186074 0.197299 0.00037333 0.00127554 0.00258425 0 1 0 0 0 1 0 0 0 0 0 0 0 0 0 0 11 0.002 
639 9 0.0071758 0.107775 0.0146771 0 0 0 -0.0165616 0.0954095 0.329573 0 -0.000164368 0 0 0 0 0 0 0 0 0 0 0 0 0 0 0 0 0 44 0.002 
717 2 0.0141046 0.107909 0.0158822 0 0 0 0.105478 -0.0512285 0.112932 0 -0.000164368 0 0 0 0 0 0 0 0 0 0 0 0 0 0 0 0 0 32 0.002 
278 11 0.00730793 0.081073 0.017356 0 0 0 0.600748 -0.255191 0.143154 0 -0.000164368 0 0 0 0 0 0 0 0 0 0 0 0 0 0 0 0 0 49 0.002 
20 3 0.0178082 0.0804744 0.017504 0 0 0 -0.0961441 0.0914639 -0.453226 0.000271731 0.000313935 0.00036063 0 0 0 1 0 0 0 0 0 0 0 0 0 0 0 0 43 0.002 
179 1 0.00997869 0.084088 0.0174825 0 0 0 0.289171 0.204222 0.02079 0 -0.000164368 0 0 0 0 0 0 0 0 0 0 0 0 0 0 0 0 0 37 0.002 
151 8 0.00428439 0.0880492 0.0181325 0 0 0 -0.135886 0.408675 0.0656268 0.0108851 0.078049 0.0524523 0 0 0 0 1 0 0 0 0 0 0 0 0 0 0 0 24 0.002 
560 4 0.012044 0.0873076 0.0187606 0 0 0 0.130005 0.386604 -0.224516 0 -0.000164368 0 0 0 0 0 0 0 0 0 0 0 0 0 0 0 0 0 31 0.002 
951 10 0.0115824 0.0910642 0.0172344 0 0 0 0.0735879 -0.350694 -0.0876597 -0.000291664 0.0098807 0.00914386 0 0 0 1 0 0 0 0 0 0 0 0 0 0 0 0 24 0.002 
149 7 0.0040783 0.0920702 0.0188878 0 0 0 -0.0189484 0.172108 0.0197497 0 -0.000164368 0 0 0 0 0 0 0 0 0 0 0 0 0 0 0 0 0 55 0.002 
726 1 0.00760324 0.0915899 0.0169796 0 0 0 0.0427664 -0.0463897 -0.0533647 0 -0.000164368 0 0 0 0 0 0 0 0 0 0 0 0 0 0 0 0 0 37 0.002 
696 4 0.0135775 0.0953806 0.0189337 0 0 0 -0.174194 0.0730599 0.455502 0.0002263 0.00126331 0.00426291 0 0 0 1 0 0 0 0 0 0 0 0 0 0 0 0 47 0.002 
886 5 0.0176868 0.0945921 0.0183006 0 0 0 0.0285887 -0.193865 -0.0131082 0 -0.000164368 0 0 0 0 0 0 0 0 0 0 0 0 0 0 0 0 0 26 0.002 
650 3 0.00301252 0.0987432 0.0180774 0 0 0 0.00391321 -0.12433 0.0348377 0 -0.000164368 0 0 0 0 0 0 0 0 0 0 0 0 0 0 0 0 0 43 0.002 
1250 6 0.0116107 0.100563 0.0173737 0 0 0 -0.056032 0.43345 0.178007 0 -0.000164368 0 0 0 0 0 0 0 0 0 0 0 0 0 0 0 0 0 7 0.002 
948 3 0.0136272 0.104122 0.0172249 0 0 0 -0.0375498 0.529091 0.310416 0 -0.000164368 0 0 0 0 0 0 0 0 0 0 0 0 0 0 0 0 0 28 0.002 
888 1 0.0105218 0.107492 0.0185048 0 0 0 -0.00132264 0.0376371 0.262009 0.00149186 -0.000390053 -0.000444792 1 1 0 0 0 0 0 0 0 0 0 0 0 0 0 0 34 0.002 
846 5 0.0065588 0.107983 0.0186269 0 0 0 -0.0175604 -0.00169929 0.258189 -0.00137566 0.000566308 0.000525815 1 0 0 0 0 0 0 0 0 0 0 0 0 0 0 0 19 0.002 
457 6 0.0175941 0.107945 0.0179615 0 0 0 0.0820505 -0.00453695 0.212167 0 -0.000164368 0 0 0 0 0 0 0 0 0 0 0 0 0 0 0 0 0 33 0.002 
988 10 0.00557318 0.0772101 0.0198207 0 0 0 0.135577 0.00118832 -0.352141 0 -0.000164368 0 0 0 0 0 0 0 0 0 0 0 0 0 0 0 0 0 21 0.002 
1077 1 0.0142643 0.0784013 0.019062 0 0 0 1.08409 -1.19383 0.682699 0 -0.000164368 0 0 0 0 0 0 0 0 0 0 0 0 0 0 0 0 0 14 0.002 
287 6 0.0122242 0.083165 0.0206675 0 0 0 0.275755 0.108566 0.00719314 -0.016042 0.00514399 -0.0206134 0 0 0 0 0 1 0 0 0 0 0 0 0 0 0 0 36 0.002 
582 7 0.00316516 0.0843805 0.0193295 0 0 0 -0.158874 0.0983488 -0.0174243 -0.00028457 -0.00583708 -0.00894731 0 0 0 0 0 0 1 0 0 0 0 0 0 0 0 0 36 0.002 
1133 6 0.0105729 0.090336 0.0211123 0 0 0 -0.0357864 -0.136321 0.0351017 0 -0.000164368 0 0 0 0 0 0 0 0 0 0 0 0 0 0 0 0 0 8 0.002 
1183 1 0.0172093 0.0901064 0.0194352 0 0 0 0.674061 -0.726654 0.503094 -0.0022679 -0.0091329 0.0169799 1 0 0 0 0 0 0 0 0 0 0 0 0 0 0 0 18 0.002 
680 6 0.00832215 0.0942841 0.0200379 0 0 0 0.0865389 -0.114861 0.0598399 0 -0.000164368 0 0 0 0 0 0 0 0 0 0 0 0 0 0 0 0 0 54 0.002 
685 7 0.00711274 0.0980667 0.0192643 0 0 0 -0.143644 0.00338202 0.299352 0.000901499 -0.000176996 0.000738841 0 0 0 0 0 0 1 0 0 0 0 0 0 0 0 0 33 0.002 
222 8 0.0154636 0.0990164 0.0192889 0 0 0 0.0118108 0.134337 0.514589 0 -0.000164368 0 0 0 0 0 0 0 0 0 0 0 0 0 0 0 0 0 33 0.002 
327 3 0.00464069 0.102283 0.0192511 0 0 0 -0.0617043 -0.11013 0.189723 -0.000879415 -0.00137462 0.00226548 0 0 0 1 0 0 0 0 0 0 0 0 0 0 0 0 10 0.002 
84 8 0.00913855 0.102476 0.0198943 0 0 0 -0.252889 0.0935735 0.382359 0 -0.000164368 0 0 0 0 0 0 0 0 0 0 0 0 0 0 0 0 0 49 0.002 
831 4 0.0163403 0.103268 0.0200627 0 0 0 0.162457 0.0531026 0.183729 -4.15653e-05 2.28634e-05 0.000228176 0 0 0 1 0 0 0 0 0 0 0 0 0 0 0 0 17 0.002 
574 5 0.0030004 0.10593 0.0190046 0 0 0 -0.00414895 -0.0306513 0.206967 -5.48345e-05 -0.000140615 -0.000213014 0 0 0 0 1 0 0 0 0 0 0 0 0 0 0 0 27 0.002 