ITEM: TIMESTEP
6000000
ITEM: NUMBER OF ATOMS
733
ITEM: BOX BOUNDS ff ff ff
-0.01 0.45
-0.15 0.15
-0.08 0.1
ITEM: ATOMS id type x y z ix iy iz vx vy vz fx fy fz c_cc_1 c_cc_2 c_cc_3 c_cc_4 c_cc_5 c_cc_6 c_cc_7 c_cc_8 c_cc_9 c_cc_10 c_cc_11 c_cc_12 c_cc_13 c_cc_14 c_cc_15 c_cc_16 f_fppacc radius 
257 6 0.00313023 -0.0555254 -0.0146022 0 0 0 3.85013 -7.12402 30.0704 0 -0.000164368 0 0 0 0 0 0 0 0 0 0 0 0 0 0 0 0 0 3 0.002 
300 1 0.0144054 -0.0190682 0.0543988 0 0 0 17.8814 24.6246 4.7779 1.03662 -0.819707 0.441739 1 0 0 0 0 0 0 0 0 0 0 0 0 0 0 0 7 0.002 
62 2 0.0122419 -0.0166719 0.0554062 0 0 0 -5.30694 19.6452 11.3681 -0.749919 0.540185 -2.1791 1 0 0 0 0 0 0 0 0 0 0 0 0 0 0 0 7 0.002 
342 4 0.0094385 0.0261061 -0.0332995 0 0 0 1.58572 -2.88811 -12.7246 0 -0.000164368 0 0 0 0 0 0 0 0 0 0 0 0 0 0 0 0 0 10 0.002 
437 8 0.0173713 0.0367804 -0.0297506 0 0 0 1.23564 -3.06389 0.435579 0 -0.000164368 0 0 0 0 0 0 0 0 0 0 0 0 0 0 0 0 0 8 0.002 
446 9 0.012598 0.0302446 0.0160643 0 0 0 -0.249465 -2.00207 -1.04708 0 -0.000164368 0 0 0 0 0 0 0 0 0 0 0 0 0 0 0 0 0 11 0.002 
12 9 0.00372126 0.0321721 0.0190156 0 0 0 0.163724 -2.46224 -0.131171 0 -0.000164368 0 0 0 0 0 0 0 0 0 0 0 0 0 0 0 0 0 7 0.002 
203 3 0.00577413 0.0321341 0.0250583 0 0 0 -0.079874 -2.21873 1.13192 0 -0.000164368 0 0 0 0 0 0 0 0 0 0 0 0 0 0 0 0 0 9 0.002 
734 9 0.0149834 0.0200697 0.0338949 0 0 0 -0.254917 -2.63762 0.273309 0 -0.000164368 0 0 0 0 0 0 0 0 0 0 0 0 0 0 0 0 0 0 0.002 
563 1 0.00685544 0.0194248 0.0397717 0 0 0 1.57819 -10.1403 2.20901 0 -0.000164368 0 0 0 0 0 0 0 0 0 0 0 0 0 0 0 0 0 0 0.002 
41 1 0.0151299 0.0528531 -0.0355 0 0 0 2.22555e-308 1.01659e-19 5.66799e-13 -0 0 0 0 0 0 0 0 0 0 0 0 0 0 0 0 0 0 0 1 0.002 
393 11 0.0145199 0.0746111 0.00779413 0 0 0 0.339237 -0.25597 -1.22681 0 -0.000164368 0 0 0 0 0 0 0 0 0 0 0 0 0 0 0 0 0 11 0.002 
534 13 0.00513741 0.0403458 -0.0185514 0 0 0 0.464882 -4.43115 1.69556 0 -0.000164368 0 0 0 0 0 0 0 0 0 0 0 0 0 0 0 0 0 2 0.002 
688 1 0.0091413 0.0573133 -0.016472 0 0 0 4.15898 0.912863 21.7027 0 -0.000164368 0 0 0 0 0 0 0 0 0 0 0 0 0 0 0 0 0 1 0.002 
538 1 0.0120016 0.0454976 0.0155372 0 0 0 1.44948 -1.14511 4.10552 0 -0.000164368 0 0 0 0 0 0 0 0 0 0 0 0 0 0 0 0 0 3 0.002 
523 2 0.00600137 0.0546464 0.0125388 0 0 0 3.27578 -0.49866 -1.69372 0 -0.000164368 0 0 0 0 0 0 0 0 0 0 0 0 0 0 0 0 0 7 0.002 
129 3 0.00443932 0.0676814 0.013784 0 0 0 0.370759 0.467973 -0.708404 0 -0.000164368 0 0 0 0 0 0 0 0 0 0 0 0 0 0 0 0 0 7 0.002 
218 4 0.010641 0.0634918 0.0167971 0 0 0 0.258284 3.60392 2.2185 0 -0.000164368 0 0 0 0 0 0 0 0 0 0 0 0 0 0 0 0 0 11 0.002 
294 1 0.00601435 0.0732021 0.0170339 0 0 0 -0.0307539 -0.602729 -0.621709 0 -0.000164368 0 0 0 0 0 0 0 0 0 0 0 0 0 0 0 0 0 8 0.002 
729 9 0.00361286 0.0652997 0.0209675 0 0 0 0.540654 0.378849 0.745882 0 -0.000164368 0 0 0 0 0 0 0 0 0 0 0 0 0 0 0 0 0 0 0.002 
55 4 0.00299461 0.0692633 0.0210433 0 0 0 0.0554649 0.904576 0.035389 0.00136855 -0.000846687 -5.16937e-05 0 0 0 0 0 0 0 0 0 0 0 0 0 0 0 0 9 0.002 
524 5 0.0140732 0.0697414 0.0220955 0 0 0 -2.32634 3.51848 -0.847658 0 -0.000164368 0 0 0 0 0 0 0 0 0 0 0 0 0 0 0 0 0 9 0.002 
261 1 0.00298936 0.0737519 0.021635 0 0 0 0.211626 -0.309487 -0.349354 -0.00464015 0.000319127 0.000716388 0 0 0 0 0 0 0 0 0 0 0 0 0 0 0 0 7 0.002 
653 9 0.00655765 0.0525537 0.0240425 0 0 0 0.497436 -1.52053 0.75098 0 -0.000164368 0 0 0 0 0 0 0 0 0 0 0 0 0 0 0 0 0 5 0.002 
179 1 0.0136459 0.0582448 0.0275234 0 0 0 0.591831 5.13292 3.66983 0 -0.000164368 0 0 0 0 0 0 0 0 0 0 0 0 0 0 0 0 0 13 0.002 
540 4 0.00317184 0.061526 0.0239048 0 0 0 0.412433 -0.162526 0.218029 0 -0.000164368 0 0 0 0 0 0 0 0 0 0 0 0 0 0 0 0 0 6 0.002 
295 2 0.00304618 0.0658143 0.0252586 0 0 0 0.159056 0.345464 -0.0461231 -0.00141646 -0.0189296 -0.0148366 0 0 0 0 0 0 0 0 0 0 0 0 0 0 0 0 14 0.002 
389 5 0.00658199 0.065141 0.0270101 0 0 0 -0.0799423 -0.281555 -0.266995 0 -0.000164368 0 0 0 0 0 0 0 0 0 0 0 0 0 0 0 0 0 12 0.002 
475 2 0.00351842 0.0674992 0.0288371 0 0 0 0.151469 0.240341 -0.21427 0.00141646 0.0186008 0.0148366 0 0 0 0 0 0 0 0 0 0 0 0 0 0 0 0 6 0.002 
199 4 0.00664077 0.0700058 0.0284451 0 0 0 -0.253464 0.112878 -0.325987 0 -0.000164368 0 0 0 0 0 0 0 0 0 0 0 0 0 0 0 0 0 12 0.002 
615 3 0.0186068 0.0705607 0.0299706 0 0 0 0.04643 -0.612218 -0.0225584 0 -0.000164368 0 0 0 0 0 0 0 0 0 0 0 0 0 0 0 0 0 2 0.002 
548 4 0.00383743 0.0738522 0.0289202 0 0 0 0.270213 0.0341959 -0.00145939 0 -0.000164368 0 0 0 0 0 0 0 0 0 0 0 0 0 0 0 0 0 13 0.002 
702 1 0.00905585 0.0737356 0.0296612 0 0 0 0.056637 -0.0183176 -0.105423 0 -0.000164368 0 0 0 0 0 0 0 0 0 0 0 0 0 0 0 0 0 0 0.002 
727 2 0.0121145 0.0612765 0.0317269 0 0 0 1.70888 0.240268 0.441245 0 -0.000164368 0 0 0 0 0 0 0 0 0 0 0 0 0 0 0 0 0 0 0.002 
74 5 0.00830451 0.0671503 0.0310111 0 0 0 -0.0154568 -0.16613 -0.456337 0 -0.000164368 0 0 0 0 0 0 0 0 0 0 0 0 0 0 0 0 0 10 0.002 
395 6 0.00306301 0.0644941 0.0329602 0 0 0 -0.281858 0.209742 -0.0814526 0 -0.000164368 0 0 0 0 0 0 0 0 0 0 0 0 0 0 0 0 0 12 0.002 
230 6 0.00460331 0.0682609 0.0329247 0 0 0 -0.0952909 -0.15379 -0.0376388 0 -0.000164368 0 0 0 0 0 0 0 0 0 0 0 0 0 0 0 0 0 14 0.002 
350 8 0.0029945 0.0720652 0.0329926 0 0 0 0.000546656 -0.143182 -0.006971 0.00632523 0.00293592 0.000624767 0 0 0 0 0 0 0 0 0 0 0 0 0 0 0 0 12 0.002 
442 7 0.0109655 0.0713845 0.0330239 0 0 0 0.0510138 0.227935 0.125824 -0.0366399 0.00335974 -0.0736179 0 0 0 0 0 0 0 0 0 0 0 0 0 0 0 0 10 0.002 
347 3 0.00607744 0.0747331 0.0325419 0 0 0 0.0814079 -0.175654 -0.157874 0 -0.000164368 0 0 0 0 0 0 0 0 0 0 0 0 0 0 0 0 0 9 0.002 
743 11 0.0113112 0.0613339 0.0133565 0 0 0 -11.8022 24.0013 -45.3353 0 -0.000164368 0 0 0 0 0 0 0 0 0 0 0 0 0 0 0 0 0 0 0.002 
338 6 0.00701064 0.0891577 -0.0315777 0 0 0 3.00254 1.38986 1.96806 0 -0.000164368 0 0 0 0 0 0 0 0 0 0 0 0 0 0 0 0 0 7 0.002 
439 1 0.0046566 0.0784069 -0.0279282 0 0 0 0.331401 -1.74817 0.0584073 0 -0.000164368 0 0 0 0 0 0 0 0 0 0 0 0 0 0 0 0 0 8 0.002 
467 1 0.0144101 0.0800049 -0.0288611 0 0 0 0.26752 -3.60186 -2.56936 0 -0.000164368 0 0 0 0 0 0 0 0 0 0 0 0 0 0 0 0 0 6 0.002 
274 4 0.0127258 0.0975783 -0.0259413 0 0 0 0.83584 -1.33371 1.89654 0 -0.000164368 0 0 0 0 0 0 0 0 0 0 0 0 0 0 0 0 0 10 0.002 
181 6 0.0131136 0.0833149 -0.0263031 0 0 0 -4.1154 1.50122 -4.49625 0 -0.000164368 0 0 0 0 0 0 0 0 0 0 0 0 0 0 0 0 0 5 0.002 
629 8 0.00620757 0.105723 -0.0209467 0 0 0 -6.64602 -1.55844 2.10086 0 -0.000164368 0 0 0 0 0 0 0 0 0 0 0 0 0 0 0 0 0 2 0.002 
231 7 0.00456798 0.107339 -0.0158235 0 0 0 -1.40931 -0.250911 3.1629 0 -0.000164368 0 0 0 0 0 0 0 0 0 0 0 0 0 0 0 0 0 15 0.002 
173 3 0.0152366 0.0881197 -0.0123108 0 0 0 0.858622 -0.733699 1.56654 0 -0.000164368 0 0 0 0 0 0 0 0 0 0 0 0 0 0 0 0 0 5 0.002 
604 8 0.0105528 0.0789656 -0.0143326 0 0 0 -1.46446 0.435377 -2.64551 0 -0.000164368 0 0 0 0 0 0 0 0 0 0 0 0 0 0 0 0 0 0 0.002 
713 7 0.00950849 0.0975549 -0.00865595 0 0 0 2.0844 0.0557455 4.13504 0 -0.000164368 0 0 0 0 0 0 0 0 0 0 0 0 0 0 0 0 0 0 0.002 
581 6 0.00596919 0.107514 -0.00203626 0 0 0 4.62442 -1.46783 4.4753 0 -0.000164368 0 0 0 0 0 0 0 0 0 0 0 0 0 0 0 0 0 1 0.002 
463 9 0.0178721 0.0937054 -0.00782889 0 0 0 -3.05712 3.20545 -3.68223 0 -0.000164368 0 0 0 0 0 0 0 0 0 0 0 0 0 0 0 0 0 2 0.002 
586 9 0.0108945 0.102107 0.0018669 0 0 0 -1.61558 -0.452505 1.08929 0 -0.000164368 0 0 0 0 0 0 0 0 0 0 0 0 0 0 0 0 0 6 0.002 
527 8 0.00913229 0.0902386 0.004654 0 0 0 0.539851 -0.275886 -0.613034 0 -0.000164368 0 0 0 0 0 0 0 0 0 0 0 0 0 0 0 0 0 11 0.002 
222 8 0.0170436 0.0939657 0.00514784 0 0 0 0.164445 -0.43388 1.15184 0 -0.000164368 0 0 0 0 0 0 0 0 0 0 0 0 0 0 0 0 0 8 0.002 
681 6 0.0125318 0.0986155 0.0053718 0 0 0 -1.05613 -0.069748 0.290628 0 -0.000164368 0 0 0 0 0 0 0 0 0 0 0 0 0 0 0 0 0 0 0.002 
313 1 0.00755106 0.0852274 0.00661312 0 0 0 -2.11313 0.9761 -0.41351 0 -0.000164368 0 0 0 0 0 0 0 0 0 0 0 0 0 0 0 0 0 5 0.002 
229 6 0.0115732 0.0953955 0.00811697 0 0 0 -0.465145 -1.30631 0.547899 0 -0.000164368 0 0 0 0 0 0 0 0 0 0 0 0 0 0 0 0 0 13 0.002 
126 2 0.00580509 0.0949393 0.00927596 0 0 0 1.46568 -1.54267 2.2319 0 -0.000164368 0 0 0 0 0 0 0 0 0 0 0 0 0 0 0 0 0 9 0.002 
415 4 0.0184223 0.086126 -0.032775 0 0 0 -5.63155 5.84189 5.87438 0 -0.000164368 0 0 0 0 0 0 0 0 0 0 0 0 0 0 0 0 0 8 0.002 
344 1 0.0153692 0.0751235 -0.0272963 0 0 0 0.343993 2.42389 4.44746 0 -0.000164368 0 0 0 0 0 0 0 0 0 0 0 0 0 0 0 0 0 12 0.002 
662 1 0.00356028 0.0801423 0.0106117 0 0 0 0.0728004 -0.0320814 -0.304299 0 -0.000164368 0 0 0 0 0 0 0 0 0 0 0 0 0 0 0 0 0 4 0.002 
108 2 0.0152421 0.0754415 0.0126609 0 0 0 -0.473548 -0.753199 0.174401 0 -0.000164368 0 0 0 0 0 0 0 0 0 0 0 0 0 0 0 0 0 18 0.002 
183 9 0.00906102 0.0851876 0.0142878 0 0 0 0.192112 -1.11126 0.141048 0 -0.000164368 0 0 0 0 0 0 0 0 0 0 0 0 0 0 0 0 0 9 0.002 
485 2 0.00314958 0.0774622 0.016131 0 0 0 -0.00839543 -0.277369 -0.129197 0 -0.000164368 0 0 0 0 0 0 0 0 0 0 0 0 0 0 0 0 0 2 0.002 
516 2 0.0112938 0.0782672 0.016521 0 0 0 0.476846 -0.518292 -0.303516 0 -0.000164368 0 0 0 0 0 0 0 0 0 0 0 0 0 0 0 0 0 3 0.002 
128 4 0.0179384 0.0763322 0.0175394 0 0 0 0.296506 -0.492971 -1.08669 0 -0.000164368 0 0 0 0 0 0 0 0 0 0 0 0 0 0 0 0 0 11 0.002 
405 3 0.00686056 0.0834971 0.018505 0 0 0 0.190243 -0.162235 -0.0460252 0 -0.000164368 0 0 0 0 0 0 0 0 0 0 0 0 0 0 0 0 0 10 0.002 
480 3 0.00319729 0.0955019 0.0183217 0 0 0 0.0598208 0.407499 -0.190138 0 -0.000164368 0 0 0 0 0 0 0 0 0 0 0 0 0 0 0 0 0 8 0.002 
14 5 0.018729 0.100484 0.0180589 0 0 0 0.466863 0.208456 0.310903 0 -0.000164368 0 0 0 0 0 0 0 0 0 0 0 0 0 0 0 0 0 8 0.002 
400 7 0.0087464 0.0777442 0.0204319 0 0 0 -0.187531 -0.946127 -0.460298 0 -0.000164368 0 0 0 0 0 0 0 0 0 0 0 0 0 0 0 0 0 11 0.002 
44 5 0.0151374 0.092758 0.020457 0 0 0 0.954382 -0.439269 0.0802682 0 -0.000164368 0 0 0 0 0 0 0 0 0 0 0 0 0 0 0 0 0 13 0.002 
452 8 0.00972061 0.0949074 0.0203687 0 0 0 0.0471997 -0.133226 0.356417 0 -0.000164368 0 0 0 0 0 0 0 0 0 0 0 0 0 0 0 0 0 8 0.002 
362 1 0.00322561 0.0996193 0.0208548 0 0 0 -0.165825 0.108476 0.305032 0 -0.000164368 0 0 0 0 0 0 0 0 0 0 0 0 0 0 0 0 0 5 0.002 
708 1 0.00336578 0.103778 0.0211464 0 0 0 0.065743 0.18833 0.21395 -0.000634673 -0.000745647 -1.18163e-05 1 0 0 0 0 0 0 0 0 0 0 0 0 0 0 0 2 0.002 
373 7 0.0184855 0.105396 0.0190798 0 0 0 0.364199 -0.0456286 -0.379992 0 -0.000164368 0 0 0 0 0 0 0 0 0 0 0 0 0 0 0 0 0 3 0.002 
536 2 0.0157771 0.107983 0.020752 0 0 0 0.134776 -0.069128 0.201486 0 -0.000164368 0 0 0 0 0 0 0 0 0 0 0 0 0 0 0 0 0 4 0.002 
610 7 0.0111665 0.0756568 0.023423 0 0 0 0.291937 -0.317169 0.0402675 0 -0.000164368 0 0 0 0 0 0 0 0 0 0 0 0 0 0 0 0 0 3 0.002 
710 2 0.0171575 0.0763644 0.0230049 0 0 0 0.136444 -0.312017 -0.545408 0 -0.000164368 0 0 0 0 0 0 0 0 0 0 0 0 0 0 0 0 0 0 0.002 
635 4 0.0138066 0.0788647 0.0225635 0 0 0 -0.250838 -1.35339 0.469832 0 -0.000164368 0 0 0 0 0 0 0 0 0 0 0 0 0 0 0 0 0 1 0.002 
489 10 0.00770254 0.0808299 0.0228904 0 0 0 -0.00128971 -0.608595 -0.523312 0 -0.000164368 0 0 0 0 0 0 0 0 0 0 0 0 0 0 0 0 0 8 0.002 
665 2 0.011295 0.107992 0.0329286 0 0 0 -0.00377121 -0.014621 -0.0411944 0 -0.000164368 0 0 0 0 0 0 0 0 0 0 0 0 0 0 0 0 0 5 0.002 
693 8 0.00423608 0.0840783 0.0217835 0 0 0 0.272978 -0.203554 -0.182133 0 -0.000164368 0 0 0 0 0 0 0 0 0 0 0 0 0 0 0 0 0 1 0.002 
131 7 0.0152751 0.0881428 0.0216535 0 0 0 1.27076 -0.376266 0.0146029 0 -0.000164368 0 0 0 0 0 0 0 0 0 0 0 0 0 0 0 0 0 11 0.002 
391 4 0.00413047 0.0897613 0.0225454 0 0 0 0.207796 -0.17922 -0.151909 0 -0.000164368 0 0 0 0 0 0 0 0 0 0 0 0 0 0 0 0 0 18 0.002 
712 2 0.00773309 0.0923218 0.0232282 0 0 0 0.1865 -0.270906 0.320417 0 -0.000164368 0 0 0 0 0 0 0 0 0 0 0 0 0 0 0 0 0 0 0.002 
600 5 0.00307313 0.0941473 0.0224658 0 0 0 0.0710049 -0.220891 -0.109236 0 -0.000164368 0 0 0 0 0 0 0 0 0 0 0 0 0 0 0 0 0 3 0.002 
551 10 0.0150782 0.0966118 0.021661 0 0 0 0.525173 -0.288067 0.117972 0 -0.000164368 0 0 0 0 0 0 0 0 0 0 0 0 0 0 0 0 0 1 0.002 
465 4 0.00878742 0.0995897 0.02141 0 0 0 0.145693 0.183589 0.141512 0 -0.000164368 0 0 0 0 0 0 0 0 0 0 0 0 0 0 0 0 0 12 0.002 
122 5 0.0134942 0.103941 0.022503 0 0 0 0.0680149 0.506166 0.423239 0 -0.000164368 0 0 0 0 0 0 0 0 0 0 0 0 0 0 0 0 0 14 0.002 
502 6 0.00636424 0.105764 0.0228933 0 0 0 0.125521 0.0454021 0.239937 0.000634673 0.00041691 1.18163e-05 1 0 0 0 0 0 0 0 0 0 0 0 0 0 0 0 9 0.002 
288 1 0.00606753 0.0764557 0.0246455 0 0 0 -0.232215 -0.922598 0.0679153 0 -0.000164368 0 0 0 0 0 0 0 0 0 0 0 0 0 0 0 0 0 4 0.002 
519 1 0.00305479 0.0818195 0.0254546 0 0 0 -0.0144896 -0.390806 -0.181507 0 -0.000164368 0 0 0 0 0 0 0 0 0 0 0 0 0 0 0 0 0 1 0.002 
314 6 0.0111745 0.0800155 0.0254149 0 0 0 -0.941745 -0.231456 0.503315 0.00284171 -0.00155824 -0.0133685 0 0 0 0 0 1 0 0 0 0 0 0 0 0 0 0 4 0.002 
438 2 0.00381086 0.0871099 0.02553 0 0 0 -0.0233319 -0.204373 -0.0906653 0 -0.000164368 0 0 0 0 0 0 0 0 0 0 0 0 0 0 0 0 0 10 0.002 
680 6 0.00795305 0.0890558 0.0255299 0 0 0 0.293508 -0.399761 0.183934 0 -0.000164368 0 0 0 0 0 0 0 0 0 0 0 0 0 0 0 0 0 4 0.002 
715 4 0.0126973 0.0906293 0.0251707 0 0 0 0.39552 -0.436275 -0.129911 0 -0.000164368 0 0 0 0 0 0 0 0 0 0 0 0 0 0 0 0 0 6 0.002 
165 4 0.0178594 0.0919418 0.0236108 0 0 0 0.964325 0.0880508 0.125521 0 -0.000164368 0 0 0 0 0 0 0 0 0 0 0 0 0 0 0 0 0 11 0.002 
70 6 0.0112541 0.0950694 0.0240815 0 0 0 0.24609 0.0902442 0.2301 0 -0.000164368 0 0 0 0 0 0 0 0 0 0 0 0 0 0 0 0 0 13 0.002 
699 9 0.00801049 0.0978748 0.0254021 0 0 0 0.131658 -0.112699 0.149367 0 -0.000164368 0 0 0 0 0 0 0 0 0 0 0 0 0 0 0 0 0 2 0.002 
595 6 0.0180318 0.0963881 0.0262748 0 0 0 0.338215 0.41999 1.95884 -0.092458 0.03279 -0.190865 0 0 0 0 0 1 0 0 0 0 0 0 0 0 0 0 5 0.002 
216 2 0.0031833 0.100046 0.0248363 0 0 0 0.0744589 -0.00269554 0.126734 0 -0.000164368 0 0 0 0 0 0 0 0 0 0 0 0 0 0 0 0 0 10 0.002 
407 4 0.00311511 0.104029 0.0252296 0 0 0 0.0126088 -0.021098 0.12792 -9.7327e-06 -0.000230165 2.6184e-05 0 0 0 1 0 0 0 0 0 0 0 0 0 0 0 0 8 0.002 
676 1 0.0169185 0.106035 0.0247946 0 0 0 0.182378 0.0325148 0.158796 0 -0.000164368 0 0 0 0 0 0 0 0 0 0 0 0 0 0 0 0 0 1 0.002 
555 5 0.00356766 0.107987 0.025579 0 0 0 0.0128631 -0.0192975 0.118622 9.7327e-06 -9.85713e-05 -2.6184e-05 0 0 0 1 0 0 0 0 0 0 0 0 0 0 0 0 6 0.002 
641 1 0.0185135 0.0767708 0.0271696 0 0 0 0.217481 0.458688 -0.296953 0 -0.000164368 0 0 0 0 0 0 0 0 0 0 0 0 0 0 0 0 0 1 0.002 
68 9 0.0171017 0.0804935 0.0264452 0 0 0 -0.226015 -0.837833 0.642272 -0.0173132 -0.00535542 -0.0378978 0 0 0 0 0 0 0 0 1 0 0 0 0 0 0 0 18 0.002 
414 7 0.0151997 0.084042 0.0278223 0 0 0 -0.0467973 0.263435 0.389682 0 -0.000164368 0 0 0 0 0 0 0 0 0 0 0 0 0 0 0 0 0 9 0.002 
369 6 0.0107755 0.0851817 0.0261958 0 0 0 -0.331894 -0.458288 -0.130563 0.00078915 0.00155533 -0.000518349 0 0 0 0 0 1 0 0 0 0 0 0 0 0 0 0 10 0.002 
583 1 0.00336958 0.0920002 0.0260036 0 0 0 -0.0855475 -0.22031 -0.0605489 0 -0.000164368 0 0 0 0 0 0 0 0 0 0 0 0 0 0 0 0 0 3 0.002 
380 3 0.0158722 0.0917483 0.0274119 0 0 0 0.254271 -0.24836 0.107637 0 -0.000164368 0 0 0 0 0 0 0 0 0 0 0 0 0 0 0 0 0 5 0.002 
493 5 0.00837218 0.0942416 0.0271655 0 0 0 0.0490388 -0.124113 0.334626 0 -0.000164368 0 0 0 0 0 0 0 0 0 0 0 0 0 0 0 0 0 9 0.002 
171 3 0.00427625 0.0964312 0.0262177 0 0 0 0.0484491 -0.128061 -0.0210167 0 -0.000164368 0 0 0 0 0 0 0 0 0 0 0 0 0 0 0 0 0 11 0.002 
631 1 0.0125073 0.0982245 0.0263577 0 0 0 0.226556 0.232774 0.126571 0 -0.000164368 0 0 0 0 0 0 0 0 0 0 0 0 0 0 0 0 0 3 0.002 
410 6 0.0151198 0.102005 0.0273449 0 0 0 0.282161 0.0133486 0.495233 0.016011 0.010228 -0.0294936 0 0 0 0 0 1 0 0 0 0 0 0 0 0 0 0 3 0.002 
436 2 0.00674008 0.103814 0.0278701 0 0 0 -0.0130948 -0.0115851 0.119179 0 -0.000164368 0 0 0 0 0 0 0 0 0 0 0 0 0 0 0 0 0 5 0.002 
161 8 0.00314897 0.078841 0.0288357 0 0 0 -0.0926929 -0.551544 -0.204693 0 -0.000164368 0 0 0 0 0 0 0 0 0 0 0 0 0 0 0 0 0 22 0.002 
272 2 0.00825613 0.0788248 0.0281744 0 0 0 -0.0954623 -0.525294 0.0137382 0.000968038 0.00513685 0.00169588 0 1 0 0 0 0 0 0 0 0 0 0 0 0 0 0 7 0.002 
8 5 0.0122024 0.0798721 0.029272 0 0 0 0.141173 -0.156772 -0.0547598 -0.00284171 0.00122951 0.0133685 0 0 0 0 0 1 0 0 0 0 0 0 0 0 0 0 6 0.002 
283 10 0.0169531 0.0808972 0.0303924 0 0 0 -0.383794 0.475135 0.331273 -0.0242307 -0.0194382 -0.0161443 0 0 0 0 0 0 0 0 1 1 0 0 0 0 0 0 3 0.002 
655 1 0.00898963 0.0826988 0.0287681 0 0 0 0.0222854 -0.278605 0.264024 -0.00175719 -0.00718528 -0.00117753 0 1 0 0 0 1 0 0 0 0 0 0 0 0 0 0 5 0.002 
26 9 0.00312464 0.0848865 0.0289273 0 0 0 0.0377867 -0.209715 -0.178359 0 -0.000164368 0 0 0 0 0 0 0 0 0 0 0 0 0 0 0 0 0 9 0.002 
434 14 0.00697416 0.0875582 0.0291146 0 0 0 0.0659511 -0.28072 0.22836 0.0024874 -0.00203436 -0.00542192 0 0 0 0 0 0 0 0 0 0 0 0 0 1 0 0 10 0.002 
364 3 0.0170868 0.0872125 0.029576 0 0 0 0.195722 -0.389292 0.336478 0 -0.000164368 0 0 0 0 0 0 0 0 0 0 0 0 0 0 0 0 0 10 0.002 
525 1 0.00300858 0.0894398 0.0292144 0 0 0 -0.0171919 -0.0706754 -0.100941 0 -0.000164368 0 0 0 0 0 0 0 0 0 0 0 0 0 0 0 0 0 6 0.002 
492 4 0.0119287 0.0921105 0.0293284 0 0 0 0.0743204 -0.0544361 0.0889003 0 -0.000164368 0 0 0 0 0 0 0 0 0 0 0 0 0 0 0 0 0 3 0.002 
651 2 0.0031211 0.0945834 0.0295835 0 0 0 -0.0536364 0.0433038 -0.0307067 0 -0.000164368 0 0 0 0 0 0 0 0 0 0 0 0 0 0 0 0 0 7 0.002 
333 2 0.0107852 0.0960608 0.0298195 0 0 0 0.184793 0.00707792 0.07887 0 -0.000164368 0 0 0 0 0 0 0 0 0 0 0 0 0 0 0 0 0 9 0.002 
531 1 0.0148168 0.0948407 0.0297862 0 0 0 0.0831868 -0.115679 -0.049464 0 -0.000164368 0 0 0 0 0 0 0 0 0 0 0 0 0 0 0 0 0 16 0.002 
479 9 0.00700838 0.0980871 0.029384 0 0 0 -0.0194319 -0.126367 0.145564 0 -0.000164368 0 0 0 0 0 0 0 0 0 0 0 0 0 0 0 0 0 6 0.002 
704 9 0.00302921 0.098659 0.0294896 0 0 0 0.0133881 -0.0418108 -0.00491865 0 -0.000164368 0 0 0 0 0 0 0 0 0 0 0 0 0 0 0 0 0 7 0.002 
297 3 0.0131191 0.0998402 0.0299957 0 0 0 -0.104022 -0.178541 0.159268 -0.00795742 -0.00937811 0.00450186 0 0 1 0 0 1 0 0 0 0 0 0 0 0 0 0 17 0.002 
606 4 0.0170911 0.0986359 0.0294184 0 0 0 0.0770226 -0.133999 0.0695274 0.092458 -0.0331187 0.190865 0 0 0 0 0 1 0 0 0 0 0 0 0 0 0 0 3 0.002 
95 5 0.00301088 0.102631 0.0289779 0 0 0 0.000541323 -0.00870363 0.145627 0 -0.000164368 0 0 0 0 0 0 0 0 0 0 0 0 0 0 0 0 0 16 0.002 
639 9 0.00930146 0.101355 0.0297415 0 0 0 0.00320023 -0.110614 0.00388829 0 -0.000164368 0 0 0 0 0 0 0 0 0 0 0 0 0 0 0 0 0 3 0.002 
324 5 0.0179918 0.103034 0.0299532 0 0 0 0.0839229 -0.202122 0.704415 0 -0.000164368 0 0 0 0 0 0 0 0 0 0 0 0 0 0 0 0 0 9 0.002 
705 14 0.00302027 0.10669 0.0293938 0 0 0 -0.0213679 0.0432286 0.0216397 0 -0.000164368 0 0 0 0 0 0 0 0 0 0 0 0 0 0 0 0 0 4 0.002 
204 7 0.00695299 0.107956 0.0282428 0 0 0 0.132083 0.000777919 0.140785 0 -0.000164368 0 0 0 0 0 0 0 0 0 0 0 0 0 0 0 0 0 8 0.002 
652 4 0.0151039 0.107815 0.0292491 0 0 0 0.0668399 -0.0610611 0.0031972 0 -0.000164368 0 0 0 0 0 0 0 0 0 0 0 0 0 0 0 0 0 2 0.002 
357 7 0.0116656 0.0764228 0.0313013 0 0 0 0.0764905 -0.0698925 0.153425 0 -0.000164368 0 0 0 0 0 0 0 0 0 0 0 0 0 0 0 0 0 16 0.002 
382 2 0.00721743 0.0788027 0.0321747 0 0 0 -0.00820864 -0.237541 0.014272 -0.00144238 -0.00358476 -0.000781562 0 1 0 0 0 0 0 0 0 0 0 0 0 0 0 0 11 0.002 
224 5 0.0175979 0.0770706 0.0325069 0 0 0 -0.0987276 -0.851467 0.658426 0 -0.000164368 0 0 0 0 0 0 0 0 0 0 0 0 0 0 0 0 0 14 0.002 
580 5 0.0141638 0.0830527 0.0323284 0 0 0 -0.0361339 0.652544 0.678928 0.0553798 -0.0439534 0.00242007 0 0 0 0 1 0 0 0 0 0 0 0 0 0 0 0 11 0.002 
561 6 0.0114197 0.0881952 0.0302612 0 0 0 0.0655893 -0.0856708 -0.016889 0 -0.000164368 0 0 0 0 0 0 0 0 0 0 0 0 0 0 0 0 0 7 0.002 
286 14 0.0063014 0.0914818 0.0303355 0 0 0 0.0191115 -0.069597 -0.174849 0 -0.000164368 0 0 0 0 0 0 0 0 0 0 0 0 0 0 0 0 0 23 0.002 
118 2 0.00912636 0.105 0.0313924 0 0 0 0.0743849 -0.0820772 -0.0333876 0 -0.000164368 0 0 0 0 0 0 0 0 0 0 0 0 0 0 0 0 0 4 0.002 
253 2 0.0144297 0.104169 0.0313902 0 0 0 -0.0136074 0.105951 0.323567 0 -0.000164368 0 0 0 0 0 0 0 0 0 0 0 0 0 0 0 0 0 9 0.002 
469 3 0.00595541 0.107383 0.0320764 0 0 0 0.0806754 -0.0755354 -0.0160796 0 -0.000164368 0 0 0 0 0 0 0 0 0 0 0 0 0 0 0 0 0 6 0.002 
73 3 0.00299715 0.0775381 0.0326489 0 0 0 0.0903055 -0.231096 0.0160542 -0.00431061 -0.000982943 -0.000625416 0 0 0 0 0 0 0 0 0 0 0 0 0 0 0 0 12 0.002 
589 5 0.0106456 0.0813005 0.0330108 0 0 0 -0.0649296 -0.108982 -0.0777333 0.0210712 0.000289183 -0.00473196 0 0 0 0 0 0 0 0 0 0 0 0 0 0 0 0 5 0.002 
96 2 0.00298038 0.0829968 0.0327827 0 0 0 -0.126207 0.0384279 -0.0245496 0.0113879 0.00922796 0.00607933 0 1 0 0 0 0 0 0 0 0 0 0 0 0 0 0 17 0.002 
368 5 0.00692482 0.0826981 0.0330006 0 0 0 -0.230687 -0.242579 -0.0346082 0.0326979 0.00497887 -0.0030102 0 2 0 0 0 0 0 0 0 0 0 0 0 0 0 0 7 0.002 
339 4 0.0109761 0.0853063 0.0329944 0 0 0 -0.0693274 0.00723229 -0.0425618 -0.0595086 0.0430149 -0.00313362 0 0 0 0 1 0 0 0 0 0 0 0 0 0 0 0 11 0.002 
562 3 0.0177718 0.0847301 0.0329958 0 0 0 0.13874 0.000682454 -0.0119398 -0.00317047 0.0332017 0.00265666 0 0 0 0 0 0 0 0 0 0 0 0 0 0 0 0 5 0.002 
420 3 0.00302227 0.0875905 0.0328529 0 0 0 0.00892813 -0.0408741 -0.0550009 0 -0.000164368 0 0 0 0 0 0 0 0 0 0 0 0 0 0 0 0 0 8 0.002 
557 5 0.00709781 0.0867102 0.0330207 0 0 0 -0.042144 -0.120845 0.0683534 -0.00566868 0.0040416 -0.0495145 0 0 0 0 0 0 0 0 0 0 0 0 0 1 0 0 7 0.002 
383 6 0.00952187 0.0908766 0.0326518 0 0 0 -0.035625 -0.122897 -0.0842669 0 -0.000164368 0 0 0 0 0 0 0 0 0 0 0 0 0 0 0 0 0 10 0.002 
472 3 0.0143489 0.0890685 0.0329573 0 0 0 0.176246 -0.0827093 0.0165632 0 -0.000164368 0 0 0 0 0 0 0 0 0 0 0 0 0 0 0 0 0 6 0.002 
29 5 0.0183309 0.089751 0.0329601 0 0 0 0.127259 -0.232696 -0.0336784 0 -0.000164368 0 0 0 0 0 0 0 0 0 0 0 0 0 0 0 0 0 11 0.002 
56 7 0.00304162 0.0923405 0.0329112 0 0 0 0.0224821 0.0180742 -0.00365737 0 -0.000164368 0 0 0 0 0 0 0 0 0 0 0 0 0 0 0 0 0 12 0.002 
348 6 0.00675816 0.0953712 0.0328316 0 0 0 -0.00704711 -0.0224827 -0.0556878 -0.000212463 -9.51478e-05 -0.000232322 0 0 0 0 0 1 0 0 0 0 0 0 0 0 0 0 6 0.002 
404 6 0.0123373 0.0938796 0.0329834 0 0 0 0.148372 -0.216876 -0.0160236 0 -0.000164368 0 0 0 0 0 0 0 0 0 0 0 0 0 0 0 0 0 9 0.002 
359 3 0.0170278 0.0937295 0.0329731 0 0 0 0.118828 -0.137362 -0.0301541 0 -0.000164368 0 0 0 0 0 0 0 0 0 0 0 0 0 0 0 0 0 5 0.002 
593 1 0.00300281 0.0967322 0.0330014 0 0 0 -0.0121968 0.0301709 -0.00238327 0.000525633 -0.000273598 -0.000399109 0 0 0 0 0 1 0 0 0 0 0 0 0 0 0 0 3 0.002 
638 6 0.0144243 0.0974771 0.0329887 0 0 0 0.0685727 -0.110792 -0.0503586 0 -0.000164368 0 0 0 0 0 0 0 0 0 0 0 0 0 0 0 0 0 3 0.002 
343 2 0.0030005 0.100752 0.0329882 0 0 0 0.000566739 0.00712311 -0.00525277 0 -0.000164368 0 0 0 0 0 0 0 0 0 0 0 0 0 0 0 0 0 6 0.002 
696 4 0.00901882 0.0988305 0.0329172 0 0 0 -0.0233015 -0.0705265 0.104369 -0.00579181 -0.00925999 0.00187421 0 0 0 1 0 0 0 0 0 0 0 0 0 0 0 0 4 0.002 
145 6 0.00674772 0.102192 0.0329923 0 0 0 -0.0124148 -0.0103698 0.00447622 0 -0.000164368 0 0 0 0 0 0 0 0 0 0 0 0 0 0 0 0 0 12 0.002 
9 6 0.0115557 0.101902 0.0330149 0 0 0 -0.0534711 -0.0656904 0.0698012 0.00643863 -0.00539761 -0.0131598 0 0 1 1 0 0 0 0 0 0 0 0 0 0 0 0 15 0.002 
669 1 0.0162953 0.101016 0.0329973 0 0 0 -0.00418803 -0.0622348 -0.010858 0 -0.000164368 0 0 0 0 0 0 0 0 0 0 0 0 0 0 0 0 0 2 0.002 
431 5 0.00303656 0.104764 0.0329624 0 0 0 0.00083794 -0.00335963 0.0411227 0 -0.000164368 0 0 0 0 0 0 0 0 0 0 0 0 0 0 0 0 0 9 0.002 
386 1 0.0165456 0.107183 0.0329996 0 0 0 0.038927 0.0105041 1.96938e-05 0 -0.000164368 0 0 0 0 0 0 0 0 0 0 0 0 0 0 0 0 0 14 0.002 
740 1 0.0436454 -0.0429156 -0.0387962 0 0 0 -1.36835 -24.7722 30.7371 -0.032468 0.0517935 0.108922 0 0 0 0 0 0 0 0 0 0 0 0 0 0 0 0 0 0.002 
744 1 0.03873 -0.023876 -0.0484379 0 0 0 11.1267 -52.7694 13.3127 0 -0.000164368 0 0 0 0 0 0 0 0 0 0 0 0 0 0 0 0 0 0 0.002 
146 9 0.0474151 -0.0176349 0.0372658 0 0 0 0.000239158 74.5315 35.2697 1.78452e-06 1.1819 -2.49757 0 0 0 0 0 0 0 0 0 0 0 0 0 0 0 0 0 0.002 
270 1 0.0202931 0.0512098 -0.0355 0 0 0 -1.20721e-307 1.01504e-19 2.24236e-12 1.29777e-307 -1.35525e-20 3.55271e-15 0 0 0 0 0 0 0 0 0 0 0 0 0 0 0 0 0 0.002 
79 1 0.0427596 0.0515313 -0.0354968 0 0 0 3.24238e-15 -1.7618e-15 6.17092e-12 1.11022e-16 5.55112e-17 0 1 0 0 0 0 0 0 0 0 0 0 0 0 0 0 0 32 0.002 
127 3 0.0250878 0.0534436 -0.0355 0 0 0 8.93423e-30 4.0565e-20 5.56851e-13 -1.22261e-29 0 0 0 0 0 0 0 0 0 0 0 0 0 0 0 0 0 0 2 0.002 
45 4 0.0456322 0.0536545 -0.0355032 0 0 0 -3.15908e-15 1.78903e-15 6.17591e-12 -2.22045e-16 0 0 1 0 0 0 0 0 0 0 0 0 0 0 0 0 0 0 35 0.002 
276 4 0.0334443 0.0547528 -0.0355 0 0 0 -1.81613e-64 -2.44057e-19 -6.72675e-12 1.47149e-64 0 0 0 0 0 0 0 0 0 0 0 0 0 0 0 0 0 0 0 0.002 
48 3 0.0234945 0.0573372 -0.0355 0 0 0 4.53796e-31 1.42233e-19 -2.81408e-12 -3.36514e-31 -1.35525e-20 0 0 0 0 0 0 0 0 0 0 0 0 0 0 0 0 0 0 0.002 
52 2 0.0282428 0.0584579 -0.0355 0 0 0 1.31041e-31 2.23243e-19 1.12866e-12 7.16763e-31 0 0 0 0 0 0 0 0 0 0 0 0 0 0 0 0 0 0 0 0.002 
351 1 0.0419096 0.0567284 -0.0355 0 0 0 5.97511e-76 -6.07553e-20 -2.81415e-12 -3.40652e-76 1.35525e-20 0 0 0 0 0 0 0 0 0 0 0 0 0 0 0 0 0 1 0.002 
39 3 0.0458563 0.0647877 -0.0355 0 0 0 2.55217e-153 -2.02017e-20 3.9378e-12 -2.17623e-153 -1.35525e-20 0 0 0 0 0 0 0 0 0 0 0 0 0 0 0 0 0 0 0.002 
579 8 0.0295042 0.0599354 -0.0270846 0 0 0 8.25529 -3.34276 6.81628 0 -0.000164368 0 0 0 0 0 0 0 0 0 0 0 0 0 0 0 0 0 4 0.002 
576 2 0.0434956 0.0612783 -0.021036 0 0 0 1.24833 -9.09954 -20.0315 0 -0.000164368 0 0 0 0 0 0 0 0 0 0 0 0 0 0 0 0 0 4 0.002 
309 1 0.0278871 0.0731761 -0.0263818 0 0 0 -0.0832171 -1.06856 1.17685 0 -0.000164368 0 0 0 0 0 0 0 0 0 0 0 0 0 0 0 0 0 13 0.002 
733 1 0.0244298 0.0655325 -0.0182166 0 0 0 8.99735 -8.33296 8.72084 0 -0.000164368 0 0 0 0 0 0 0 0 0 0 0 0 0 0 0 0 0 0 0.002 
575 3 0.0251769 0.0741423 -0.00335818 0 0 0 -7.90445 11.8204 -12.4223 0 -0.000164368 0 0 0 0 0 0 0 0 0 0 0 0 0 0 0 0 0 5 0.002 
545 9 0.024572 0.05723 0.0144086 0 0 0 0.0266085 -1.79802 -0.561061 0 -0.000164368 0 0 0 0 0 0 0 0 0 0 0 0 0 0 0 0 0 5 0.002 
732 4 0.0332446 0.0598314 0.0180981 0 0 0 -0.00107636 -1.71482 0.652853 0 -0.000164368 0 0 0 0 0 0 0 0 0 0 0 0 0 0 0 0 0 0 0.002 
316 2 0.0189167 0.0668838 0.0186672 0 0 0 0.110489 -0.290013 -0.574168 0 -0.000164368 0 0 0 0 0 0 0 0 0 0 0 0 0 0 0 0 0 9 0.002 
677 9 0.0364254 0.0717159 0.0185529 0 0 0 -0.3061 -1.0263 -0.461294 0 -0.000164368 0 0 0 0 0 0 0 0 0 0 0 0 0 0 0 0 0 4 0.002 
53 3 0.0472132 0.0738118 0.0182126 0 0 0 -0.321475 0.161933 -0.814535 0 -0.000164368 0 0 0 0 0 0 0 0 0 0 0 0 0 0 0 0 0 6 0.002 
499 2 0.0471511 0.0679142 0.0206876 0 0 0 0.619237 -0.84743 -0.786667 0 -0.000164368 0 0 0 0 0 0 0 0 0 0 0 0 0 0 0 0 0 4 0.002 
515 5 0.0438135 0.0708304 0.0211203 0 0 0 -0.168529 -0.497674 0.0278872 0 -0.000164368 0 0 0 0 0 0 0 0 0 0 0 0 0 0 0 0 0 6 0.002 
299 1 0.0265786 0.0590332 0.0209623 0 0 0 1.00985 0.841304 -2.17475 0 -0.000164368 0 0 0 0 0 0 0 0 0 0 0 0 0 0 0 0 0 5 0.002 
718 11 0.0213536 0.0614358 0.021483 0 0 0 -0.829268 -1.63706 0.0581563 0 -0.000164368 0 0 0 0 0 0 0 0 0 0 0 0 0 0 0 0 0 0 0.002 
194 2 0.0192788 0.0714026 0.0233722 0 0 0 -0.436742 -0.0370505 -0.0723047 0 -0.000164368 0 0 0 0 0 0 0 0 0 0 0 0 0 0 0 0 0 11 0.002 
250 5 0.0392747 0.0710245 0.0221104 0 0 0 0.0305465 -0.564124 -0.366478 0 -0.000164368 0 0 0 0 0 0 0 0 0 0 0 0 0 0 0 0 0 13 0.002 
423 3 0.0261576 0.0632198 0.0234464 0 0 0 -1.2335 1.05272 -0.237574 0 -0.000164368 0 0 0 0 0 0 0 0 0 0 0 0 0 0 0 0 0 9 0.002 
514 8 0.0285613 0.060744 0.0265174 0 0 0 -4.19962 -3.79724 4.1926 0 -0.000164368 0 0 0 0 0 0 0 0 0 0 0 0 0 0 0 0 0 6 0.002 
690 2 0.0399882 0.0610771 0.024256 0 0 0 0.688353 -0.775369 -0.453166 0 -0.000164368 0 0 0 0 0 0 0 0 0 0 0 0 0 0 0 0 0 0 0.002 
5 3 0.0196578 0.0623836 0.0278784 0 0 0 -0.583231 -0.461016 0.0144708 0 -0.000164368 0 0 0 0 0 0 0 0 0 0 0 0 0 0 0 0 0 4 0.002 
543 1 0.0377127 0.0641724 0.02748 0 0 0 0.261206 -1.12918 0.922412 0 -0.000164368 0 0 0 0 0 0 0 0 0 0 0 0 0 0 0 0 0 4 0.002 
503 7 0.0245615 0.0671846 0.0265526 0 0 0 0.183948 -0.680573 -0.366598 0 -0.000164368 0 0 0 0 0 0 0 0 0 0 0 0 0 0 0 0 0 11 0.002 
192 7 0.0281823 0.0656545 0.0274201 0 0 0 -0.00585827 -0.710749 -0.188487 0 -0.000164368 0 0 0 0 0 0 0 0 0 0 0 0 0 0 0 0 0 14 0.002 
308 1 0.0303829 0.0721686 0.0266035 0 0 0 0.0140107 -0.458883 -0.621833 0 -0.000164368 0 0 0 0 0 0 0 0 0 0 0 0 0 0 0 0 0 16 0.002 
435 4 0.0439725 0.0719282 0.026924 0 0 0 -0.083167 -0.512493 -0.394964 0 -0.000164368 0 0 0 0 0 0 0 0 0 0 0 0 0 0 0 0 0 10 0.002 
590 2 0.0265592 0.0502593 0.0281017 0 0 0 0.180098 -0.509557 -0.61565 0 -0.000164368 0 0 0 0 0 0 0 0 0 0 0 0 0 0 0 0 0 1 0.002 
111 3 0.0402837 0.0548743 0.0292168 0 0 0 0.236675 -0.967738 -0.0300265 0 -0.000164368 0 0 0 0 0 0 0 0 0 0 0 0 0 0 0 0 0 13 0.002 
318 4 0.0374421 0.0586559 0.0281193 0 0 0 0.328494 -0.59904 -0.050398 0 -0.000164368 0 0 0 0 0 0 0 0 0 0 0 0 0 0 0 0 0 11 0.002 
624 7 0.0402029 0.0618637 0.0296314 0 0 0 0.57153 -0.778275 1.16334 0 -0.000164368 0 0 0 0 0 0 0 0 0 0 0 0 0 0 0 0 0 3 0.002 
447 1 0.0339609 0.0634798 0.0289366 0 0 0 -0.460861 -1.19689 0.534121 0 -0.000164368 0 0 0 0 0 0 0 0 0 0 0 0 0 0 0 0 0 9 0.002 
188 6 0.0199254 0.0670252 0.0280005 0 0 0 -0.142985 -0.376545 -0.231976 0 -0.000164368 0 0 0 0 0 0 0 0 0 0 0 0 0 0 0 0 0 16 0.002 
317 11 0.0414856 0.0661476 0.0290632 0 0 0 -0.205743 -0.516288 -0.0492202 0 -0.000164368 0 0 0 0 0 0 0 0 0 0 0 0 0 0 0 0 0 8 0.002 
195 7 0.045354 0.0656998 0.0279353 0 0 0 -0.265977 -0.331491 -0.24199 0 -0.000164368 0 0 0 0 0 0 0 0 0 0 0 0 0 0 0 0 0 7 0.002 
92 2 0.0376321 0.0690288 0.0284892 0 0 0 -0.271208 -0.524932 0.317746 0.00096924 -1.23171e-06 0.000999509 0 1 0 0 0 0 0 0 0 0 0 0 0 0 0 0 7 0.002 
552 8 0.0271442 0.070197 0.029302 0 0 0 0.0765905 -0.424763 0.196185 0 -0.000164368 0 0 0 0 0 0 0 0 0 0 0 0 0 0 0 0 0 4 0.002 
104 1 0.0218791 0.0736027 0.0294268 0 0 0 -0.18436 0.471077 -0.153516 0 -0.000164368 0 0 0 0 0 0 0 0 0 0 0 0 0 0 0 0 0 11 0.002 
656 1 0.0328406 0.0722601 0.0299197 0 0 0 0.256685 -0.812949 -0.0971527 0 -0.000164368 0 0 0 0 0 0 0 0 0 0 0 0 0 0 0 0 0 2 0.002 
736 1 0.0365464 0.0745318 0.0295381 0 0 0 -0.0566027 -0.334678 -0.035502 0.0107999 -0.00796523 -0.0276123 1 0 0 0 0 0 0 0 0 0 0 0 0 0 0 0 1 0.002 