ITEM: TIMESTEP
650000
ITEM: NUMBER OF ATOMS
78
ITEM: BOX BOUNDS ff ff ff
-0.01 0.45
-0.15 0.15
-0.08 0.1
ITEM: ATOMS id type x y z ix iy iz vx vy vz fx fy fz c_cc_1 c_cc_2 c_cc_3 c_cc_4 c_cc_5 c_cc_6 c_cc_7 c_cc_8 c_cc_9 c_cc_10 c_cc_11 c_cc_12 c_cc_13 c_cc_14 c_cc_15 c_cc_16 f_fppacc radius 
61 8 0.00308815 -0.0439682 -0.033919 0 0 0 -1.19465 -18.511 15.7538 0 -0.000164368 0 0 0 0 0 0 0 0 0 0 0 0 0 0 0 0 0 0 0.002 
75 12 0.017245 -0.00464862 0.0485258 0 0 0 3.61184 -4.19306 -1.94105 0 -0.000164368 0 0 0 0 0 0 0 0 0 0 0 0 0 0 0 0 0 0 0.002 
33 2 0.0153187 0.0240875 -0.0558591 0 0 0 8.13753e-07 8.99637e-05 -2.96301e-05 4.18154e-06 -2.53394e-05 2.0818e-05 0 0 0 0 0 0 0 0 0 0 0 0 0 0 0 0 0 0.002 
16 3 0.00610875 0.0245289 -0.0406344 0 0 0 0.510782 -1.57466 -2.06488 0 -0.000164368 0 0 0 0 0 0 0 0 0 0 0 0 0 0 0 0 0 0 0.002 
55 4 0.00321235 0.0326247 0.0118961 0 0 0 -2.35479 8.06474 -8.9839 0 -0.000164368 0 0 0 0 0 0 0 0 0 0 0 0 0 0 0 0 0 0 0.002 
41 1 0.0151445 0.0528395 -0.0355 0 0 0 -1.74539e-248 2.4358e-19 -6.17494e-12 -8.54066e-249 1.35525e-20 0 0 0 0 0 0 0 0 0 0 0 0 0 0 0 0 0 0 0.002 
38 9 0.00684777 0.0713034 -0.0154022 0 0 0 0.787587 -0.149798 1.9614 0 -0.000164368 0 0 0 0 0 0 0 0 0 0 0 0 0 0 0 0 0 0 0.002 
5 3 0.00399764 0.0730513 -0.00958116 0 0 0 -3.1251 -1.17947 -3.05288 0 -0.000164368 0 0 0 0 0 0 0 0 0 0 0 0 0 0 0 0 0 0 0.002 
20 3 0.00475385 0.0684642 0.0189 0 0 0 0.17853 -0.0875575 -1.44626 0 -0.000164368 0 0 0 0 0 0 0 0 0 0 0 0 0 0 0 0 0 0 0.002 
9 6 0.0124728 0.0740278 0.024625 0 0 0 1.10472 0.383649 -0.420503 0 -0.000164368 0 0 0 0 0 0 0 0 0 0 0 0 0 0 0 0 0 0 0.002 
50 1 0.00688419 0.03971 0.0372102 0 0 0 -3.17853 -2.95288 11.5167 0 -0.000164368 0 0 0 0 0 0 0 0 0 0 0 0 0 0 0 0 0 0 0.002 
10 6 0.00744435 0.060372 0.0259847 0 0 0 -9.06581 30.3095 -10.4394 0 -0.000164368 0 0 0 0 0 0 0 0 0 0 0 0 0 0 0 0 0 0 0.002 
2 6 0.0119436 0.0748594 0.0116497 0 0 0 -5.93168 -2.83724 1.41239 0 -0.000164368 0 0 0 0 0 0 0 0 0 0 0 0 0 0 0 0 0 0 0.002 
73 3 0.00556446 0.104152 -0.00393562 0 0 0 0.785689 -0.671393 5.26798 0 -0.000164368 0 0 0 0 0 0 0 0 0 0 0 0 0 0 0 0 0 0 0.002 
26 9 0.0144714 0.10503 0.0309388 0 0 0 4.12634 -0.833124 -3.98899 0 -0.000164368 0 0 0 0 0 0 0 0 0 0 0 0 0 0 0 0 0 0 0.002 
76 2 0.00654066 0.0806876 0.0138135 0 0 0 1.92442 -0.077177 -5.6536 0 -0.000164368 0 0 0 0 0 0 0 0 0 0 0 0 0 0 0 0 0 0 0.002 
57 4 0.00466994 0.0956324 0.0186504 0 0 0 1.4028 -3.54301 5.50611 0 -0.000164368 0 0 0 0 0 0 0 0 0 0 0 0 0 0 0 0 0 0 0.002 
65 2 0.00684001 0.0839764 0.0218284 0 0 0 -1.12496 -1.53732 -1.28013 0 -0.000164368 0 0 0 0 0 0 0 0 0 0 0 0 0 0 0 0 0 0 0.002 
72 3 0.0182835 0.0911403 0.0197477 0 0 0 1.09352 3.61382 -4.36978 0 -0.000164368 0 0 0 0 0 0 0 0 0 0 0 0 0 0 0 0 0 0 0.002 
47 4 0.00758345 0.092868 0.0298521 0 0 0 0.387849 -0.471602 0.465115 0 -0.000164368 0 0 0 0 0 0 0 0 0 0 0 0 0 0 0 0 0 0 0.002 
12 9 0.00742071 0.0893722 0.0319118 0 0 0 -0.601739 -0.465318 -0.217482 0 -0.000164368 0 0 0 0 0 0 0 0 0 0 0 0 0 0 0 0 0 0 0.002 
70 6 0.0239076 -0.0495703 0.0300832 0 0 0 -11.5464 28.946 43.7666 0.155213 1.21542 -0.821231 0 0 0 0 0 0 0 0 0 0 0 0 0 0 0 0 0 0.002 
39 3 0.0211933 0.0162989 -0.0292734 0 0 0 2.58891 -3.28749 -0.686674 0 -0.000164368 0 0 0 0 0 0 0 0 0 0 0 0 0 0 0 0 0 0 0.002 
79 1 0.0423992 0.0513078 -0.0355 0 0 0 4.77635e-36 1.0154e-19 -2.81415e-12 1.33444e-35 0 0 0 0 0 0 0 0 0 0 0 0 0 0 0 0 0 0 0 0.002 
48 3 0.023496 0.0573219 -0.0355 0 0 0 8.23861e-19 4.20741e-19 5.61333e-12 -1.02679e-19 -5.01444e-19 -3.55271e-15 0 0 0 0 0 0 0 0 0 0 0 0 0 0 0 0 0 0.002 
60 4 0.0360162 0.050629 -0.0295738 0 0 0 0.366807 -0.816919 -0.0331493 0 -0.000164368 0 0 0 0 0 0 0 0 0 0 0 0 0 0 0 0 0 0 0.002 
27 3 0.0317465 0.0513468 -0.0295456 0 0 0 2.92889 -3.85482 1.71766 0 -0.000164368 0 0 0 0 0 0 0 0 0 0 0 0 0 0 0 0 0 0 0.002 
51 2 0.0445949 0.0688521 -0.00484693 0 0 0 -1.40452 18.3758 -30.3285 0 -0.000164368 0 0 0 0 0 0 0 0 0 0 0 0 0 0 0 0 0 0 0.002 
23 3 0.0369661 0.0746677 -0.0213352 0 0 0 8.61997 3.65032 5.249 0 -0.000164368 0 0 0 0 0 0 0 0 0 0 0 0 0 0 0 0 0 0 0.002 
21 8 0.0473362 0.0627836 -0.0114907 0 0 0 0.939162 -2.48112 -2.60499 0 -0.000164368 0 0 0 0 0 0 0 0 0 0 0 0 0 0 0 0 0 0 0.002 
35 3 0.0285872 0.051321 0.00178278 0 0 0 -2.82748 -3.12904 10.222 0 -0.000164368 0 0 0 0 0 0 0 0 0 0 0 0 0 0 0 0 0 0 0.002 
34 3 0.0369739 0.0533974 -0.000167045 0 0 0 -1.23641 -10.4381 -8.51534 0 -0.000164368 0 0 0 0 0 0 0 0 0 0 0 0 0 0 0 0 0 0 0.002 
31 2 0.0215443 0.0684536 0.00960213 0 0 0 -14.9304 2.77197 3.19222 0 -0.000164368 0 0 0 0 0 0 0 0 0 0 0 0 0 0 0 0 0 0 0.002 
52 2 0.0406416 0.0578877 0.019723 0 0 0 -3.34121 15.7195 -19.8709 0 -0.000164368 0 0 0 0 0 0 0 0 0 0 0 0 0 0 0 0 0 0 0.002 
77 12 0.037562 0.0715281 0.0159688 0 0 0 -2.34182 4.24579 6.29961 0 -0.000164368 0 0 0 0 0 0 0 0 0 0 0 0 0 0 0 0 0 0 0.002 
64 4 0.027141 0.0730579 0.0182824 0 0 0 0.406665 -3.05047 2.75534 0 -0.000164368 0 0 0 0 0 0 0 0 0 0 0 0 0 0 0 0 0 0 0.002 
62 2 0.0429298 0.0458957 0.034955 0 0 0 6.11132 16.0746 -20.155 0 -0.000164368 0 0 0 0 0 0 0 0 0 0 0 0 0 0 0 0 0 0 0.002 
63 6 0.0406101 0.104453 -0.0294992 0 0 0 2.57755 -1.54613 0.761734 0 -0.000164368 0 0 0 0 0 0 0 0 0 0 0 0 0 0 0 0 0 0 0.002 
68 9 0.0445744 0.104527 -0.0288764 0 0 0 3.64662 -0.879253 -1.84847 0 -0.000164368 0 0 0 0 0 0 0 0 0 0 0 0 0 0 0 0 0 0 0.002 
71 5 0.0306042 0.107705 -0.0254189 0 0 0 1.03954 -0.767389 1.32551 0 -0.000164368 0 0 0 0 0 0 0 0 0 0 0 0 0 0 0 0 0 1 0.002 
1 6 0.0419258 0.0917444 -0.0195899 0 0 0 -5.41111 2.32073 6.44626 0 -0.000164368 0 0 0 0 0 0 0 0 0 0 0 0 0 0 0 0 0 0 0.002 
67 6 0.0294912 0.104316 -0.013206 0 0 0 -1.96064 0.521468 9.00459 0 -0.000164368 0 0 0 0 0 0 0 0 0 0 0 0 0 0 0 0 0 0 0.002 
29 5 0.0368443 0.103509 -0.00495489 0 0 0 -1.91186 3.03432 17.4668 0 -0.000164368 0 0 0 0 0 0 0 0 0 0 0 0 0 0 0 0 0 0 0.002 
44 5 0.0387931 0.0870594 -0.0184842 0 0 0 -2.56093 9.73853 -18.9048 0 -0.000164368 0 0 0 0 0 0 0 0 0 0 0 0 0 0 0 0 0 0 0.002 
59 3 0.0333537 0.107471 -0.00734751 0 0 0 3.40939 -4.61638 9.3366 0 -0.000164368 0 0 0 0 0 0 0 0 0 0 0 0 0 0 0 0 0 0 0.002 
6 3 0.0370195 0.0894919 -0.00681119 0 0 0 1.62634 -3.56948 0.0739364 0 -0.000164368 0 0 0 0 0 0 0 0 0 0 0 0 0 0 0 0 0 0 0.002 
18 3 0.0389971 0.0868455 -0.0122617 0 0 0 -3.43602 10.6941 -8.356 0 -0.000164368 0 0 0 0 0 0 0 0 0 0 0 0 0 0 0 0 0 0 0.002 
15 2 0.0424093 0.106192 -0.000883455 0 0 0 -1.24686 -0.82857 1.80384 0 -0.000164368 0 0 0 0 0 0 0 0 0 0 0 0 0 0 0 0 0 0 0.002 
32 6 0.0265864 0.0813988 0.00205426 0 0 0 1.31539 2.271 3.66873 0 -0.000164368 0 0 0 0 0 0 0 0 0 0 0 0 0 0 0 0 0 0 0.002 
13 4 0.0278007 0.0954221 0.00466287 0 0 0 0.112743 0.5525 -1.12403 0 -0.000164368 0 0 0 0 0 0 0 0 0 0 0 0 0 0 0 0 0 0 0.002 
66 5 0.0233545 0.0895552 0.00571471 0 0 0 -0.213348 -0.604756 -0.604968 0 -0.000164368 0 0 0 0 0 0 0 0 0 0 0 0 0 0 0 0 0 0 0.002 
36 12 0.0471176 0.0926549 0.00526795 0 0 0 -1.70537 0.793889 0.978741 0 -0.000164368 0 0 0 0 0 0 0 0 0 0 0 0 0 0 0 0 0 0 0.002 
40 10 0.0469848 0.0975293 0.0121271 0 0 0 1.17284 0.814517 1.86214 0 -0.000164368 0 0 0 0 0 0 0 0 0 0 0 0 0 0 0 0 0 0 0.002 
53 3 0.0423889 0.105807 0.0189996 0 0 0 0.65663 -0.752285 -2.42944 0 -0.000164368 0 0 0 0 0 0 0 0 0 0 0 0 0 0 0 0 0 0 0.002 
56 7 0.02521 0.0892816 0.0267734 0 0 0 -0.933013 -3.45478 -0.57814 0 -0.000164368 0 0 0 0 0 0 0 0 0 0 0 0 0 0 0 0 0 0 0.002 
69 6 0.029879 0.101802 0.0275896 0 0 0 1.95964 0.521559 -1.41273 0 -0.000164368 0 0 0 0 0 0 0 0 0 0 0 0 0 0 0 0 0 0 0.002 
46 2 0.0433464 0.0784877 0.0307283 0 0 0 -1.39956 0.317826 -1.39989 0 -0.000164368 0 0 0 0 0 0 0 0 0 0 0 0 0 0 0 0 0 0 0.002 
58 1 0.0421507 0.0925505 0.0301445 0 0 0 -1.57686 -0.541024 -5.44006 0 -0.000164368 0 0 0 0 0 0 0 0 0 0 0 0 0 0 0 0 0 0 0.002 
30 8 0.0549184 -0.0575421 0.00457793 0 0 0 -4.67317 2.55372 39.7243 0 -0.000164368 0 0 0 0 0 0 0 0 0 0 0 0 0 0 0 0 0 0 0.002 
22 2 0.06871 -0.0560875 0.013703 0 0 0 -3.79145 9.2473 37.7605 0 -0.000164368 0 0 0 0 0 0 0 0 0 0 0 0 0 0 0 0 0 0 0.002 
28 5 0.0553989 -0.0570681 0.0100912 0 0 0 -1.29148 8.69447 42.7262 0.0774113 1.27719 -0.343555 0 0 0 0 0 0 0 0 0 0 0 0 0 0 0 0 0 0.002 
8 5 0.0551577 -0.0136944 -0.0563599 0 0 0 -23.3462 -46.7582 11.1067 0.27301 0.807486 1.83587 0 0 0 0 0 0 0 0 0 0 0 0 0 0 0 0 0 0.002 
78 1 0.0630821 -0.00487904 0.0575831 0 0 0 -11.1235 32.6949 1.00432 -0.0308997 0.0840085 0.161922 0 0 0 0 0 0 0 0 0 0 0 0 0 0 0 0 0 0.002 
54 6 0.054535 0.0198993 -0.0543268 0 0 0 11.6011 -55.5486 3.77964 0 -0.000164368 0 0 0 0 0 0 0 0 0 0 0 0 0 0 0 0 0 0 0.002 
3 2 0.0571218 0.0376881 -0.0438722 0 0 0 -8.18385 -27.7046 -27.4596 0 -0.000164368 0 0 0 0 0 0 0 0 0 0 0 0 0 0 0 0 0 0 0.002 
37 5 0.0649136 0.0381616 -0.0412684 0 0 0 19.9028 -42.5346 -39.8944 0 -0.000164368 0 0 0 0 0 0 0 0 0 0 0 0 0 0 0 0 0 0 0.002 
45 4 0.0563738 0.0555128 -0.0163785 0 0 0 1.51166 -6.83351 -28.4682 0 -0.000164368 0 0 0 0 0 0 0 0 0 0 0 0 0 0 0 0 0 0 0.002 
74 5 0.0636901 0.0462499 0.0347215 0 0 0 1.30432 21.9782 -26.7665 0 -0.000164368 0 0 0 0 0 0 0 0 0 0 0 0 0 0 0 0 0 0 0.002 
11 2 0.0974292 -0.0548416 -0.0184045 0 0 0 1.0707 -13.6242 39.5417 0 -0.000164368 0 0 0 0 0 0 0 0 0 0 0 0 0 0 0 0 0 0 0.002 
80 1 0.0934045 -0.0574132 0.00765163 0 0 0 1.09593 7.01222 38.8755 0.184605 0.403138 0.0581007 0 0 0 0 0 0 0 0 0 0 0 0 0 0 0 0 0 0.002 
25 3 0.0977043 -0.0109932 -0.0566852 0 0 0 2.90994 -18.437 2.34409 0 -0.000164368 0 0 0 0 0 0 0 0 0 0 0 0 0 0 0 0 0 0 0.002 
14 5 0.0897127 0.0466771 -0.0341398 0 0 0 4.03242 -16.8838 -24.6528 0 -0.000164368 0 0 0 0 0 0 0 0 0 0 0 0 0 0 0 0 0 0 0.002 
7 1 0.128883 -0.0578442 0.00289576 0 0 0 1.62459 -0.220235 39.206 0 -0.000164368 0 0 0 0 0 0 0 0 0 0 0 0 0 0 0 0 0 0 0.002 
19 3 0.11663 -0.0383769 -0.0432771 0 0 0 1.89805 -30.8348 27.5507 0 -0.000164368 0 0 0 0 0 0 0 0 0 0 0 0 0 0 0 0 0 0 0.002 
4 6 0.112838 -0.00568356 -0.0577107 0 0 0 1.41537 -32.522 3.59552 0.0310579 0.0933012 0.512261 0 0 0 0 0 0 0 0 0 0 0 0 0 0 0 0 0 0.002 
24 1 0.110424 -0.0334194 0.0473799 0 0 0 -0.306648 32.939 21.7347 0.0246636 0.566922 -1.00583 0 0 0 0 0 0 0 0 0 0 0 0 0 0 0 0 0 0.002 
49 3 0.115853 0.0309476 0.0490626 0 0 0 -1.04548 34.0594 -22.658 0.00667217 -0.922855 -1.07722 0 0 0 0 0 0 0 0 0 0 0 0 0 0 0 0 1 0.002 
17 4 0.143909 -0.0197905 -0.0545051 0 0 0 0.231843 -45.1869 17.7573 -0.00592929 0.329821 0.990909 0 0 0 0 0 0 0 0 0 0 0 0 0 0 0 0 0 0.002 
