ITEM: TIMESTEP
5650000
ITEM: NUMBER OF ATOMS
10400
ITEM: BOX BOUNDS ff ff ff
-0.01 0.45
-0.15 0.15
-0.08 0.1
ITEM: ATOMS id type x y z ix iy iz vx vy vz fx fy fz c_cc_1 c_cc_2 c_cc_3 c_cc_4 c_cc_5 c_cc_6 c_cc_7 c_cc_8 c_cc_9 c_cc_10 c_cc_11 c_cc_12 c_cc_13 c_cc_14 c_cc_15 c_cc_16 f_fppacc radius c_cc_17 
10897 4 0.0170651 -0.00492585 -0.0605062 0 0 0 -0.00486731 -0.0999336 0.0626124 0 -1.05196e-05 0 0 0 0 0 0 0 0 0 0 0 0 0 0 0 0 0 0 0.0008 0 
10496 1 0.0175265 -0.0229702 -0.0568256 0 0 0 -0.000533393 -0.369875 0.0989411 0 -1.05196e-05 0 0 0 0 0 0 0 0 0 0 0 0 0 0 0 0 0 0 0.0008 0 
700 8 0.0134469 -0.0220142 -0.0570616 0 0 0 0.000451522 -0.370391 0.091267 0 -1.05196e-05 0 0 0 0 0 0 0 0 0 0 0 0 0 0 0 0 0 2 0.0008 0 
10845 5 0.00890334 -0.0149524 -0.0570395 0 0 0 -12.534 -20.0231 6.98623 -0.00329425 -0.0105908 -0.0130913 0 0 0 0 0 0 0 0 0 0 0 0 0 0 0 0 0 0.0008 0 
10867 4 0.00968348 -0.0101321 -0.054664 0 0 0 0.695108 -4.16369 2.1526 0 -1.05196e-05 0 0 0 0 0 0 0 0 0 0 0 0 0 0 0 0 0 0 0.0008 0 
10889 9 0.00747802 -0.0234666 -0.0538886 0 0 0 -1.20843 -8.46628 5.77607 0 -1.05196e-05 0 0 0 0 0 0 0 0 0 0 0 0 0 0 0 0 0 0 0.0008 0 
10035 10 0.0146169 -0.0292137 -0.0535253 0 0 0 6.77264e-06 -0.228981 0.114019 -1.11028e-14 -6.3308e-06 3.15237e-06 0 0 0 0 0 0 0 0 0 0 0 0 0 0 0 0 0 0.0008 0 
10360 1 0.0176511 -0.0318684 -0.0522034 0 0 0 -9.59088e-05 -0.286534 0.142677 -6.26796e-13 -6.3308e-06 3.15237e-06 0 0 0 0 0 0 0 0 0 0 0 0 0 0 0 0 0 0.0008 0 
10829 3 0.0137766 -0.030305 -0.0502522 0 0 0 0.000210018 -4.55469 3.26243 0 -1.05196e-05 0 0 0 0 0 0 0 0 0 0 0 0 0 0 0 0 0 0 0.0008 0 
10544 4 0.0139674 -0.0379738 -0.0476823 0 0 0 -0.104369 -0.356874 0.269498 -3.08894e-06 -6.13175e-06 4.63048e-06 0 0 0 0 0 0 0 0 0 0 0 0 0 0 0 0 0 0.0008 0 
1590 3 0.011278 -0.0331917 -0.0469805 0 0 0 -0.153426 -2.32009 -0.617083 0 -1.05196e-05 0 0 0 0 0 0 0 0 0 0 0 0 0 0 0 0 0 19 0.0008 0 
10868 4 0.0109391 -0.0313908 -0.0470006 0 0 0 0.286506 -9.11857 7.63207 0 -1.05196e-05 0 0 0 0 0 0 0 0 0 0 0 0 0 0 0 0 0 0 0.0008 0 
10847 1 0.0106115 -0.0243638 -0.0447943 0 0 0 0.924421 -4.35522 -1.42182 0 -1.05196e-05 0 0 0 0 0 0 0 0 0 0 0 0 0 0 0 0 0 0 0.0008 0 
10933 2 0.00579654 -0.00739528 -0.0443272 0 0 0 -1.27426 -3.49722 6.88977 0 -1.05196e-05 0 0 0 0 0 0 0 0 0 0 0 0 0 0 0 0 0 0 0.0008 0 
9314 5 0.00977824 -0.0396114 -0.0437322 0 0 0 8.5402 -31.7905 24.5011 0 -1.05196e-05 0 0 0 0 0 0 0 0 0 0 0 0 0 0 0 0 0 0 0.0008 0 
10452 9 0.00253355 -0.0407493 -0.0417102 0 0 0 -0.131569 -1.9142 -0.0696821 0 -1.05196e-05 0 0 0 0 0 0 0 0 0 0 0 0 0 0 0 0 0 0 0.0008 0 
10375 9 0.00788569 -0.03837 -0.0404005 0 0 0 0.0338965 -1.82064 -0.0325433 0 -1.05196e-05 0 0 0 0 0 0 0 0 0 0 0 0 0 0 0 0 0 0 0.0008 0 
10483 1 0.0117157 -0.0467637 -0.0357781 0 0 0 1.38849 -9.22231 11.2262 0 -1.05196e-05 0 0 0 0 0 0 0 0 0 0 0 0 0 0 0 0 0 0 0.0008 0 
10952 1 0.0184069 -0.0108047 -0.0307552 0 0 0 -3.01236 -31.2504 -5.03145 0 -1.05196e-05 0 0 0 0 0 0 0 0 0 0 0 0 0 0 0 0 0 0 0.0008 0 
8383 2 0.00399165 -0.0248643 -0.0300737 0 0 0 2.79582 -15.9022 14.0124 0 -1.05196e-05 0 0 0 0 0 0 0 0 0 0 0 0 0 0 0 0 0 7 0.0008 0 
9977 6 0.00241945 -0.0545575 -0.0276384 0 0 0 0.0797781 -0.0042604 0.0131879 0 -1.05196e-05 0 0 0 0 0 0 0 0 0 0 0 0 0 0 0 0 0 0 0.0008 0 
10755 2 0.00850209 -0.0518744 -0.0267477 0 0 0 0.117823 -2.58232 5.27632 0 -1.05196e-05 0 0 0 0 0 0 0 0 0 0 0 0 0 0 0 0 0 0 0.0008 0 
10762 8 0.0101535 -0.0464832 -0.0262909 0 0 0 7.70247 -17.8958 24.2301 0 -1.05196e-05 0 0 0 0 0 0 0 0 0 0 0 0 0 0 0 0 0 0 0.0008 0 
8603 2 0.00187469 -0.0550576 -0.0254893 0 0 0 0.147776 -0.0921626 0.218438 0 -1.05196e-05 0 0 0 0 0 0 0 0 0 0 0 0 0 0 0 0 0 0 0.0008 0 
10156 5 0.00414956 -0.0571086 -0.0212696 0 0 0 -0.471364 -0.0899151 0.232098 4.82637e-06 -1.05758e-06 2.72992e-06 0 0 0 0 0 0 0 0 0 0 0 0 0 0 0 0 0 0.0008 0 
4562 1 0.00196715 -0.0557955 -0.018242 0 0 0 0.36083 -2.09196 6.67154 0 -1.05196e-05 0 0 0 0 0 0 0 0 0 0 0 0 0 0 0 0 0 16 0.0008 0 
7649 2 0.000814377 -0.0602716 -0.00919666 0 0 0 -0.00393105 -0.00845332 0.0418538 0 -1.05196e-05 0 0 0 0 0 0 0 0 0 0 0 0 0 0 0 0 0 0 0.0008 0 
807 4 0.0133548 -0.0361547 -0.00942176 0 0 0 0.512733 -0.531039 1.6576 0 -1.05196e-05 0 0 0 0 0 0 0 0 0 0 0 0 0 0 0 0 0 8 0.0008 0 
9279 2 0.00226027 -0.0604198 -0.00840609 0 0 0 -0.00352811 -0.0116975 0.0625761 1.78811e-17 -2.53692e-07 1.35713e-06 0 0 0 0 0 0 0 0 0 0 0 0 0 0 0 0 1 0.0008 0 
8128 3 0.0041727 -0.0603166 -0.00895792 0 0 0 0.0465854 -0.0112582 0.0602263 1.48973e-18 -2.53692e-07 1.35713e-06 0 0 0 0 0 0 0 0 0 0 0 0 0 0 0 0 1 0.0008 0 
9269 5 0.00354953 -0.0605813 -0.00733172 0 0 0 0.0337046 -0.0372483 0.0405717 0 -1.05196e-05 0 0 0 0 0 0 0 0 0 0 0 0 0 0 0 0 0 0 0.0008 0 
894 6 0.00145318 -0.060738 -0.0067035 0 0 0 0.0233921 -0.00149653 0.00811218 1.35746e-10 -5.52578e-07 1.29999e-06 0 0 0 0 0 0 0 0 0 0 0 0 0 0 0 0 4 0.0008 0 
3630 1 0.0118564 -0.0607693 -0.00653601 0 0 0 0.0248986 0.004806 -0.0252729 4.62236e-10 -1.42387e-06 1.13197e-06 0 0 0 0 0 0 0 0 0 0 0 0 0 0 0 0 4 0.0008 0 
4164 1 0.0137977 -0.0607575 -0.00659965 0 0 0 -0.00255538 0.00148191 -0.00792385 -1.01482e-08 -3.00712e-07 1.3354e-06 0 0 0 0 0 0 0 0 0 0 0 0 0 0 0 0 12 0.0008 0 
7937 2 0.000801229 -0.0609356 -0.00525368 0 0 0 -0.00212264 -3.69278e-05 -0.00180843 2.75869e-11 3.20848e-08 4.85637e-12 0 0 0 0 0 0 0 0 0 0 0 0 0 0 0 0 3 0.0008 0 
5953 8 0.00387303 -0.0609356 -0.00496553 0 0 0 0.0218459 -5.87173e-12 0.0227011 2.39615e-18 0 -3.7804e-19 0 0 0 0 0 0 0 0 0 0 0 0 0 0 0 0 10 0.0008 0 
3983 3 0.00881833 -0.0609356 -0.00506757 0 0 0 -0.000710087 -5.39535e-06 -0.0357589 1.08756e-12 4.56756e-08 5.45366e-11 0 0 0 0 0 0 0 0 0 0 0 0 0 0 0 0 0 0.0008 0 
9160 14 0.0104312 -0.0609356 -0.00519906 0 0 0 0.00518078 -1.76433e-07 -0.0111885 2.26073e-14 -1.95418e-09 4.96052e-13 0 0 0 0 0 0 0 0 0 0 0 0 0 0 0 0 0 0.0008 0 
1887 11 0.0120186 -0.0609358 -0.00494775 0 0 0 0.000826494 0.0025007 -0.0157622 -4.94304e-06 2.39115e-05 1.64906e-05 0 0 0 0 0 0 0 0 0 0 0 0 0 0 0 0 4 0.0008 0 
7844 8 0.0136485 -0.0609356 -0.0050018 0 0 0 -0.0094488 4.8041e-06 -0.0038796 -2.95979e-11 -1.33614e-07 4.15846e-11 0 0 0 0 0 0 0 0 0 0 0 0 0 0 0 0 1 0.0008 0 
8382 2 0.0151203 -0.0609353 -0.00564084 0 0 0 -0.0242294 0.000447201 -0.0482915 0 -1.05196e-05 0 0 0 0 0 0 0 0 0 0 0 0 0 0 0 0 0 1 0.0008 0 
2799 2 0.0171146 -0.0609105 -0.00575578 0 0 0 -0.126487 0.0251328 -0.118506 0 -1.05196e-05 0 0 0 0 0 0 0 0 0 0 0 0 0 0 0 0 0 4 0.0008 0 
1225 1 0.00227807 -0.0609356 -0.00458773 0 0 0 0.00568667 6.85794e-12 -0.0130957 6.04302e-19 0 -1.47838e-18 0 0 0 0 0 0 0 0 0 0 0 0 0 0 0 0 99 0.0008 0 
4634 2 0.0056595 -0.0609356 -0.00444258 0 0 0 0.00629112 -2.90834e-06 -0.0258391 9.98997e-08 1.49941e-06 2.20513e-07 0 1 0 0 0 0 0 0 0 0 0 0 0 0 0 0 12 0.0008 0 
634 1 0.0161569 -0.0609329 -0.00441885 0 0 0 -0.0423381 0.00406342 -0.0334373 -0.000145436 -1.05789e-05 -0.000212167 1 0 0 0 0 0 0 0 0 0 0 0 0 0 0 0 7 0.0008 0 
209 4 0.0186138 -0.0608165 -0.0046269 0 0 0 -0.126709 0.0137685 0.00766499 0 -1.05196e-05 0 0 0 0 0 0 0 0 0 0 0 0 0 0 0 0 0 10 0.0008 0 
5540 9 0.000851294 -0.0609356 -0.00365323 0 0 0 0.00115506 -0.000101123 -0.00636171 7.8593e-08 1.21285e-06 -1.29159e-06 0 0 0 0 0 0 0 0 1 0 0 0 0 0 0 0 9 0.0008 0 
9680 4 0.00267217 -0.0609356 -0.00301643 0 0 0 0.0117584 -5.87173e-12 -0.0140868 1.20858e-18 0 -8.9115e-19 0 0 0 0 0 0 0 0 0 0 0 0 0 0 0 0 0 0.0008 0 
6408 2 0.00492914 -0.0609356 -0.00296523 0 0 0 0.00174105 -4.42149e-12 -0.0223017 3.00844e-19 -1.16891e-19 -1.63237e-18 0 0 0 0 0 0 0 0 0 0 0 0 0 0 0 0 5 0.0008 0 
4185 5 0.00660273 -0.0609353 -0.00315018 0 0 0 0.00654427 -0.00220908 -0.0255901 -3.79561e-07 -1.04682e-05 -7.37728e-08 0 1 0 0 1 0 0 0 0 0 0 0 0 0 0 0 18 0.0008 0 
9639 4 0.0082003 -0.0609356 -0.00305952 0 0 0 0.00735388 -9.58186e-05 -0.0237516 -1.80984e-07 -1.21528e-06 -8.99271e-09 0 0 0 0 0 0 0 0 0 0 0 0 0 0 0 0 1 0.0008 0 
7431 2 0.00970656 -0.0609356 -0.00363406 0 0 0 0.00963221 1.15033e-07 -0.0304343 3.11856e-13 -7.90005e-10 -9.86071e-13 0 0 0 0 0 0 0 0 0 0 0 0 0 0 0 0 0 0.0008 0 
3491 3 0.0113108 -0.0609254 -0.00350877 0 0 0 -0.0167192 -0.00210199 -0.0272306 0 -1.05196e-05 0 0 0 0 0 0 0 0 0 0 0 0 0 0 0 0 0 4 0.0008 0 
5313 7 0.0129183 -0.0609356 -0.00357788 0 0 0 -0.0105648 -1.09433e-05 -0.00417709 4.66867e-11 -1.8123e-07 2.2371e-12 0 0 0 0 0 0 0 0 0 0 0 0 0 0 0 0 8 0.0008 0 
5892 2 0.0147006 -0.0609356 -0.0035632 0 0 0 0.0331302 -6.35513e-12 -0.0867693 9.07078e-19 0 0 0 0 0 0 0 0 0 0 0 0 0 0 0 0 0 0 10 0.0008 0 
3509 2 0.0163756 -0.0609357 -0.00283514 0 0 0 -0.0748642 -0.000981073 -0.0435273 0.000382638 1.62133e-05 -1.43435e-05 1 2 0 0 0 0 0 0 0 0 0 0 0 0 0 0 7 0.0008 0 
5167 8 0.0179578 -0.060936 -0.00306294 0 0 0 -0.0394036 0.00210799 0.00946545 9.70846e-05 3.36841e-05 -4.24532e-05 0 1 0 0 0 0 0 2 0 0 0 0 0 0 0 0 6 0.0008 0 
1200 7 0.000800311 -0.0609356 -0.00205418 0 0 0 0.000121102 0.000116793 -0.00643587 -2.30815e-07 -1.01708e-06 6.06744e-06 0 0 0 0 0 0 0 0 1 0 0 0 0 0 0 0 8 0.0008 0 
3512 5 0.00377958 -0.0609356 -0.00183503 0 0 0 -0.00344182 1.54049e-12 -0.0252023 3.81407e-19 -2.03288e-20 -2.39614e-18 0 0 0 0 0 0 0 0 0 0 0 0 0 0 0 0 24 0.0008 0 
3427 4 0.0101484 -0.0609356 -0.00175687 0 0 0 0.0411513 -6.38592e-08 -0.0281003 2.42793e-08 6.47592e-10 -3.47431e-08 0 0 0 0 0 0 0 0 0 0 0 0 0 0 0 0 4 0.0008 0 
7185 2 0.0123075 -0.0609356 -0.00209388 0 0 0 -0.0216402 1.77238e-07 -0.0147017 -1.05327e-12 3.85988e-09 -7.15559e-13 0 0 0 0 0 0 0 0 0 0 0 0 0 0 0 0 7 0.0008 0 
7843 6 0.0152119 -0.0609351 -0.00174009 0 0 0 -0.0583744 -0.000848085 -0.033226 -0.000224916 -1.47378e-05 0.000178868 0 1 0 0 0 1 0 0 0 0 0 0 0 0 0 0 7 0.0008 0 
1345 6 0.0120419 -0.0589782 -0.00241641 0 0 0 2.27465 -1.15783 17.7439 0.0473504 0.0947332 -0.00142576 0 0 0 0 0 0 0 0 0 0 0 0 0 0 0 0 25 0.0008 0 
414 7 0.00224478 -0.0609356 -0.00135584 0 0 0 0.000367759 7.34798e-13 -0.00664202 -3.74391e-20 5.92923e-20 8.36558e-19 0 0 0 0 0 0 0 0 0 0 0 0 0 0 0 0 8 0.0008 0 
6702 2 0.00607948 -0.0609356 -0.00163819 0 0 0 -0.00455734 -0.000311681 -0.0289194 2.10113e-07 1.87634e-06 -2.37096e-07 0 0 0 0 1 0 0 0 0 0 0 0 0 0 0 0 4 0.0008 0 
72 4 0.00781078 -0.0609356 -0.001499 0 0 0 -0.00543756 -7.96651e-05 -0.0203846 6.64634e-09 -3.03953e-07 2.51285e-08 0 0 0 0 0 0 0 0 0 0 0 0 0 0 0 0 5 0.0008 0 
1118 3 0.0130939 -0.0609356 -0.000675795 0 0 0 -0.0127335 -0.000100741 -0.0175332 5.21705e-06 1.27146e-07 -1.05853e-06 0 0 0 0 0 0 0 0 0 0 0 0 0 0 0 0 19 0.0008 0 
7053 4 0.0174375 -0.0609336 -0.00155128 0 0 0 -0.0468892 0.002792 0.0132556 -0.000106304 6.57691e-07 0.000105372 0 0 0 0 0 0 0 1 0 0 0 0 0 0 0 0 10 0.0008 0 
398 2 0.0187208 -0.0609356 -0.000591984 0 0 0 6.95216e-05 0.00013826 -0.0276329 2.36532e-06 -1.2456e-06 3.98834e-06 0 0 0 0 0 0 0 0 0 0 0 0 0 0 0 0 18 0.0008 0 
10810 3 0.00295313 -0.0589012 -0.000725063 0 0 0 -0.189862 0.444694 8.40158 0 -1.05196e-05 0 0 0 0 0 0 0 0 0 0 0 0 0 0 0 0 0 0 0.0008 0 
1871 2 0.000833702 -0.0609356 -0.000449882 0 0 0 0.00228286 5.49848e-05 -0.00712026 1.40763e-06 2.53419e-06 7.84164e-07 0 1 0 0 0 0 0 0 0 0 0 0 0 0 0 0 12 0.0008 0 
690 7 0.00226214 -0.0609356 0.00027066 0 0 0 0.00235638 -3.98407e-05 -0.00409376 9.60938e-07 -2.60431e-06 4.77192e-07 0 1 0 0 0 0 0 0 0 0 0 0 0 0 0 0 12 0.0008 0 
553 2 0.00483255 -0.0609356 -0.000584131 0 0 0 -0.00232754 2.81208e-11 -0.0226645 -1.76824e-17 -1.23876e-13 -1.71644e-16 0 0 0 0 0 0 0 0 0 0 0 0 0 0 0 0 11 0.0008 0 
1002 3 0.00684402 -0.0609356 -0.000205919 0 0 0 0.0148537 -8.60411e-05 -0.0319787 -4.94696e-10 6.93587e-07 9.07684e-11 0 0 0 0 0 0 0 0 0 0 0 0 0 0 0 0 16 0.0008 0 
4095 1 0.00904233 -0.0609356 -0.000472645 0 0 0 0.000768678 -8.9929e-05 -0.0297253 3.43558e-12 -1.24769e-06 4.31265e-10 0 0 0 0 0 0 0 0 0 0 0 0 0 0 0 0 9 0.0008 0 
1367 1 0.0108519 -0.0609356 0.00030762 0 0 0 -0.0261055 -3.93137e-13 -0.0961694 -4.79236e-18 0 3.88082e-18 0 0 0 0 0 0 0 0 0 0 0 0 0 0 0 0 43 0.0008 0 
4298 7 0.0146362 -0.0609328 -0.000247486 0 0 0 -0.0105077 0.00239135 -0.0282064 -5.73985e-05 -3.54385e-06 3.508e-05 0 0 0 0 0 1 0 0 0 0 0 0 0 0 0 0 7 0.0008 0 
316 1 0.0163082 -0.0609356 -0.000107026 0 0 0 -0.032546 -4.58265e-12 -0.0651882 4.79182e-18 0 9.58414e-18 0 0 0 0 0 0 0 0 0 0 0 0 0 0 0 0 17 0.0008 0 
206 1 0.000900352 -0.0609356 0.00115025 0 0 0 -0.00187563 -0.000116623 -0.00534775 2.83737e-08 -2.83346e-06 -5.67701e-07 0 0 0 0 0 0 0 0 0 0 0 0 0 0 0 0 24 0.0008 0 
101 5 0.0038028 -0.0609356 0.000730003 0 0 0 0.00359912 -8.76542e-13 -0.0143364 5.99051e-19 0 -2.40669e-18 0 0 0 0 0 0 0 0 0 0 0 0 0 0 0 0 21 0.0008 0 
585 3 0.00559503 -0.0609356 0.000885213 0 0 0 0.0114657 2.42512e-10 -0.0195206 6.94847e-16 2.92545e-11 -1.18276e-15 0 0 0 0 0 0 0 0 0 0 0 0 0 0 0 0 13 0.0008 0 
1470 6 0.00711932 -0.0609356 0.001374 0 0 0 0.0147093 -0.000115573 -0.0315143 1.01178e-10 -2.16237e-07 2.00893e-09 0 0 0 0 0 0 0 0 0 0 0 0 0 0 0 0 28 0.0008 0 
4165 3 0.00872932 -0.0609356 0.00111555 0 0 0 -0.0168126 -2.37338e-06 -0.0307034 1.11197e-08 1.89076e-09 5.43045e-08 0 0 0 0 0 0 0 0 0 0 0 0 0 0 0 0 1 0.0008 0 
1890 2 0.0128749 -0.0609354 0.000917348 0 0 0 -0.0560976 -0.00130427 -0.0183009 -4.03787e-06 -2.08362e-05 -2.03992e-05 0 1 0 0 0 0 0 0 0 0 0 0 0 0 0 0 31 0.0008 0 
2966 5 0.0145382 -0.0609338 0.00135052 0 0 0 -0.0259267 -0.0045135 -0.0323585 0 -1.05196e-05 0 0 0 0 0 0 0 0 0 0 0 0 0 0 0 0 0 15 0.0008 0 
1937 15 0.0182235 -0.0609356 0.000945209 0 0 0 -0.0283874 -8.40573e-05 -0.0218025 4.13086e-08 -5.0952e-06 -1.53507e-07 0 0 0 0 0 0 0 0 0 0 0 0 0 0 0 0 25 0.0008 0 
280 2 0.00249437 -0.0609356 0.00185468 0 0 0 0.00601492 9.33174e-06 -0.00603822 1.60146e-11 -2.19561e-07 -1.26924e-11 0 0 0 0 0 0 0 0 0 0 0 0 0 0 0 0 27 0.0008 0 
317 1 0.00409036 -0.0609356 0.00230716 0 0 0 0.0136005 -2.48789e-12 -0.0155176 2.40665e-18 0 -7.75244e-19 0 0 0 0 0 0 0 0 0 0 0 0 0 0 0 0 17 0.0008 0 
2069 4 0.00593712 -0.0609356 0.00246754 0 0 0 0.0149542 0.00129952 -0.0309893 -0.000202144 5.10306e-06 -0.000104382 0 0 0 1 0 0 0 0 0 0 0 0 0 0 0 0 47 0.0008 0 
4938 7 0.0115529 -0.0609356 0.00188257 0 0 0 -0.0567065 9.56382e-12 -0.0636772 -1.50589e-16 3.50979e-13 -1.68215e-16 0 0 0 0 0 0 0 0 0 0 0 0 0 0 0 0 44 0.0008 0 
6574 6 0.0132703 -0.0609356 0.00246743 0 0 0 -0.0543604 -0.0196582 -0.0198924 0.000501719 0.000142785 0.000305249 0 1 0 0 0 0 0 0 0 0 0 0 0 0 0 0 28 0.0008 0 
604 2 0.0161329 -0.0609356 0.00159032 0 0 0 -0.0276005 -3.81448e-12 -0.0589861 -4.85443e-18 -1.85589e-15 -9.68285e-18 0 0 0 0 0 0 0 0 0 0 0 0 0 0 0 0 14 0.0008 0 
510 4 0.0176428 -0.0609356 0.00243635 0 0 0 -0.007086 -0.00138253 -0.0113089 -5.12079e-06 3.65953e-06 4.90297e-06 0 0 0 0 0 0 0 0 0 0 0 0 0 0 0 0 19 0.0008 0 
1972 6 0.000818449 -0.0609357 0.00274824 0 0 0 -0.000257036 -0.000323986 -0.0036755 -3.75036e-07 9.8877e-06 1.01967e-05 0 0 0 0 0 0 0 0 0 0 0 0 0 0 0 0 37 0.0008 0 
1894 5 0.00231621 -0.0609356 0.00344664 0 0 0 -1.44297e-05 3.2018e-05 -0.00515432 6.75678e-08 -3.63765e-07 2.82797e-08 0 0 0 0 1 0 0 0 0 0 0 0 0 0 0 0 53 0.0008 0 
154 3 0.00746056 -0.0609357 0.00295144 0 0 0 0.00713817 -0.00120113 -0.0120065 0.000192186 -1.15153e-06 9.67122e-05 0 0 0 1 0 0 0 0 0 0 0 0 0 0 0 0 55 0.0008 0 
1920 3 0.00926424 -0.0609356 0.00262783 0 0 0 -0.0235278 -7.13437e-06 -0.0252095 3.79651e-06 9.11861e-08 3.70588e-06 0 0 0 0 0 0 0 0 0 0 0 0 0 0 0 0 10 0.0008 0 
4532 9 0.0105816 -0.0609356 0.00354448 0 0 0 -0.0255088 5.07887e-05 -0.0225955 3.53348e-06 -5.86209e-07 1.03901e-06 0 0 0 0 0 0 0 0 1 0 0 0 0 0 0 0 12 0.0008 0 
1039 2 0.0148371 -0.0609324 0.00292443 0 0 0 -0.0284904 0.00515812 -0.0280217 -0.000133134 -8.01462e-05 -4.3026e-05 0 1 0 0 0 0 0 0 0 0 0 0 0 0 0 0 26 0.0008 0 
9120 7 0.0163632 -0.0609353 0.00340112 0 0 0 -0.0200964 0.00678644 -0.0514727 0.000133134 5.91071e-05 4.3026e-05 0 1 0 0 0 0 0 0 0 0 0 0 0 0 0 0 3 0.0008 0 
733 3 0.000821971 -0.0609357 0.00434848 0 0 0 0.00415749 0.000377864 -0.00211193 8.8647e-08 1.29962e-05 -2.97678e-06 0 0 1 0 0 0 0 0 0 0 0 0 0 0 0 0 58 0.0008 0 
1705 8 0.00383299 -0.0609356 0.00395593 0 0 0 0.00155172 1.41663e-05 -0.00951941 -3.93988e-08 -2.80408e-07 -1.7762e-08 0 0 0 0 1 0 0 0 0 0 0 0 0 0 0 0 72 0.0008 0 
531 10 0.00543277 -0.0609356 0.00399067 0 0 0 0.0024763 -6.03384e-05 -0.0245974 1.83558e-08 6.87505e-07 9.23555e-10 0 0 0 0 0 0 0 0 0 0 0 0 0 0 0 0 70 0.0008 0 
3087 1 0.00695918 -0.0609356 0.00447834 0 0 0 0.00195903 -4.97061e-06 -0.0217796 -8.82219e-08 -5.22293e-07 7.4703e-08 1 0 0 0 0 0 0 0 0 0 0 0 0 0 0 0 52 0.0008 0 
18 2 0.00860587 -0.0609356 0.00411304 0 0 0 -0.00860123 6.67268e-07 -0.0172829 -1.60305e-12 1.86574e-09 -3.2211e-12 0 0 0 0 0 0 0 0 0 0 0 0 0 0 0 0 25 0.0008 0 
9210 2 0.0121469 -0.0608853 0.00387185 0 0 0 -0.0178388 -0.0356518 -0.0526966 1.4207e-06 -9.38174e-06 1.93924e-07 0 1 0 0 0 0 0 0 1 0 0 0 0 0 0 0 2 0.0008 0 
8439 3 0.0136158 -0.0609356 0.00450389 0 0 0 -0.0296878 -0.000150311 -0.021667 1.84535e-07 1.70075e-06 9.62887e-08 0 1 0 0 0 0 0 0 0 0 0 0 0 0 0 0 3 0.0008 0 
5191 1 0.015249 -0.0609329 0.00458752 0 0 0 -0.0116216 -0.0168196 -0.0453255 0 -1.05196e-05 0 0 0 0 0 0 0 0 0 0 0 0 0 0 0 0 0 23 0.0008 0 
10886 4 0.0169333 -0.0589415 0.0037319 0 0 0 0.192812 0.452854 12.4062 0 -1.05196e-05 0 0 0 0 0 0 0 0 0 0 0 0 0 0 0 0 0 0 0.0008 0 
210 4 0.00226601 -0.0609356 0.005048 0 0 0 -0.00843587 -1.30943e-07 -0.00531763 2.52215e-13 -2.58917e-08 1.5548e-13 0 0 0 0 0 0 0 0 0 0 0 0 0 0 0 0 60 0.0008 0 
2352 2 0.00388179 -0.0609356 0.00557029 0 0 0 0.00483397 1.09171e-08 -0.0190118 1.46368e-14 1.15582e-10 -5.7566e-14 0 0 0 0 0 0 0 0 0 0 0 0 0 0 0 0 68 0.0008 0 
2116 2 0.00593758 -0.0609238 0.00570968 0 0 0 0.0131029 -0.00230145 -0.0123347 3.40073e-08 1.16136e-07 -1.42562e-06 1 0 0 0 0 0 0 0 0 0 0 0 0 0 0 0 62 0.0008 0 
5900 8 0.00924565 -0.0609252 0.00570259 0 0 0 -0.00102897 0.00265709 0.00954665 -3.2986e-07 -3.10462e-06 -1.06719e-06 0 0 0 0 0 0 0 0 0 0 0 0 0 0 0 0 10 0.0008 0 
9818 2 0.0109801 -0.0609356 0.00532443 0 0 0 0.0136378 2.86129e-09 -0.0562929 5.25978e-06 -2.60292e-12 9.9836e-10 0 0 0 0 0 0 0 0 0 0 0 0 0 0 0 0 0 0.0008 0 
7315 2 0.0125582 -0.0609216 0.00572157 0 0 0 -0.0393138 -0.00337636 -0.0180848 -5.10927e-06 -4.77864e-07 -1.8932e-06 0 0 0 0 0 0 0 0 0 0 0 0 0 0 0 0 0 0.0008 0 
2641 8 0.000800362 -0.0608794 0.00594725 0 0 0 0.000496565 -0.0010411 -0.00365704 -1.2503e-07 8.32235e-07 5.73467e-06 0 0 1 0 0 0 0 1 0 0 0 0 0 0 0 0 53 0.0008 0 
3865 4 0.00225962 -0.0607504 0.00663735 0 0 0 -0.000967407 -0.00115732 -0.00618763 1.80251e-13 -2.29628e-07 -1.3618e-06 0 0 0 0 0 0 0 0 0 0 0 0 0 0 0 0 44 0.0008 0 
4248 10 0.00765901 -0.060884 0.00592265 0 0 0 -0.00800883 -0.00343672 -0.0193703 -1.68527e-06 -1.29122e-06 -1.78363e-06 0 0 0 0 0 0 0 0 0 0 0 0 0 0 0 0 31 0.0008 0 
5729 3 0.0143837 -0.0607774 0.0059447 0 0 0 0.0138166 -0.0310295 0.002541 0 -1.05196e-05 0 0 0 0 0 0 0 0 0 0 0 0 0 0 0 0 0 8 0.0008 0 
1223 3 0.0159685 -0.0606628 0.00675751 0 0 0 0.0303094 0.012085 -0.0183872 0 -1.05196e-05 0 0 0 0 0 0 0 0 0 0 0 0 0 0 0 0 0 2 0.0008 0 
5113 5 0.000802431 -0.0605854 0.00751995 0 0 0 -0.00943344 -0.000582661 -0.00453859 -7.24056e-08 1.20098e-06 2.77065e-06 0 0 0 0 0 0 0 1 0 0 0 0 0 0 0 0 31 0.0008 0 
3869 8 0.00373077 -0.0606346 0.00725669 0 0 0 0.00165776 -0.00248781 -0.0133086 -3.72327e-15 -2.53797e-07 -1.35711e-06 0 0 0 0 0 0 0 0 0 0 0 0 0 0 0 0 43 0.0008 0 
1045 8 0.00555967 -0.060636 0.00725006 0 0 0 -0.116221 -0.0140371 -0.0725739 0.000163717 4.68114e-05 8.85562e-05 0 0 0 0 0 0 0 1 0 0 0 0 0 0 0 0 14 0.0008 0 
12 4 0.00713948 -0.0605518 0.00748546 0 0 0 -0.0833176 -0.00785767 0.0302615 -0.000144119 -1.96259e-05 -8.46676e-05 0 0 0 0 0 0 0 1 0 0 0 0 0 0 0 0 1 0.0008 0 
4459 4 0.00988493 -0.0604908 0.00722774 0 0 0 0.0750166 0.0073533 0.0077924 0 -1.05196e-05 0 0 0 0 0 0 0 0 0 0 0 0 0 0 0 0 0 3 0.0008 0 
1165 1 0.00221628 -0.0604471 0.00825984 0 0 0 -0.00520555 -0.000820499 -0.00347104 2.9362e-06 -6.34068e-08 2.09522e-06 0 0 0 0 0 0 0 0 0 0 0 0 0 0 0 0 56 0.0008 0 
2951 1 0.0177837 -0.0604251 0.00837745 0 0 0 0.0362869 0.0196659 0.105793 -1.6733e-09 -1.51214e-06 -1.1097e-06 0 0 0 0 0 0 0 0 0 0 0 0 0 0 0 0 19 0.0008 0 
4325 3 0.000800009 -0.0602913 0.00909326 0 0 0 -0.000397472 -0.000553195 -0.00341452 -3.90944e-09 -6.66828e-07 -1.26731e-06 0 0 0 0 0 0 0 0 0 0 0 0 0 0 0 0 22 0.0008 0 
6076 6 0.00358985 -0.060251 0.00912591 0 0 0 0.0207862 0.0214362 0.0277374 0 -1.05196e-05 0 0 0 0 0 0 0 0 0 0 0 0 0 0 0 0 0 8 0.0008 0 
6544 1 0.00747836 -0.0601866 0.00965591 0 0 0 0.0714028 -0.0761974 0.0597561 -0.00125505 0.000748605 -0.00132154 0 0 0 0 0 0 0 0 0 0 0 0 0 0 0 0 11 0.0008 0 
1036 2 0.00985398 -0.0601907 0.00933666 0 0 0 -0.237484 -0.0257228 -0.127299 0 -1.05196e-05 0 0 0 0 0 0 0 0 0 0 0 0 0 0 0 0 0 2 0.0008 0 
10850 4 0.0169164 -0.0581043 0.00978229 0 0 0 0.00292744 2.19901 9.07188 0 -1.05196e-05 0 0 0 0 0 0 0 0 0 0 0 0 0 0 0 0 0 0 0.0008 0 
5875 2 0.000803015 -0.0599959 0.0106736 0 0 0 -0.0246648 -0.000969128 0.0104694 1.34311e-05 1.7554e-05 -1.1759e-05 0 0 0 0 0 0 0 0 0 0 0 0 0 0 0 0 11 0.0008 0 
2858 2 0.00226997 -0.060116 0.0100239 0 0 0 -0.00707317 0.000895503 0.000429 0 -1.05196e-05 0 0 0 0 0 0 0 0 0 0 0 0 0 0 0 0 0 19 0.0008 0 
9441 6 0.00369542 -0.0599674 0.0108263 0 0 0 -0.00164054 0.00797112 0.0426417 4.81104e-17 -2.53691e-07 -1.35713e-06 0 0 0 0 0 0 0 0 0 0 0 0 0 0 0 0 1 0.0008 0 
3877 5 0.00879087 -0.059965 0.0106824 0 0 0 -0.0997151 0.0186 0.0892978 0 -1.05196e-05 0 0 0 0 0 0 0 0 0 0 0 0 0 0 0 0 0 6 0.0008 0 
8267 8 0.00209344 -0.0597888 0.0117788 0 0 0 -0.0278817 0.00316308 0.00833915 0 -1.05196e-05 0 0 0 0 0 0 0 0 0 0 0 0 0 0 0 0 0 0 0.0008 0 
4050 3 0.000807016 -0.0596033 0.0127741 0 0 0 -0.025654 0.00372486 0.0200044 5.17985e-06 -3.6487e-07 -2.69091e-06 0 0 0 0 0 0 0 0 0 0 0 0 0 0 0 0 10 0.0008 0 
9650 1 0.00817816 -0.0595431 0.0124476 0 0 0 -0.133557 -0.00247773 0.202299 0 -1.05196e-05 0 0 0 0 0 0 0 0 0 0 0 0 0 0 0 0 0 0 0.0008 0 
3081 3 0.00199444 -0.0591227 0.0153447 0 0 0 -0.165285 0.0380152 0.203363 2.97904e-06 -1.13165e-06 -6.0538e-06 0 0 0 0 0 0 0 0 0 0 0 0 0 0 0 0 36 0.0008 0 
7750 3 0.00996869 -0.0589903 0.0160529 0 0 0 0.122928 -0.00237094 -0.0126834 -1.0481e-17 -2.53692e-07 -1.35713e-06 0 0 0 0 0 0 0 0 0 0 0 0 0 0 0 0 0 0.0008 0 
10519 13 0.00611276 -0.0521188 0.0261839 0 0 0 -0.450319 4.3779 8.52775 0 -1.05196e-05 0 0 0 0 0 0 0 0 0 0 0 0 0 0 0 0 0 0 0.0008 0 
1143 11 0.00408477 -0.040915 0.0310062 0 0 0 5.10909 23.6412 13.2907 0 -1.05196e-05 0 0 0 0 0 0 0 0 0 0 0 0 0 0 0 0 0 15 0.0008 0 
8682 5 0.0163822 -0.0514961 0.0319019 0 0 0 -0.469823 -0.467951 -0.867112 0 -1.05196e-05 0 0 0 0 0 0 0 0 0 0 0 0 0 0 0 0 0 0 0.0008 0 
10129 8 0.0115904 -0.049545 0.0352785 0 0 0 0.00424452 0.214576 -0.149235 0 -1.05196e-05 0 0 0 0 0 0 0 0 0 0 0 0 0 0 0 0 0 0 0.0008 0 
1646 10 0.00197077 -0.0475994 0.034579 0 0 0 1.65849 10.644 15.636 0 -1.05196e-05 0 0 0 0 0 0 0 0 0 0 0 0 0 0 0 0 0 41 0.0008 0 
5993 3 0.00865499 -0.0412071 0.0419244 0 0 0 -2.96868 10.7747 10.6344 0 -1.05196e-05 0 0 0 0 0 0 0 0 0 0 0 0 0 0 0 0 0 11 0.0008 0 
1153 4 0.00738026 -0.00968228 0.0432668 0 0 0 0.596416 -3.87267 2.18288 0 -1.05196e-05 0 0 0 0 0 0 0 0 0 0 0 0 0 0 0 0 0 17 0.0008 0 
6493 9 0.00279522 -0.0417656 0.0446181 0 0 0 0.08547 -0.23779 -0.30802 0 -1.05196e-05 0 0 0 0 0 0 0 0 0 0 0 0 0 0 0 0 0 16 0.0008 0 
10756 3 0.018668 -0.0255185 0.0450381 0 0 0 -0.907619 14.123 9.27883 0 -1.05196e-05 0 0 0 0 0 0 0 0 0 0 0 0 0 0 0 0 0 0 0.0008 0 
10557 12 0.017515 -0.0338584 0.0464327 0 0 0 0.657161 10.2056 7.85523 0 -1.05196e-05 0 0 0 0 0 0 0 0 0 0 0 0 0 0 0 0 0 0 0.0008 0 
9175 2 0.00440761 -0.0332867 0.0483872 0 0 0 -0.0450993 7.64301 4.82582 0 -1.05196e-05 0 0 0 0 0 0 0 0 0 0 0 0 0 0 0 0 0 2 0.0008 0 
10824 2 0.010553 -0.032505 0.0489124 0 0 0 0.771547 8.23296 5.55244 0 -1.05196e-05 0 0 0 0 0 0 0 0 0 0 0 0 0 0 0 0 0 0 0.0008 0 
8760 5 0.0121332 -0.0308192 0.0505473 0 0 0 -1.75648 16.5731 4.99465 -0.000863651 -0.000857814 0.00151648 0 0 0 0 0 0 0 0 0 0 0 0 0 0 0 0 0 0.0008 0 
10366 1 0.0119466 -0.0267027 0.054472 0 0 0 0.126078 -0.526344 -0.296776 0 -1.05196e-05 0 0 0 0 0 0 0 0 0 0 0 0 0 0 0 0 0 0 0.0008 0 
10823 10 0.00725485 -0.020309 0.0555307 0 0 0 1.67225 8.58963 2.10212 -0.00372052 0.00780372 -0.0289531 0 0 0 0 0 0 0 0 0 0 0 0 0 0 0 0 0 0.0008 0 
3561 10 0.0185862 -0.017055 0.0581141 0 0 0 0.00551627 -0.558432 -0.139758 0 -1.05196e-05 0 0 0 0 0 0 0 0 0 0 0 0 0 0 0 0 0 13 0.0008 0 
10811 9 0.0115612 -0.00631311 0.0580853 0 0 0 -0.0118897 6.76218 -0.818461 0 -1.05196e-05 0 0 0 0 0 0 0 0 0 0 0 0 0 0 0 0 0 0 0.0008 0 
10028 3 0.0178365 0.000432971 -0.0611007 0 0 0 0.0461896 -0.447025 -0.0371965 0 -1.05196e-05 0 0 0 0 0 0 0 0 0 0 0 0 0 0 0 0 0 0 0.0008 0 
2611 5 0.0135084 0.00369694 -0.0605701 0 0 0 -0.0112493 -0.372436 -0.0396247 0 -1.05196e-05 0 0 0 0 0 0 0 0 0 0 0 0 0 0 0 0 0 17 0.0008 0 
6386 1 0.00557265 0.0100274 -0.0582542 0 0 0 0.767206 -4.41153 0.0310307 0 -1.05196e-05 0 0 0 0 0 0 0 0 0 0 0 0 0 0 0 0 0 10 0.0008 0 
10879 9 0.0121877 0.00466391 -0.0577143 0 0 0 2.72223 -8.46957 0.823192 0 -1.05196e-05 0 0 0 0 0 0 0 0 0 0 0 0 0 0 0 0 0 0 0.0008 0 
10613 5 0.0166542 0.0185624 -0.0577439 0 0 0 -3.63955e-14 -0.240116 -0.0491497 0 -1.05196e-05 0 0 0 0 0 0 0 0 0 0 0 0 0 0 0 0 0 0 0.0008 0 
7274 5 0.00778408 0.0174313 -0.0558102 0 0 0 0.928911 -8.09002 -5.49675 0 -1.05196e-05 0 0 0 0 0 0 0 0 0 0 0 0 0 0 0 0 0 6 0.0008 0 
10887 5 0.0116972 0.0159841 -0.0520307 0 0 0 -0.00185672 -10.9601 -5.51106 0 -1.05196e-05 0 0 0 0 0 0 0 0 0 0 0 0 0 0 0 0 0 0 0.0008 0 
10782 6 0.0174117 0.0408906 -0.0436506 0 0 0 0.0039804 -0.206017 -0.0474206 0 -1.05196e-05 0 0 0 0 0 0 0 0 0 0 0 0 0 0 0 0 0 0 0.0008 0 
10851 6 0.00840295 0.0225568 -0.0418471 0 0 0 0.497303 -0.988264 -2.27979 0 -1.05196e-05 0 0 0 0 0 0 0 0 0 0 0 0 0 0 0 0 0 0 0.0008 0 
6272 1 0.00345679 0.0468944 -0.038429 0 0 0 0.0620693 -0.128118 -0.130055 0 -1.05196e-05 0 0 0 0 0 0 0 0 0 0 0 0 0 0 0 0 0 13 0.0008 0 
3292 7 0.0139636 0.0291675 -0.0360186 0 0 0 2.36517 -5.09105 -1.39433 0 -1.05196e-05 0 0 0 0 0 0 0 0 0 0 0 0 0 0 0 0 0 20 0.0008 0 
10831 6 0.00652731 0.0212596 -0.0347392 0 0 0 0.35247 -1.59041 -0.611824 0 -1.05196e-05 0 0 0 0 0 0 0 0 0 0 0 0 0 0 0 0 0 0 0.0008 0 
2321 7 0.0103082 0.0510907 -0.0355 0 0 0 2.58323e-302 -8.47504e-20 -3.53502e-12 9.15261e-308 0 -2.22045e-16 0 0 0 0 0 0 0 0 0 0 0 0 0 0 0 0 0 0.0008 0 
283 5 0.00799005 0.0522009 -0.0355 0 0 0 2.90209e-302 -2.83743e-20 2.36053e-12 -9.49729e-308 0 -2.22045e-16 0 0 0 0 0 0 0 0 0 0 0 0 0 0 0 0 0 0.0008 0 
478 2 0.00645358 0.0529587 -0.0355 0 0 0 -3.67248e-302 -8.48257e-20 -5.89792e-12 -9.16699e-308 0 2.22045e-16 0 0 0 0 0 0 0 0 0 0 0 0 0 0 0 0 0 0.0008 0 
7581 4 0.0102131 0.0535057 -0.0355 0 0 0 2.76375e-17 1.04046e-16 -5.31054e-12 -4.33681e-19 4.33681e-19 0 0 0 0 1 0 0 0 0 0 0 0 0 0 0 0 0 25 0.0008 0 
871 8 0.00614276 0.0558664 -0.0355 0 0 0 -1.36957e-214 8.4858e-20 -5.89795e-12 1.04696e-214 0 -2.22045e-16 0 0 0 0 0 0 0 0 0 0 0 0 0 0 0 0 1 0.0008 0 
5520 7 0.0096064 0.0549674 -0.0355 0 0 0 -2.66105e-17 -1.05078e-16 -5.31068e-12 -2.1684e-19 -1.30104e-18 -2.22045e-16 0 0 0 1 0 0 0 0 0 0 0 0 0 0 0 0 21 0.0008 0 
9691 4 0.0139213 0.0551119 -0.0355 0 0 0 1.41722e-302 -7.55607e-20 2.36059e-12 -8.32906e-308 0 2.22045e-16 0 0 0 0 0 0 0 0 0 0 0 0 0 0 0 0 0 0.0008 0 
6540 8 0.00803816 0.0564619 -0.0354998 0 0 0 5.42515e-06 -9.53825e-07 -3.50313e-09 1.3486e-06 -2.60021e-07 -1.81349e-08 0 0 0 0 0 0 0 1 0 0 0 0 0 0 0 0 34 0.0008 0 
2565 7 0.00831904 0.0580136 -0.0355002 0 0 0 -5.6707e-06 1.04619e-06 -7.32313e-08 -1.35559e-06 2.28997e-07 -2.40593e-08 0 0 0 0 0 0 0 1 0 0 0 0 0 0 0 0 34 0.0008 0 
10198 9 0.00996332 0.0577268 -0.0354996 0 0 0 2.89163e-17 -2.00835e-17 3.54004e-12 0 -3.25261e-19 0 0 0 0 0 0 0 0 0 1 0 0 0 0 0 0 0 8 0.0008 0 
5323 6 0.0115254 0.0578273 -0.0355004 0 0 0 -9.21533e-17 1.9883e-17 3.53936e-12 -8.67362e-19 1.0842e-19 0 0 0 0 0 0 0 0 0 1 0 0 0 0 0 0 0 18 0.0008 0 
1583 3 0.0133939 0.0576781 -0.0355 0 0 0 -2.85942e-302 8.49807e-20 -5.89787e-12 9.53662e-308 -8.47033e-22 2.22045e-16 0 0 0 0 0 0 0 0 0 0 0 0 0 0 0 0 7 0.0008 0 
8195 2 0.0153322 0.0581073 -0.0355 0 0 0 -8.62963e-189 7.53191e-20 3.53502e-12 1.5106e-189 0 -2.22045e-16 0 0 0 0 0 0 0 0 0 0 0 0 0 0 0 0 0 0.0008 0 
7394 6 0.008966 0.0602751 -0.0355 0 0 0 -5.84975e-303 -8.48477e-20 -3.53503e-12 9.16694e-308 0 2.22045e-16 0 0 0 0 0 0 0 0 0 0 0 0 0 0 0 0 0 0.0008 0 
10333 5 0.0171216 0.0610101 -0.0355 0 0 0 -1.62054e-302 1.87957e-20 -1.18149e-12 -9.46445e-308 -8.47033e-22 -2.22045e-16 0 0 0 0 0 0 0 0 0 0 0 0 0 0 0 0 0 0.0008 0 
3089 3 0.0107013 0.0617455 -0.0355 0 0 0 1.74665e-13 2.67875e-13 2.35767e-12 -9.06217e-15 -2.21715e-14 2.22045e-16 0 0 0 0 0 0 0 0 0 0 0 0 0 0 0 0 0 0.0008 0 
3064 5 0.00572093 0.0664199 -0.0355 0 0 0 9.62195e-89 -8.47279e-20 3.53502e-12 -1.51477e-89 0 -2.22045e-16 0 0 0 0 0 0 0 0 0 0 0 0 0 0 0 0 0 0.0008 0 
7839 6 0.0122571 0.0669977 -0.0355 0 0 0 2.114e-302 -8.47206e-20 5.89792e-12 9.39212e-308 0 2.22045e-16 0 0 0 0 0 0 0 0 0 0 0 0 0 0 0 0 0 0.0008 0 
5230 4 0.00286312 0.0725739 -0.0355 0 0 0 -1.57137e-302 6.59071e-20 1.18142e-12 -9.18677e-308 8.47033e-22 -2.22045e-16 0 0 0 0 0 0 0 0 0 0 0 0 0 0 0 0 0 0.0008 0 
2130 11 0.0169239 0.0756724 -0.0354995 0 0 0 -5.02656e-16 -1.95299e-17 2.36174e-12 -6.93889e-18 -8.67362e-19 0 0 0 0 0 0 0 0 0 0 0 1 0 0 0 0 0 49 0.0008 0 
4708 6 0.0184173 0.0757548 -0.0355005 0 0 0 1.96635e-16 1.90973e-17 2.36157e-12 0 8.67362e-19 0 0 0 0 0 0 0 0 0 0 0 1 0 0 0 0 0 52 0.0008 0 
1962 1 0.00586685 0.0767893 -0.0355 0 0 0 9.11624e-28 -4.71299e-20 3.535e-12 -1.17851e-28 0 -2.22045e-16 0 0 0 0 0 0 0 0 0 0 0 0 0 0 0 0 3 0.0008 0 
5274 5 0.0152254 0.0938764 -0.0355 0 0 0 8.70132e-303 -5.65868e-20 -1.18142e-12 -9.37541e-308 0 -2.22045e-16 0 0 0 0 0 0 0 0 0 0 0 0 0 0 0 0 0 0.0008 0 
4524 1 0.0123763 0.053072 -0.0335691 0 0 0 1.56874 -3.98474 0.733885 0 -1.05196e-05 0 0 0 0 0 0 0 0 0 0 0 0 0 0 0 0 0 18 0.0008 0 
10906 1 0.00690673 0.0582886 -0.0337273 0 0 0 -4.01118 -0.88382 1.0511 0 -1.05196e-05 0 0 0 0 0 0 0 0 0 0 0 0 0 0 0 0 0 0 0.0008 0 
2046 1 0.0142442 0.0593512 -0.034172 0 0 0 -4.83018 -3.50131 1.87897 0 -1.05196e-05 0 0 0 0 0 0 0 0 0 0 0 0 0 0 0 0 0 20 0.0008 0 
9434 6 0.00832688 0.0642874 -0.0338421 0 0 0 -1.14334 2.50369 0.353472 0 -1.05196e-05 0 0 0 0 0 0 0 0 0 0 0 0 0 0 0 0 0 12 0.0008 0 