ITEM: TIMESTEP
14800000
ITEM: NUMBER OF ATOMS
1802
ITEM: BOX BOUNDS ff ff ff
-0.01 0.45
-0.15 0.15
-0.08 0.1
ITEM: ATOMS id type x y z ix iy iz vx vy vz fx fy fz c_cc_1 c_cc_2 c_cc_3 c_cc_4 c_cc_5 c_cc_6 c_cc_7 c_cc_8 c_cc_9 c_cc_10 c_cc_11 c_cc_12 c_cc_13 c_cc_14 c_cc_15 c_cc_16 f_fppacc radius 
328 5 0.0140607 -0.0516758 0.0262174 0 0 0 1.8696 6.66738 15.3555 0 -0.000164368 0 0 0 0 0 0 0 0 0 0 0 0 0 0 0 0 0 44 0.002 
936 2 0.00331738 -0.0172657 -0.0544651 0 0 0 0.416688 -18.5448 8.77516 0 -0.000164368 0 0 0 0 0 0 0 0 0 0 0 0 0 0 0 0 0 6 0.002 
1376 3 0.00624696 -0.0305965 0.0403902 0 0 0 0.0614461 -1.68773 0.338382 0 -0.000164368 0 0 0 0 0 0 0 0 0 0 0 0 0 0 0 0 0 40 0.002 
1834 5 0.00525834 -0.0169169 0.055288 0 0 0 -0.00711911 14.6179 3.251 -0.000194031 0.0449464 -0.0972869 0 0 0 0 0 0 0 0 0 0 0 0 0 0 0 0 1 0.002 
14 5 0.00588711 0.0140056 -0.0534578 0 0 0 0.382236 -22.3433 -1.71855 0 -0.000164368 0 0 0 0 0 0 0 0 0 0 0 0 0 0 0 0 0 97 0.002 
1027 1 0.0139203 0.0329363 -0.0364104 0 0 0 0.884474 -1.73946 0.334205 0 -0.000164368 0 0 0 0 0 0 0 0 0 0 0 0 0 0 0 0 0 98 0.002 
807 5 0.0113773 0.035673 -0.0070001 0 0 0 1.56548 0.646354 2.1744 0 -0.000164368 0 0 0 0 0 0 0 0 0 0 0 0 0 0 0 0 0 81 0.002 
676 1 0.00968267 0.0335715 0.00382683 0 0 0 0.716092 2.46069 -6.75491 0 -0.000164368 0 0 0 0 0 0 0 0 0 0 0 0 0 0 0 0 0 109 0.002 
25 3 0.0106672 0.018933 0.043825 0 0 0 0.19199 -1.36333 2.9411 0 -0.000164368 0 0 0 0 0 0 0 0 0 0 0 0 0 0 0 0 0 18 0.002 
1839 2 0.0129987 0.0169548 0.0485575 0 0 0 -0.106226 -2.40292 1.44493 0 -0.000164368 0 0 0 0 0 0 0 0 0 0 0 0 0 0 0 0 0 1 0.002 
41 1 0.0150883 0.0528537 -0.0355005 0 0 0 -1.2491e-16 -7.17096e-17 -2.52867e-12 -2.77556e-17 0 0 1 0 0 0 0 0 0 0 0 0 0 0 0 0 0 0 83 0.002 
480 3 0.0160599 0.0564787 -0.0354995 0 0 0 1.41267e-16 6.3158e-17 -2.52785e-12 1.38778e-17 0 0 1 0 0 0 0 0 0 0 0 0 0 0 0 0 0 0 125 0.002 
1707 1 0.0127425 0.0625868 -0.0355 0 0 0 -3.26768e-51 -1.01427e-19 3.37598e-12 5.1944e-51 0 0 0 0 0 0 0 0 0 0 0 0 0 0 0 0 0 0 0 0.002 
1040 3 0.00728931 0.0630667 -0.0321705 0 0 0 0.1213 -2.44189 -4.34911 0 -0.000164368 0 0 0 0 0 0 0 0 0 0 0 0 0 0 0 0 0 91 0.002 
1292 9 0.00591118 0.0585135 -0.0265529 0 0 0 1.1092 0.264538 1.11535 0 -0.000164368 0 0 0 0 0 0 0 0 0 0 0 0 0 0 0 0 0 66 0.002 
1809 5 0.0106011 0.0603764 -0.0265233 0 0 0 -3.94098 -1.10607 0.0719435 0 -0.000164368 0 0 0 0 0 0 0 0 0 0 0 0 0 0 0 0 0 0 0.002 
72 3 0.00871866 0.0660714 -0.0281523 0 0 0 2.51225 -0.735958 -3.01531 0 -0.000164368 0 0 0 0 0 0 0 0 0 0 0 0 0 0 0 0 0 128 0.002 
224 5 0.0135394 0.0626916 -0.0244263 0 0 0 1.17309 -4.53647 -1.05302 0 -0.000164368 0 0 0 0 0 0 0 0 0 0 0 0 0 0 0 0 0 132 0.002 
1537 11 0.00971743 0.0523155 -0.0192927 0 0 0 1.35288 -0.415969 0.205783 0 -0.000164368 0 0 0 0 0 0 0 0 0 0 0 0 0 0 0 0 0 24 0.002 
1564 1 0.0180213 0.0702881 -0.012816 0 0 0 -0.572004 -0.395346 0.753943 0 -0.000164368 0 0 0 0 0 0 0 0 0 0 0 0 0 0 0 0 0 28 0.002 
321 7 0.012401 0.0696956 -0.00847403 0 0 0 1.72195 2.14093 3.70326 0 -0.000164368 0 0 0 0 0 0 0 0 0 0 0 0 0 0 0 0 0 93 0.002 
254 10 0.00860586 0.0533345 -0.00840735 0 0 0 -2.01542 -0.934484 -3.73152 0 -0.000164368 0 0 0 0 0 0 0 0 0 0 0 0 0 0 0 0 0 122 0.002 
993 8 0.00676154 0.0538296 0.00188118 0 0 0 -3.53879 -4.84968 1.94528 0 -0.000164368 0 0 0 0 0 0 0 0 0 0 0 0 0 0 0 0 0 76 0.002 
1485 8 0.0137833 0.0743785 0.0036924 0 0 0 -1.20926 -0.871609 0.888964 0 -0.000164368 0 0 0 0 0 0 0 0 0 0 0 0 0 0 0 0 0 33 0.002 
597 6 0.00542787 0.0622754 0.00769142 0 0 0 -0.561339 0.196663 -1.78726 0 -0.000164368 0 0 0 0 0 0 0 0 0 0 0 0 0 0 0 0 0 105 0.002 
89 6 0.0186213 0.0509752 -0.025699 0 0 0 -1.65668 -1.1188 0.40941 0 -0.000164368 0 0 0 0 0 0 0 0 0 0 0 0 0 0 0 0 0 62 0.002 
1000 4 0.0154512 0.0723152 0.0121364 0 0 0 0.0681173 -0.389178 -0.858168 0 -0.000164368 0 0 0 0 0 0 0 0 0 0 0 0 0 0 0 0 0 100 0.002 
303 3 0.00320684 0.0722763 0.017745 0 0 0 0.0405218 -0.198565 -0.379941 0 -0.000164368 0 0 0 0 0 0 0 0 0 0 0 0 0 0 0 0 0 83 0.002 
1646 2 0.0147326 0.0725752 0.0183776 0 0 0 -0.853791 -0.0133335 0.0587423 0 -0.000164368 0 0 0 0 0 0 0 0 0 0 0 0 0 0 0 0 0 43 0.002 
917 8 0.00724085 0.0709616 0.0196027 0 0 0 0.275181 0.367578 -0.843058 0.094013 0.0443671 -0.0618054 0 0 0 0 0 0 0 1 0 0 0 0 0 0 0 0 99 0.002 
1461 2 0.0182746 0.0603278 0.0113996 0 0 0 10.759 6.47954 -23.387 0 -0.000164368 0 0 0 0 0 0 0 0 0 0 0 0 0 0 0 0 0 37 0.002 
1211 4 0.011952 0.064675 0.0230642 0 0 0 -0.352558 3.6967 -1.17619 0 -0.000164368 0 0 0 0 0 0 0 0 0 0 0 0 0 0 0 0 0 75 0.002 
298 9 0.0064662 0.0697513 0.0232823 0 0 0 0.606245 2.48172 -0.548543 0.300972 -0.0433625 -0.000341904 0 0 0 0 0 0 0 1 2 0 0 0 0 0 0 0 87 0.002 
1366 7 0.00586025 0.0592121 0.0240846 0 0 0 0.342992 -0.308964 -0.504535 0 -0.000164368 0 0 0 0 0 0 0 0 0 0 0 0 0 0 0 0 0 51 0.002 
1239 4 0.00949465 0.0675813 0.0246787 0 0 0 0.67101 4.62913 1.19826 0.04625 -0.0144522 0.000875464 0 0 0 0 0 0 0 0 1 0 0 0 0 0 0 0 58 0.002 
1631 1 0.0141842 0.0675912 0.025264 0 0 0 1.45325 4.01434 0.179944 -0.177319 -0.145445 -0.272302 1 0 0 0 0 0 0 0 0 0 0 0 0 0 0 0 24 0.002 
979 4 0.00284104 0.0708347 0.0237128 0 0 0 -0.171006 1.48324 -0.983818 0.582996 -0.107612 0.116998 0 0 0 0 0 0 0 0 1 0 0 0 0 0 0 0 71 0.002 
489 10 0.0103697 0.0721123 0.0237999 0 0 0 0.041169 -0.212212 -0.585641 -0.000107698 -0.000361319 7.01282e-05 0 0 0 0 0 0 0 0 0 1 0 0 0 0 0 0 113 0.002 
1498 5 0.0154314 0.0731455 0.0251054 0 0 0 -0.104741 0.0410314 -0.0395714 0 -0.000164368 0 0 0 0 0 0 0 0 0 0 0 0 0 0 0 0 0 61 0.002 
1250 6 0.00318319 0.0671757 0.025904 0 0 0 0.199597 -0.0424656 -0.357572 0 -0.000164368 0 0 0 0 0 0 0 0 0 0 0 0 0 0 0 0 0 74 0.002 
760 3 0.00687108 0.0692321 0.0273562 0 0 0 -0.00813717 0.0376704 -0.421079 0 -0.000164368 0 0 0 0 0 0 0 0 0 0 0 0 0 0 0 0 0 123 0.002 
195 7 0.0168317 0.0688365 0.0278394 0 0 0 -0.0152446 0.053665 0.346895 0.142893 0.116693 0.252113 1 0 0 0 0 0 1 0 0 0 0 0 0 0 0 0 119 0.002 
1492 8 0.00406121 0.0740175 0.0268843 0 0 0 0.0830963 -0.186343 -0.184016 0 -0.000164368 0 0 0 0 0 0 0 0 0 0 0 0 0 0 0 0 0 64 0.002 
1573 9 0.00804368 0.0590839 0.0292993 0 0 0 -0.97937 -0.576939 -0.881406 0 -0.000164368 0 0 0 0 0 0 0 0 0 0 0 0 0 0 0 0 0 14 0.002 
442 7 0.0147596 0.0641634 0.0290865 0 0 0 -0.285659 -0.16074 -0.108904 0 -0.000164368 0 0 0 0 0 0 0 0 0 0 0 0 0 0 0 0 0 90 0.002 
1347 4 0.012475 0.0674038 0.0299247 0 0 0 -0.341237 -0.27458 0.00605283 0 -0.000164368 0 0 0 0 0 0 0 0 0 0 0 0 0 0 0 0 0 60 0.002 
466 1 0.00314851 0.0700803 0.0290165 0 0 0 0.016449 -0.0771077 -0.0683316 0 -0.000164368 0 0 0 0 0 0 0 0 0 0 0 0 0 0 0 0 0 91 0.002 
451 1 0.0181258 0.0721851 0.0295552 0 0 0 -0.559984 -0.208479 0.050249 0.0603261 0.0161672 0.00381838 1 0 0 0 0 0 1 0 0 0 0 0 0 0 0 0 101 0.002 
336 9 0.00725532 0.0726668 0.0296101 0 0 0 0.126286 -0.118166 -0.0694989 0 -0.000164368 0 0 0 0 0 0 0 0 0 0 0 0 0 0 0 0 0 130 0.002 
1540 1 0.0142298 0.0728558 0.0289127 0 0 0 -0.0112875 -0.097242 0.0744457 0 -0.000164368 0 0 0 0 0 0 0 0 0 0 0 0 0 0 0 0 0 47 0.002 
1399 3 0.0101616 0.0635525 0.0302414 0 0 0 -0.025374 -0.374672 -0.140705 0 -0.000164368 0 0 0 0 0 0 0 0 0 0 0 0 0 0 0 0 0 72 0.002 
927 3 0.0172644 0.0668671 0.0318243 0 0 0 -0.187476 -0.124991 0.10427 0 -0.000164368 0 0 0 0 0 0 0 0 0 0 0 0 0 0 0 0 0 109 0.002 
505 2 0.0115362 0.0710858 0.0317041 0 0 0 -0.0989724 -0.0559266 -0.0631585 -0.000163777 -0.000430083 -0.000171788 0 1 0 0 0 0 0 0 0 0 0 0 0 0 0 0 115 0.002 
1617 10 0.00304224 0.0543615 0.0326945 0 0 0 0.0939374 -0.288927 -0.073582 0 -0.000164368 0 0 0 0 0 0 0 0 0 0 0 0 0 0 0 0 0 16 0.002 
369 6 0.0052288 0.0622284 0.0326835 0 0 0 -0.567488 0.306849 -0.235372 0 -0.000164368 0 0 0 0 0 0 0 0 0 0 0 0 0 0 0 0 0 103 0.002 
1222 3 0.013572 0.0644759 0.0329026 0 0 0 -0.103992 -0.247473 -0.0110282 0 -0.000164368 0 0 0 0 0 0 0 0 0 0 0 0 0 0 0 0 0 61 0.002 
933 1 0.00321553 0.0689939 0.0329757 0 0 0 0.0171146 0.0558873 0.0199245 0 -0.000164368 0 0 0 0 0 0 0 0 0 0 0 0 0 0 0 0 0 82 0.002 
704 9 0.00777996 0.0699527 0.0326206 0 0 0 -0.106751 -0.137318 -0.0745335 0 -0.000164368 0 0 0 0 0 0 0 0 0 0 0 0 0 0 0 0 0 109 0.002 
1312 4 0.0152932 0.0701628 0.0329633 0 0 0 -0.101687 -0.0464167 -0.0199497 0 -0.000164368 0 0 0 0 0 0 0 0 0 0 0 0 0 0 0 0 0 65 0.002 
1262 8 0.00453994 0.0730178 0.032904 0 0 0 0.0533392 -0.0362311 -0.0228601 0 -0.000164368 0 0 0 0 0 0 0 0 0 0 0 0 0 0 0 0 0 54 0.002 
1653 5 0.00825963 0.0747398 0.0328915 0 0 0 -0.0191995 -0.0810447 -0.0259947 0 -0.000164368 0 0 0 0 0 0 0 0 0 0 0 0 0 0 0 0 0 23 0.002 
1661 4 0.0129484 0.0746018 0.032982 0 0 0 -0.0145031 -0.11205 -0.0107359 0.000163777 0.000101347 0.000171788 0 1 0 0 0 0 0 0 0 0 0 0 0 0 0 0 20 0.002 
362 1 0.0171439 0.0738813 0.0330104 0 0 0 -0.19949 -0.0788276 0.0687392 -0.0231334 0.00276899 -0.00180185 1 0 0 0 0 0 0 0 0 0 0 0 0 0 0 0 59 0.002 
1849 1 0.00914828 0.0554097 0.0230227 0 0 0 1.92635 21.5384 -27.1221 0 -0.000164368 0 0 0 0 0 0 0 0 0 0 0 0 0 0 0 0 0 0 0.002 
1432 3 0.015041 0.0519255 0.0277877 0 0 0 5.50256 17.5758 -19.5574 0 -0.000164368 0 0 0 0 0 0 0 0 0 0 0 0 0 0 0 0 0 37 0.002 
1275 2 0.0109247 0.0900719 -0.0323596 0 0 0 -0.439363 -0.0838551 0.0608522 0 -0.000164368 0 0 0 0 0 0 0 0 0 0 0 0 0 0 0 0 0 64 0.002 
1825 8 0.003248 0.103815 -0.0328497 0 0 0 0.088987 -0.0952381 0.0161559 0 -0.000164368 0 0 0 0 0 0 0 0 0 0 0 0 0 0 0 0 0 0 0.002 
914 8 0.0149669 0.104043 -0.0327376 0 0 0 -0.808749 0.999976 -0.116386 0 -0.000164368 0 0 0 0 0 0 0 0 0 0 0 0 0 0 0 0 0 81 0.002 
317 11 0.00797967 0.107398 -0.0329463 0 0 0 0.232914 0.0155882 0.0143957 0 -0.000164368 0 0 0 0 0 0 0 0 0 0 0 0 0 0 0 0 0 108 0.002 
258 6 0.00304803 0.107915 -0.0330031 0 0 0 0.0283218 -0.0481637 0.0190082 -0.000293895 -0.000147812 0.00123363 0 0 0 0 0 0 0 0 0 0 0 0 0 0 0 0 77 0.002 
1644 1 0.0126967 0.0985211 -0.0314298 0 0 0 0.134602 0.180032 -0.222798 0 -0.000164368 0 0 0 0 0 0 0 0 0 0 0 0 0 0 0 0 0 24 0.002 
1063 3 0.0168901 0.0970586 -0.0307685 0 0 0 0.0477477 1.28918 0.630024 0 -0.000164368 0 0 0 0 0 0 0 0 0 0 0 0 0 0 0 0 0 79 0.002 
729 9 0.00312511 0.100905 -0.0293978 0 0 0 0.20818 -0.526206 0.0520187 0 -0.000164368 0 0 0 0 0 0 0 0 0 0 0 0 0 0 0 0 0 79 0.002 
208 9 0.0104177 0.101819 -0.0305128 0 0 0 -0.356183 -0.408827 0.236563 0 -0.000164368 0 0 0 0 0 0 0 0 0 0 0 0 0 0 0 0 0 21 0.002 
138 4 0.00378565 0.105707 -0.0292405 0 0 0 -0.136185 -0.0937013 0.0908048 0 -0.000164368 0 0 0 0 0 0 0 0 0 0 0 0 0 0 0 0 0 111 0.002 
674 10 0.0170418 0.107702 -0.0296544 0 0 0 -0.169334 0.506802 0.0666495 0 -0.000164368 0 0 0 0 0 0 0 0 0 0 0 0 0 0 0 0 0 107 0.002 
647 3 0.0109888 0.0954693 -0.0287255 0 0 0 -0.146126 0.309172 0.523794 0 -0.000164368 0 0 0 0 0 0 0 0 0 0 0 0 0 0 0 0 0 66 0.002 
1465 4 0.00712477 0.0970047 -0.0283264 0 0 0 0.0224706 -0.413525 -0.116668 0 -0.000164368 0 0 0 0 0 0 0 0 0 0 0 0 0 0 0 0 0 46 0.002 
1145 1 0.0155196 0.101147 -0.0283193 0 0 0 -0.645698 3.80794 0.39685 -0.21103 -0.0881009 0.108246 1 0 0 0 0 0 0 0 0 0 0 0 0 0 0 0 16 0.002 
1568 2 0.0183287 0.103746 -0.0291379 0 0 0 0.559326 0.391275 -0.353605 0.21103 0.0877721 -0.108246 1 0 0 0 0 0 0 0 0 0 0 0 0 0 0 0 31 0.002 
1143 7 0.00705199 0.107908 -0.0285277 0 0 0 -0.13412 -0.0432049 0.163041 0 -0.000164368 0 0 0 0 0 0 0 0 0 0 0 0 0 0 0 0 0 71 0.002 
882 3 0.00431778 0.0960176 -0.0256476 0 0 0 -0.0816564 -0.466319 0.14455 0.0014363 0.00219289 -0.00380015 0 0 1 0 0 0 0 0 0 0 0 0 0 0 0 0 90 0.002 
1334 15 0.0123286 0.0979342 -0.0256027 0 0 0 0.00115101 0.00080944 0.646785 0 -0.000164368 0 0 0 0 0 0 0 0 0 0 0 0 0 0 0 0 0 48 0.002 
1805 8 0.00752566 0.100372 -0.0259193 0 0 0 -0.0513447 -0.13526 0.313782 0 -0.000164368 0 0 0 0 0 0 0 0 0 0 0 0 0 0 0 0 0 1 0.002 
1200 1 0.00307592 0.102724 -0.0244365 0 0 0 0.0292821 -0.199343 0.475243 0 -0.000164368 0 0 0 0 0 0 0 0 0 0 0 0 0 0 0 0 0 78 0.002 
455 1 0.0117489 0.102263 -0.0252587 0 0 0 -0.577442 0.487705 0.718416 0 -0.000164368 0 0 0 0 0 0 0 0 0 0 0 0 0 0 0 0 0 91 0.002 
1324 2 0.0148652 0.107606 -0.0256369 0 0 0 -0.155272 0.0992311 0.173611 0 -0.000164368 0 0 0 0 0 0 0 0 0 0 0 0 0 0 0 0 0 37 0.002 
1691 1 0.00326287 0.107898 -0.025857 0 0 0 0.0757758 -0.0156471 0.112686 0 -0.000164368 0 0 0 0 0 0 0 0 0 0 0 0 0 0 0 0 0 8 0.002 
1130 6 0.00540467 0.080712 -0.0231112 0 0 0 0.133063 0.48533 2.05021 0 -0.000164368 0 0 0 0 0 0 0 0 0 0 0 0 0 0 0 0 0 65 0.002 
1333 1 0.016731 0.0910902 -0.0233557 0 0 0 0.831931 0.534747 -0.667858 0 -0.000164368 0 0 0 0 0 0 0 0 0 0 0 0 0 0 0 0 0 44 0.002 
598 1 0.00920346 0.0929633 -0.0222939 0 0 0 0.705657 0.0650307 0.565843 0 -0.000164368 0 0 0 0 0 0 0 0 0 0 0 0 0 0 0 0 0 134 0.002 
1833 4 0.00489173 0.0936427 -0.0224915 0 0 0 0.406841 -0.470513 0.0600686 -0.0014363 -0.00252162 0.00380015 0 0 1 0 0 0 0 0 0 0 0 0 0 0 0 0 1 0.002 
1319 2 0.0153404 0.103777 -0.024233 0 0 0 0.321556 -0.255103 -0.360522 0 -0.000164368 0 0 0 0 0 0 0 0 0 0 0 0 0 0 0 0 0 47 0.002 
137 1 0.00709042 0.106929 -0.0245039 0 0 0 -0.0718274 -0.152185 0.173274 0 -0.000164368 0 0 0 0 0 0 0 0 0 0 0 0 0 0 0 0 0 86 0.002 
1033 2 0.00504873 0.0870559 -0.0215172 0 0 0 0.117559 -0.121313 -0.266607 0 -0.000164368 0 0 0 0 0 0 0 0 0 0 0 0 0 0 0 0 0 87 0.002 
1619 3 0.0101673 0.0981062 -0.0215309 0 0 0 0.190469 -0.151382 0.99257 0 -0.000164368 0 0 0 0 0 0 0 0 0 0 0 0 0 0 0 0 0 38 0.002 
1679 7 0.0152136 0.0975557 -0.0209867 0 0 0 -1.49626 1.46718 -1.32735 0 -0.000164368 0 0 0 0 0 0 0 0 0 0 0 0 0 0 0 0 0 31 0.002 
1409 5 0.00862607 0.103117 -0.0219164 0 0 0 -0.141789 -0.226919 0.0608954 0 -0.000164368 0 0 0 0 0 0 0 0 0 0 0 0 0 0 0 0 0 47 0.002 
108 2 0.0067982 0.107256 -0.0204735 0 0 0 0.0387598 -0.109046 0.0988736 0 -0.000164368 0 0 0 0 0 0 0 0 0 0 0 0 0 0 0 0 0 106 0.002 
200 9 0.0106979 0.107041 -0.0218274 0 0 0 0.129104 -0.205004 0.184325 0 -0.000164368 0 0 0 0 0 0 0 0 0 0 0 0 0 0 0 0 0 53 0.002 
359 3 0.0159475 0.107557 -0.0216728 0 0 0 0.323258 -0.118452 -0.00601203 0 -0.000164368 0 0 0 0 0 0 0 0 0 0 0 0 0 0 0 0 0 112 0.002 
964 2 0.00304172 0.10799 -0.021791 0 0 0 0.0219559 0.0538625 0.137669 0 -0.000164368 0 0 0 0 0 0 0 0 0 0 0 0 0 0 0 0 0 77 0.002 
215 1 0.00447893 0.0807785 -0.0192177 0 0 0 -0.190448 0.0644022 -2.28184 0 -0.000164368 0 0 0 0 0 0 0 0 0 0 0 0 0 0 0 0 0 53 0.002 
397 3 0.00319013 0.0865136 -0.017977 0 0 0 0.103988 -0.291385 -0.234692 0 -0.000164368 0 0 0 0 0 0 0 0 0 0 0 0 0 0 0 0 0 99 0.002 
1306 4 0.00358783 0.0907947 -0.0181371 0 0 0 0.165825 -0.132223 0.467696 0 -0.000164368 0 0 0 0 0 0 0 0 0 0 0 0 0 0 0 0 0 55 0.002 
1199 14 0.00742587 0.0958337 -0.017266 0 0 0 -0.197092 0.446507 0.98509 0 -0.000164368 0 0 0 0 0 0 0 0 0 0 0 0 0 0 0 0 0 95 0.002 
116 1 0.00316867 0.0987632 -0.0195784 0 0 0 0.120485 -0.117159 0.0704851 0 -0.000164368 0 0 0 0 0 0 0 0 0 0 0 0 0 0 0 0 0 99 0.002 
1807 2 0.00692231 0.0999588 -0.0185095 0 0 0 -0.55866 0.400285 -0.0590887 0 -0.000164368 0 0 0 0 0 0 0 0 0 0 0 0 0 0 0 0 0 3 0.002 
1094 10 0.0180955 0.0987615 -0.0183 0 0 0 -0.563657 -0.662385 -0.49002 0 -0.000164368 0 0 0 0 0 0 0 0 0 0 0 0 0 0 0 0 0 80 0.002 
945 9 0.00302834 0.102794 -0.019773 0 0 0 0.146778 -0.0697926 0.379155 0 -0.000164368 0 0 0 0 0 0 0 0 0 0 0 0 0 0 0 0 0 65 0.002 
1601 2 0.00915754 0.103326 -0.0178841 0 0 0 0.0976852 0.450076 0.229963 0 -0.000164368 0 0 0 0 0 0 0 0 0 0 0 0 0 0 0 0 0 36 0.002 
2 6 0.00309583 0.106513 -0.0179385 0 0 0 -0.0786797 -0.063045 0.137283 0 -0.000164368 0 0 0 0 0 0 0 0 0 0 0 0 0 0 0 0 0 99 0.002 
1023 1 0.00901054 0.0801501 -0.0181582 0 0 0 -0.290422 0.248113 -2.97891 0 -0.000164368 0 0 0 0 0 0 0 0 0 0 0 0 0 0 0 0 0 93 0.002 
1698 1 0.00836216 0.0894528 -0.0168092 0 0 0 -2.91697 -0.568271 -3.98416 -0.472201 -0.231208 -1.04346 0 0 0 0 0 0 0 0 0 0 0 0 0 0 0 0 1 0.002 
523 2 0.00349399 0.0959162 -0.0164663 0 0 0 0.0523929 -0.0169365 0.327043 0 -0.000164368 0 0 0 0 0 0 0 0 0 0 0 0 0 0 0 0 0 94 0.002 
1218 8 0.0128672 0.0953906 -0.0166409 0 0 0 -0.456891 -0.345524 -0.179604 0 -0.000164368 0 0 0 0 0 0 0 0 0 0 0 0 0 0 0 0 0 91 0.002 
1259 7 0.00323396 0.100629 -0.0157809 0 0 0 -0.994577 -0.00935167 -0.121475 0 -0.000164368 0 0 0 0 0 0 0 0 0 0 0 0 0 0 0 0 0 52 0.002 
1482 1 0.0127179 0.103384 -0.0155558 0 0 0 -0.0733723 0.280515 0.218376 0.000270166 -0.000174899 7.374e-06 1 0 0 0 0 0 0 0 0 0 0 0 0 0 0 0 52 0.002 
622 4 0.0163655 0.104687 -0.0165043 0 0 0 0.094776 0.119312 -0.0704963 -0.000270166 -0.000153838 -7.374e-06 1 0 0 0 0 0 0 0 0 0 0 0 0 0 0 0 82 0.002 
1795 1 0.00871101 0.107342 -0.0158353 0 0 0 -0.204353 -0.0916735 0.0505724 0 -0.000164368 0 0 0 0 0 0 0 0 0 0 0 0 0 0 0 0 0 1 0.002 
1442 4 0.0132506 0.107542 -0.0163669 0 0 0 -0.118339 -0.118956 0.216439 0 -0.000164368 0 0 0 0 0 0 0 0 0 0 0 0 0 0 0 0 0 41 0.002 
1247 3 0.00320724 0.0791652 -0.015574 0 0 0 0.807268 0.075883 -1.55164 0 -0.000164368 0 0 0 0 0 0 0 0 0 0 0 0 0 0 0 0 0 56 0.002 
1404 1 0.0149823 0.077893 -0.0160191 0 0 0 1.3457 0.136074 -3.03714 0 -0.000164368 0 0 0 0 0 0 0 0 0 0 0 0 0 0 0 0 0 51 0.002 
888 1 0.00658244 0.0829435 -0.0153282 0 0 0 0.449656 -0.677243 -0.658166 0 -0.000164368 0 0 0 0 0 0 0 0 0 0 0 0 0 0 0 0 0 80 0.002 
1236 1 0.0106396 0.0853753 -0.0147445 0 0 0 1.10446 1.93857 -2.35792 0 -0.000164368 0 0 0 0 0 0 0 0 0 0 0 0 0 0 0 0 0 50 0.002 
710 2 0.0136701 0.0918579 -0.0141561 0 0 0 -1.41168 -0.0646063 -0.711183 0 -0.000164368 0 0 0 0 0 0 0 0 0 0 0 0 0 0 0 0 0 84 0.002 
1196 5 0.00741844 0.0997062 -0.0144713 0 0 0 -0.342622 0.284354 -0.0573165 0 -0.000164368 0 0 0 0 0 0 0 0 0 0 0 0 0 0 0 0 0 73 0.002 
508 9 0.0148066 0.0989953 -0.015085 0 0 0 -0.616105 0.0980524 0.581976 0 -0.000164368 0 0 0 0 0 0 0 0 0 0 0 0 0 0 0 0 0 122 0.002 
1787 1 0.00656034 0.103925 -0.014311 0 0 0 -0.163084 -0.00247 0.142382 0 -0.000164368 0 0 0 0 0 0 0 0 0 0 0 0 0 0 0 0 0 6 0.002 
1327 4 0.00392331 0.10767 -0.0133174 0 0 0 -0.00800096 -0.121292 0.0761178 0 -0.000164368 0 0 0 0 0 0 0 0 0 0 0 0 0 0 0 0 0 79 0.002 
1794 2 0.0113785 0.0758993 -0.0149293 0 0 0 -0.0649999 -0.852673 -3.90017 0 -0.000164368 0 0 0 0 0 0 0 0 0 0 0 0 0 0 0 0 0 0 0.002 
310 2 0.0098265 0.0800185 -0.0138807 0 0 0 0.828576 1.1222 -1.79793 0 -0.000164368 0 0 0 0 0 0 0 0 0 0 0 0 0 0 0 0 0 103 0.002 
1557 9 0.00323062 0.0899579 -0.0121774 0 0 0 -0.510333 0.97689 -0.821567 0 -0.000164368 0 0 0 0 0 0 0 0 0 0 0 0 0 0 0 0 0 29 0.002 
545 9 0.00325599 0.0963505 -0.0122605 0 0 0 0.054296 -0.111499 -0.00565861 -0.00136109 -0.000364692 -0.00380655 0 0 0 0 0 0 0 0 1 0 0 0 0 0 0 0 103 0.002 
16 3 0.00496923 0.0999006 -0.0112496 0 0 0 0.118652 -0.212336 0.189041 0.000993373 0.00134454 0.000413918 0 0 0 0 0 0 0 0 0 0 0 0 0 0 0 0 96 0.002 
1091 5 0.0112844 0.0986929 -0.0130797 0 0 0 0.00545298 0.0160059 -0.345692 0 -0.000164368 0 0 0 0 0 0 0 0 0 0 0 0 0 0 0 0 0 62 0.002 
1799 3 0.00303164 0.103147 -0.0125358 0 0 0 0.0691014 -0.148169 0.119334 -0.000993373 -0.00167328 -0.000413918 0 0 0 0 0 0 0 0 0 0 0 0 0 0 0 0 2 0.002 
60 4 0.0105023 0.104521 -0.0124019 0 0 0 -0.00862485 -0.0109484 0.192419 0 -0.000164368 0 0 0 0 0 0 0 0 0 0 0 0 0 0 0 0 0 104 0.002 
718 11 0.0179959 0.104327 -0.0124863 0 0 0 -0.193196 0.176758 0.340676 -0.00095934 0.000430763 -9.89214e-05 0 0 0 0 0 0 0 0 0 0 2 0 0 0 0 0 97 0.002 
844 6 0.0148584 0.106785 -0.0127781 0 0 0 -0.308631 0.200719 0.14351 0.00206615 -0.00196703 0.000178016 0 0 0 0 0 0 0 0 0 0 1 0 0 0 0 0 81 0.002 
1591 2 0.00814988 0.107853 -0.0117874 0 0 0 -0.0765563 0.00462711 0.0529014 0 -0.000164368 0 0 0 0 0 0 0 0 0 0 0 0 0 0 0 0 0 27 0.002 
780 8 0.00320996 0.0762097 -0.00973751 0 0 0 -0.271972 -1.04054 -1.16143 0 -0.000164368 0 0 0 0 0 0 0 0 0 0 0 0 0 0 0 0 0 35 0.002 
1658 1 0.0129492 0.0798689 -0.00934066 0 0 0 -1.47509 -0.45236 -0.314778 0 -0.000164368 0 0 0 0 0 0 0 0 0 0 0 0 0 0 0 0 0 26 0.002 
904 3 0.00579716 0.0851153 -0.0112624 0 0 0 0.209584 -0.727222 -1.83357 0 -0.000164368 0 0 0 0 0 0 0 0 0 0 0 0 0 0 0 0 0 41 0.002 
179 1 0.00981882 0.0904494 -0.0136226 0 0 0 -4.99798 9.80691 -6.00074 0.472201 0.23088 1.04346 0 0 0 0 0 0 0 0 0 0 0 0 0 0 0 0 80 0.002 
309 1 0.00655103 0.0902416 -0.00992163 0 0 0 -0.121431 0.0530561 -1.25884 0 -0.000164368 0 0 0 0 0 0 0 0 0 0 0 0 0 0 0 0 0 111 0.002 
929 3 0.00325103 0.093642 -0.00921552 0 0 0 0.105654 0.0255042 -0.133961 -0.000529534 0.00671346 0.000293506 0 0 1 0 0 0 0 0 0 0 0 0 0 0 0 0 82 0.002 
900 1 0.00999558 0.0923616 -0.0100491 0 0 0 -0.192403 0.0558086 -0.732322 -0.000479152 0.00252825 -0.000472373 1 0 0 0 0 0 0 0 0 0 0 0 0 0 0 0 83 0.002 
987 4 0.0170939 0.0928795 -0.00900462 0 0 0 0.432473 1.83378 -0.406436 -0.100349 -0.0533001 0.0143846 0 0 0 1 0 0 0 0 0 0 0 0 0 0 0 0 74 0.002 
1704 4 0.00310308 0.0976087 -0.00847918 0 0 0 -0.281501 0.0944904 -0.00292822 0.00648519 0.00209305 0.00451758 0 0 0 1 0 0 0 0 1 0 0 0 0 0 0 0 21 0.002 
434 14 0.0091158 0.0962135 -0.00935038 0 0 0 -0.019626 0.231977 -0.178456 0 -0.000164368 0 0 0 0 0 0 0 0 0 0 0 0 0 0 0 0 0 100 0.002 
1192 2 0.0165801 0.0973641 -0.00963861 0 0 0 -0.0559709 0.400451 -0.655752 0 -0.000164368 0 0 0 0 0 0 0 0 0 0 0 0 0 0 0 0 0 76 0.002 
978 1 0.00886552 0.100955 -0.0105348 0 0 0 0.100922 -0.0736384 -0.0205355 0 -0.000164368 0 0 0 0 0 0 0 0 0 0 0 0 0 0 0 0 0 64 0.002 
1826 4 0.00646317 0.103867 -0.00905891 0 0 0 0.09535 -0.0356165 0.0968275 -0.00170098 -0.00365902 -0.00369838 0 0 0 2 0 0 0 0 0 0 0 0 0 0 0 0 3 0.002 
693 8 0.0136666 0.103407 -0.0101859 0 0 0 -0.00736515 -0.197679 0.106298 0 -0.000164368 0 0 0 0 0 0 0 0 0 0 0 0 0 0 0 0 0 93 0.002 
230 6 0.00300819 0.105865 -0.00932502 0 0 0 0.0474297 -0.0338939 0.0629766 0.00195528 0.0127391 -0.0082252 0 0 0 1 0 1 0 0 0 0 0 0 0 0 0 0 95 0.002 
889 1 0.0153621 0.106985 -0.00877785 0 0 0 -0.0998387 -0.0325792 0.138744 0.000215204 -0.000440811 -0.00639772 2 0 0 0 0 0 0 0 0 0 0 0 0 0 0 0 73 0.002 
961 1 0.0114815 0.107988 -0.00953206 0 0 0 -0.0974386 0.0730794 0.136017 0 -0.000164368 0 0 0 0 0 0 0 0 0 0 0 0 0 0 0 0 0 59 0.002 
1297 6 0.00490931 0.0835746 -0.00698943 0 0 0 -2.96812 -0.545566 -1.5375 0.0699257 -0.0717349 -0.00858639 0 0 0 0 0 1 0 0 0 0 0 0 0 0 0 0 67 0.002 
1448 13 0.00861946 0.0824358 -0.00931499 0 0 0 -2.73502 -1.18828 -3.74831 0 -0.000164368 0 0 0 0 0 0 0 0 0 0 0 0 0 0 0 0 0 60 0.002 
1197 5 0.0167549 0.088575 -0.00824576 0 0 0 0.0801652 1.35331 -2.16814 0 -0.000164368 0 0 0 0 0 0 0 0 0 0 0 0 0 0 0 0 0 66 0.002 
680 6 0.00306392 0.0899776 -0.0076466 0 0 0 0.0997649 -0.0375698 -0.346507 0.000529534 -0.0070422 -0.000293506 0 0 1 0 0 0 0 0 0 0 0 0 0 0 0 0 116 0.002 
1673 6 0.00997058 0.0890729 -0.00778386 0 0 0 0.169659 -0.151234 -1.00634 0.000479152 -0.00285699 0.000472373 1 0 0 0 0 0 0 0 0 0 0 0 0 0 0 0 23 0.002 
620 1 0.0121366 0.0946895 -0.00697472 0 0 0 -0.477661 0.928424 -0.844031 -0.00486278 0.0133289 -0.0039822 0 0 0 0 0 0 0 0 0 0 0 0 0 0 0 0 68 0.002 
541 6 0.0062578 0.0964028 -0.00635244 0 0 0 0.0449157 -0.0420224 -0.182892 -0.0051241 -0.00222146 -0.00071103 0 0 0 1 0 0 0 0 0 0 0 0 0 0 0 0 100 0.002 
1817 2 0.0140005 0.0982443 -0.00633751 0 0 0 0.608495 0.737602 -0.00640775 -0.0288423 -0.045146 0.0122542 0 1 0 0 0 0 0 0 0 0 0 0 0 0 0 0 1 0.002 
182 2 0.00657545 0.100401 -0.00632515 0 0 0 -0.102763 0.287175 -0.185792 -0.000674305 0.018723 -0.0245927 0 1 0 0 0 0 0 0 0 0 0 0 0 0 0 0 109 0.002 
836 4 0.00309577 0.102393 -0.00737382 0 0 0 0.00701383 -0.0897856 -0.0267103 0.000400706 0.000876136 0.00603008 0 0 0 1 0 1 0 0 0 0 0 0 0 0 0 0 104 0.002 
1100 2 0.0111759 0.101232 -0.007247 0 0 0 -0.0113494 0.0909424 0.0668175 0.0144543 0.0133544 -0.012954 0 1 0 0 0 0 0 0 0 0 0 0 0 0 0 0 60 0.002 
399 3 0.0165793 0.10101 -0.00758696 0 0 0 -0.14974 0.294076 0.113512 0.0288423 0.0448172 -0.0122542 0 1 0 0 0 0 0 0 0 0 0 0 0 0 0 0 102 0.002 
1730 4 0.00965092 0.105081 -0.00696585 0 0 0 -0.0706036 -0.125548 0.0884208 0 -0.000164368 0 0 0 0 0 0 0 0 0 0 0 0 0 0 0 0 0 1 0.002 
744 1 0.0142443 0.104092 -0.00626371 0 0 0 -0.0214357 -0.070337 0.164811 0.000483053 -0.00223064 0.00169108 0 0 0 0 0 0 0 0 0 0 0 0 0 0 0 0 82 0.002 
803 4 0.0062595 0.107969 -0.00826386 0 0 0 0.0951432 -0.0922315 0.161116 0 -0.000164368 0 0 0 0 0 0 0 0 0 0 0 0 0 0 0 0 0 79 0.002 
1195 2 0.00299269 0.0864068 -0.00504345 0 0 0 0.112736 1.30553 -1.10281 -0.0708365 0.0710896 0.00891371 0 0 0 0 0 1 0 0 0 0 0 0 0 0 0 0 56 0.002 
21 8 0.0130576 0.0871152 -0.00570483 0 0 0 0.882628 0.347063 -1.54192 0 -0.000164368 0 0 0 0 0 0 0 0 0 0 0 0 0 0 0 0 0 111 0.002 
342 4 0.0171267 0.0913295 -0.00420826 0 0 0 0.693921 0.125019 -0.396422 -0.0199531 -0.0192819 0.0056805 0 0 0 1 0 0 0 0 0 0 0 0 0 0 0 0 94 0.002 
756 2 0.00675596 0.0923567 -0.00560122 0 0 0 0.200233 0.088726 -0.798478 0 -0.000164368 0 0 0 0 0 0 0 0 0 0 0 0 0 0 0 0 0 99 0.002 
1814 5 0.00304599 0.0944665 -0.00477967 0 0 0 -0.006857 0.103266 0.0667444 0 -0.000164368 0 0 0 0 0 0 0 0 0 0 0 0 0 0 0 0 0 0 0.002 
377 4 0.0163915 0.095458 -0.00395451 0 0 0 0.264922 0.269046 -0.140705 0 -0.000164368 0 0 0 0 0 0 0 0 0 0 0 0 0 0 0 0 0 102 0.002 
416 5 0.0100226 0.0979939 -0.00523583 0 0 0 0.0519936 0.0564846 -0.294167 -0.0143233 -0.0100628 0.00852962 0 1 0 0 1 0 0 0 0 0 0 0 0 0 0 0 124 0.002 
525 1 0.0030036 0.0993083 -0.00484875 0 0 0 -0.0645249 0.0915511 0.141387 -0.00597018 -0.0178785 0.00526558 1 0 0 1 0 0 0 0 0 0 0 0 0 0 0 0 91 0.002 
1341 3 0.0182226 0.102862 -0.00444202 0 0 0 0.148007 0.278592 0.0625465 -0.0007683 0.000172264 0.00013593 0 0 2 0 0 0 0 0 0 0 0 0 0 0 0 0 61 0.002 
1444 3 0.00579787 0.105114 -0.00532598 0 0 0 0.130789 -0.0412623 0.125273 0.00327846 0.00218294 -0.000712828 0 0 2 1 0 0 0 0 0 0 0 0 0 0 0 0 52 0.002 
916 8 0.00300679 0.107965 -0.00589931 0 0 0 0.0143932 -0.0741279 0.000558354 0.000224212 0.000776351 -0.00506948 0 0 0 0 0 0 0 1 0 0 0 0 0 0 0 0 93 0.002 
213 4 0.0129175 0.108001 -0.0057886 0 0 0 -0.0845823 0.00584613 0.0898782 -0.000941595 0.00112031 0.00421301 1 0 0 0 0 0 0 0 0 0 0 0 0 0 0 0 93 0.002 
998 5 0.0177398 0.107983 -0.00555076 0 0 0 -0.110232 0.138596 0.0256232 0 -0.000164368 0 0 0 0 0 0 0 0 0 0 0 0 0 0 0 0 0 70 0.002 
1558 2 0.00570933 0.0839329 -0.00277003 0 0 0 0.533316 0.531784 -0.658146 0 -0.000164368 0 0 0 0 0 0 0 0 0 0 0 0 0 0 0 0 0 43 0.002 
1513 1 0.00748844 0.0881751 -0.00416859 0 0 0 0.41989 2.26554 -1.58422 0 -0.000164368 0 0 0 0 0 0 0 0 0 0 0 0 0 0 0 0 0 27 0.002 
1230 3 0.003005 0.0900929 -0.00339864 0 0 0 0.0644266 0.0492835 -0.145119 0 -0.000164368 0 0 0 0 0 0 0 0 0 0 0 0 0 0 0 0 0 36 0.002 
1243 1 0.0096835 0.0934117 -0.00283405 0 0 0 0.422519 0.755391 -1.23756 0 -0.000164368 0 0 0 0 0 0 0 0 0 0 0 0 0 0 0 0 0 45 0.002 
1331 1 0.0131122 0.0919012 -0.00430762 0 0 0 0.626636 0.777127 -1.33193 0.00486278 -0.0136577 0.0039822 0 0 0 0 0 0 0 0 0 0 0 0 0 0 0 0 39 0.002 
1233 1 0.00319816 0.0969644 -0.00161611 0 0 0 0.0898942 0.0225171 0.0830029 -0.00123636 -0.0119865 -0.000415362 1 0 0 0 0 0 0 0 0 0 0 0 0 0 0 0 60 0.002 
835 12 0.00672915 0.0983949 -0.00291023 0 0 0 -0.0395665 0.13032 -0.132921 -0.00643175 -0.00743103 -0.00217771 0 1 0 0 0 0 0 0 0 0 0 3 0 0 0 0 101 0.002 
288 1 0.0128898 0.100404 -0.00229806 0 0 0 0.0422292 -0.0716017 0.177452 -0.00301641 0.0026431 0.00234978 2 0 0 0 0 0 0 0 0 0 0 0 0 0 0 0 96 0.002 
871 2 0.0166335 0.09939 -0.00325594 0 0 0 -0.00941481 0.296633 -0.0948986 0.00371023 -0.00290476 -0.00209342 1 0 1 0 0 0 0 0 0 0 0 0 0 0 0 0 72 0.002 
357 7 0.00299085 0.103035 -0.00340447 0 0 0 -0.00986013 -0.0194595 0.0206967 0.0131025 0.00579339 0.00223136 1 0 1 0 0 0 1 0 0 0 0 0 0 0 0 0 94 0.002 
1584 1 0.00922037 0.101486 -0.00345737 0 0 0 0.0580395 -0.152193 0.176735 -0.0021541 6.85316e-06 -0.000862391 1 0 0 0 0 0 0 0 0 0 0 0 0 0 0 0 33 0.002 
692 7 0.00667584 0.103953 -0.00160367 0 0 0 -0.00131522 -0.132922 0.134689 0.000269927 -0.000836542 4.39921e-05 1 0 1 0 0 0 1 0 0 0 0 0 0 0 0 0 128 0.002 
531 1 0.0112012 0.104984 -0.00326973 0 0 0 -0.0749481 -0.0721691 0.113259 0 -0.000164368 0 0 0 0 0 0 0 0 0 0 0 0 0 0 0 0 0 105 0.002 
1727 1 0.0150279 0.103996 -0.00232013 0 0 0 0.0174279 -0.144153 0.16485 0.000746613 -3.58885e-05 -0.000354909 0 0 1 0 0 0 0 0 0 0 0 0 0 0 0 0 18 0.002 
1068 4 0.00365505 0.10686 -0.00211958 0 0 0 -0.066388 -0.0672545 0.0122697 -0.000687067 -0.00238531 0.00141564 0 0 0 0 0 0 0 1 0 0 0 0 0 0 0 0 74 0.002 
1657 8 0.00778866 0.107897 -0.00274687 0 0 0 -0.0325512 -0.0477137 0.0101579 0 -0.000164368 0 0 0 0 0 0 0 0 0 0 0 0 0 0 0 0 0 23 0.002 
154 5 0.0151732 0.107995 -0.00247854 0 0 0 0.0518778 -0.0676781 0.0294036 0.00568003 -0.00116083 -0.00301181 0 0 0 0 1 0 0 0 0 0 0 0 0 0 0 0 59 0.002 
668 7 0.0151537 0.0823804 0.000315687 0 0 0 -1.01428 1.85739 0.442527 0 -0.000164368 0 0 0 0 0 0 0 0 0 0 0 0 0 0 0 0 0 70 0.002 
1651 3 0.00307582 0.0864036 -0.00102677 0 0 0 0.620488 0.943747 -0.179228 0 -0.000164368 0 0 0 0 0 0 0 0 0 0 0 0 0 0 0 0 0 11 0.002 
886 5 0.0139561 0.0875466 -0.00168669 0 0 0 -1.64256 0.538054 -1.40152 0 -0.000164368 0 0 0 0 0 0 0 0 0 0 0 0 0 0 0 0 0 70 0.002 
767 5 0.0103732 0.0896694 -0.00147628 0 0 0 1.25691 0.803779 -1.13776 0 -0.000164368 0 0 0 0 0 0 0 0 0 0 0 0 0 0 0 0 0 93 0.002 
910 15 0.00300256 0.0927696 0.000455082 0 0 0 0.091479 0.334639 -0.462021 0 -0.000164368 0 0 0 0 0 0 0 0 0 0 0 0 0 0 0 0 0 79 0.002 
645 2 0.00669757 0.0955199 -0.000152876 0 0 0 0.337736 0.108884 -0.176621 -0.00677476 -0.0157293 0.00721525 0 2 0 0 0 0 0 0 0 0 0 1 0 0 0 0 100 0.002 
931 4 0.0130922 0.0946923 -0.000127864 0 0 0 0.140254 0.546703 -0.280144 0.00357493 -0.00517158 0.00534622 0 0 0 1 0 0 0 0 0 0 0 0 0 0 0 0 69 0.002 
784 7 0.0101541 0.0971025 -0.00134875 0 0 0 0.136989 0.467841 -0.195454 0.00277054 -0.00282982 0.00338264 0 1 0 1 1 0 1 0 0 0 0 1 0 0 0 0 88 0.002 
1696 5 0.0162996 0.097119 6.28292e-05 0 0 0 0.35561 0.44467 0.180812 0 -0.000164368 0 0 0 0 0 0 0 0 0 0 0 0 0 0 0 0 0 33 0.002 
536 2 0.00439866 0.100615 -0.000559723 0 0 0 -0.0186285 0.0293765 0.0788179 0.000898991 0.000414949 0.00630174 1 1 0 0 0 0 1 0 0 0 0 1 0 0 0 0 89 0.002 
1804 2 0.00994968 0.101935 0.000481852 0 0 0 0.0943775 0.219572 0.00407408 0.00231543 -0.00627987 -0.00259404 0 1 0 0 0 0 0 0 0 0 0 0 0 0 0 0 4 0.002 
1816 4 0.0155541 0.101167 0.000574996 0 0 0 0.143672 -0.00584376 0.158285 0.000574823 -0.00134008 0.00175272 1 0 0 3 0 0 0 0 0 0 0 0 0 0 0 0 5 0.002 
1119 4 0.00301027 0.104119 0.000736499 0 0 0 0.00841695 -0.00770551 0.152476 -0.000270355 0.00588669 0.00252176 0 1 0 1 0 0 0 0 0 0 0 0 0 0 0 0 81 0.002 