ITEM: TIMESTEP
4500000
ITEM: NUMBER OF ATOMS
545
ITEM: BOX BOUNDS ff ff ff
-0.01 0.45
-0.15 0.15
-0.08 0.1
ITEM: ATOMS id type x y z ix iy iz vx vy vz fx fy fz c_cc_1 c_cc_2 c_cc_3 c_cc_4 c_cc_5 c_cc_6 c_cc_7 c_cc_8 c_cc_9 c_cc_10 c_cc_11 c_cc_12 c_cc_13 c_cc_14 c_cc_15 c_cc_16 f_fppacc radius 
104 1 0.00569287 -0.0423589 -0.0393801 0 0 0 2.38737 -10.4134 11.8292 -0.0615632 0.284093 0.240237 0 0 0 0 0 0 0 0 0 0 0 0 0 0 0 0 3 0.002 
433 9 0.00846558 -0.057841 -0.00220068 0 0 0 0.314998 -0.76899 17.9618 -0.00357944 0.60965 -0.0344126 0 0 0 0 0 0 0 0 0 0 0 0 0 0 0 0 0 0.002 
361 3 0.00447578 -0.0423063 0.0369259 0 0 0 7.87743 24.0131 22.4689 0 -0.000164368 0 0 0 0 0 0 0 0 0 0 0 0 0 0 0 0 0 1 0.002 
373 7 0.00537672 -0.0279208 -0.0497521 0 0 0 0.621021 -8.18672 8.66496 0 -0.000164368 0 0 0 0 0 0 0 0 0 0 0 0 0 0 0 0 0 0 0.002 
551 10 0.0117099 -0.0124287 0.0562653 0 0 0 9.42389 36.1175 7.70975 0 -0.000164368 0 0 0 0 0 0 0 0 0 0 0 0 0 0 0 0 0 0 0.002 
432 4 0.00488364 0.033004 -0.00845774 0 0 0 0.40699 -0.859496 0.985302 0 -0.000164368 0 0 0 0 0 0 0 0 0 0 0 0 0 0 0 0 0 0 0.002 
139 6 0.00586035 0.0341948 6.17061e-06 0 0 0 0.857931 -3.8836 4.29798 0 -0.000164368 0 0 0 0 0 0 0 0 0 0 0 0 0 0 0 0 0 6 0.002 
534 13 0.0150599 0.0293669 0.015553 0 0 0 2.31528 2.04418 -2.03252 0 -0.000164368 0 0 0 0 0 0 0 0 0 0 0 0 0 0 0 0 0 0 0.002 
386 1 0.0145762 0.0122869 0.0565983 0 0 0 -7.55059 27.2389 -4.44071 0.65097 -0.172656 -0.683601 0 0 0 0 0 0 0 0 0 0 0 0 0 0 0 0 1 0.002 
420 3 0.0123949 0.0405115 -0.0410374 0 0 0 1.4852 -6.21869 -5.93962 0 -0.000164368 0 0 0 0 0 0 0 0 0 0 0 0 0 0 0 0 0 1 0.002 
41 1 0.0151326 0.0528516 -0.0355 0 0 0 0 1.0163e-19 -6.16522e-12 0 -1.35525e-20 0 0 0 0 0 0 0 0 0 0 0 0 0 0 0 0 0 1 0.002 
517 2 0.0117834 0.0728146 -0.0226711 0 0 0 -6.09886 -0.235207 3.76547 0 -0.000164368 0 0 0 0 0 0 0 0 0 0 0 0 0 0 0 0 0 0 0.002 
521 6 0.0123638 0.0724856 -0.0121103 0 0 0 -0.170291 4.32778 6.781 0 -0.000164368 0 0 0 0 0 0 0 0 0 0 0 0 0 0 0 0 0 0 0.002 
548 4 0.0104411 0.0416845 -0.000197654 0 0 0 1.66483 -4.98501 4.21805 0 -0.000164368 0 0 0 0 0 0 0 0 0 0 0 0 0 0 0 0 0 0 0.002 
54 6 0.00369051 0.0496812 0.00959396 0 0 0 -3.28142 -2.65503 0.79141 0 -0.000164368 0 0 0 0 0 0 0 0 0 0 0 0 0 0 0 0 0 1 0.002 
537 1 0.0144096 0.0616773 0.0151087 0 0 0 0.3161 -0.797899 1.79377 0 -0.000164368 0 0 0 0 0 0 0 0 0 0 0 0 0 0 0 0 0 0 0.002 
172 5 0.0178239 0.068145 0.0188062 0 0 0 0.277127 -2.03173 0.784009 0 -0.000164368 0 0 0 0 0 0 0 0 0 0 0 0 0 0 0 0 0 5 0.002 
204 7 0.00305589 0.0738828 0.0212234 0 0 0 0.218447 -0.333625 -0.334172 0 -0.000164368 0 0 0 0 0 0 0 0 0 0 0 0 0 0 0 0 0 4 0.002 
463 9 0.0094629 0.0573266 0.0214788 0 0 0 -5.35334 26.4467 -31.5458 0 -0.000164368 0 0 0 0 0 0 0 0 0 0 0 0 0 0 0 0 0 0 0.002 
86 6 0.00318767 0.0695463 0.0221338 0 0 0 -0.254079 -0.00202377 -0.416569 0 -0.000164368 0 0 0 0 0 0 0 0 0 0 0 0 0 0 0 0 0 3 0.002 
183 9 0.0067427 0.0517081 0.0243873 0 0 0 -2.67227 -1.2161 -2.34531 0 -0.000164368 0 0 0 0 0 0 0 0 0 0 0 0 0 0 0 0 0 7 0.002 
316 2 0.0175286 0.0637239 0.0278381 0 0 0 -0.258467 -1.18852 0.192931 0 -0.000164368 0 0 0 0 0 0 0 0 0 0 0 0 0 0 0 0 0 6 0.002 
249 4 0.00306604 0.0723431 0.0278811 0 0 0 -0.335709 0.0573959 -0.314551 0 -0.000164368 0 0 0 0 0 0 0 0 0 0 0 0 0 0 0 0 0 5 0.002 
333 2 0.00733343 0.0728137 0.0272676 0 0 0 -0.242992 -0.339063 -0.371255 0.000145936 0.000134288 0.00113292 0 1 0 0 0 0 0 0 0 0 0 0 0 0 0 0 3 0.002 
189 5 0.0136332 0.0616455 0.028527 0 0 0 -0.138498 -1.92539 -0.132189 0 -0.000164368 0 0 0 0 0 0 0 0 0 0 0 0 0 0 0 0 0 4 0.002 
391 4 0.0112822 0.0708536 0.0280924 0 0 0 0.533435 0.707901 -0.715885 0 -0.000164368 0 0 0 0 0 0 0 0 0 0 0 0 0 0 0 0 0 6 0.002 
188 6 0.00323684 0.0575547 0.0308036 0 0 0 0.0799724 -0.432124 0.305654 0 -0.000164368 0 0 0 0 0 0 0 0 0 0 0 0 0 0 0 0 0 7 0.002 
179 1 0.00406595 0.0671667 0.0311886 0 0 0 0.0327398 0.466305 -0.839231 0 -0.000164368 0 0 0 0 0 0 0 0 0 0 0 0 0 0 0 0 0 5 0.002 
118 2 0.0109908 0.0664788 0.0317537 0 0 0 2.20763 -0.609965 1.63054 0 -0.000164368 0 0 0 0 0 0 0 0 0 0 0 0 0 0 0 0 0 2 0.002 
241 6 0.00631955 0.0727767 0.0311334 0 0 0 -0.194656 -0.121525 -0.289313 -0.000145936 -0.000463024 -0.00113292 0 1 0 0 0 0 0 0 0 0 0 0 0 0 0 0 6 0.002 
345 6 0.0151381 0.0733516 0.0315789 0 0 0 -0.156495 -0.345616 -0.53133 0 -0.000164368 0 0 0 0 0 0 0 0 0 0 0 0 0 0 0 0 0 4 0.002 
475 2 0.0154521 0.0635165 0.0329577 0 0 0 0.776258 -1.25732 -0.128314 0 -0.000164368 0 0 0 0 0 0 0 0 0 0 0 0 0 0 0 0 0 0 0.002 
377 4 0.00305933 0.0711514 0.0327926 0 0 0 -0.331523 0.357415 -0.0563613 0.00567634 -0.0462528 0.0197357 0 0 0 1 0 0 0 0 0 0 0 0 0 0 0 0 6 0.002 
173 3 0.0105137 0.0724833 0.0329609 0 0 0 0.055282 -0.371814 0.0355366 0 -0.000164368 0 0 0 0 0 0 0 0 0 0 0 0 0 0 0 0 0 3 0.002 
87 8 0.00842186 0.0397518 0.0406754 0 0 0 -11.6826 -1.18652 -22.221 -0.399359 -0.970161 -0.0309547 0 0 0 0 0 0 0 1 0 0 0 0 0 0 0 0 5 0.002 
299 1 0.00886011 0.0428855 0.0394725 0 0 0 -2.79889 14.1965 -19.7197 0.518311 -4.9016 -1.63156 0 0 0 0 0 0 0 1 0 0 0 0 0 0 0 0 2 0.002 
532 8 0.00476168 0.108058 -0.0321199 0 0 0 0.85099 -0.0100072 0.675089 -0.0108703 -0.21645 -0.0125286 0 0 0 0 0 0 0 0 0 0 0 0 0 0 0 0 0 0.002 
291 1 0.0102384 0.0777048 -0.0314341 0 0 0 1.02673 -2.85893 0.352305 0 -0.000164368 0 0 0 0 0 0 0 0 0 0 0 0 0 0 0 0 0 5 0.002 
539 8 0.0134704 0.0923508 -0.0306046 0 0 0 0.222421 -2.41613 -1.72302 0 -0.000164368 0 0 0 0 0 0 0 0 0 0 0 0 0 0 0 0 0 0 0.002 
308 1 0.00603442 0.097998 -0.0304972 0 0 0 0.654316 -0.552042 1.43026 0 -0.000164368 0 0 0 0 0 0 0 0 0 0 0 0 0 0 0 0 0 7 0.002 
92 2 0.0123121 0.105185 -0.0273879 0 0 0 1.52313 0.626268 1.17085 -0.00674687 0.00795128 -0.00369143 0 1 0 0 0 0 0 0 0 0 0 0 0 0 0 0 3 0.002 
492 4 0.00964131 0.107723 -0.0288939 0 0 0 0.502835 -0.336614 -0.0298893 0.00674687 -0.00828002 0.00369143 0 1 0 0 0 0 0 0 0 0 0 0 0 0 0 0 1 0.002 
546 1 0.0106732 0.107048 -0.0221703 0 0 0 -2.56063 -1.07822 3.18084 0 -0.000164368 0 0 0 0 0 0 0 0 0 0 0 0 0 0 0 0 0 0 0.002 
543 1 0.00883927 0.106226 -0.0163788 0 0 0 -1.02948 -0.806756 2.3326 0 -0.000164368 0 0 0 0 0 0 0 0 0 0 0 0 0 0 0 0 0 0 0.002 
95 5 0.0170844 0.103322 -0.0141317 0 0 0 -0.870429 -0.978826 0.0563641 0 -0.000164368 0 0 0 0 0 0 0 0 0 0 0 0 0 0 0 0 0 6 0.002 
455 1 0.0157258 0.091055 -0.0128826 0 0 0 -0.803297 1.20168 -0.913347 0 -0.000164368 0 0 0 0 0 0 0 0 0 0 0 0 0 0 0 0 0 3 0.002 
510 9 0.0103857 0.0940621 -0.00798704 0 0 0 1.01119 0.779286 -0.0263255 0 -0.000164368 0 0 0 0 0 0 0 0 0 0 0 0 0 0 0 0 0 1 0.002 
303 3 0.00405141 0.0973909 -0.00632402 0 0 0 0.100209 -0.39356 0.218424 0 -0.000164368 0 0 0 0 0 0 0 0 0 0 0 0 0 0 0 0 0 3 0.002 
410 6 0.0183392 0.0784169 -0.00256472 0 0 0 2.90564 -4.20802 7.0696 0 -0.000164368 0 0 0 0 0 0 0 0 0 0 0 0 0 0 0 0 0 2 0.002 
2 6 0.0135921 0.0921255 -0.00292569 0 0 0 0.769371 -1.45598 2.62074 0 -0.000164368 0 0 0 0 0 0 0 0 0 0 0 0 0 0 0 0 0 1 0.002 
378 2 0.0169744 0.0796969 0.00146438 0 0 0 3.80907 -8.21831 -0.0992236 0 -0.000164368 0 0 0 0 0 0 0 0 0 0 0 0 0 0 0 0 0 1 0.002 
288 1 0.0113957 0.103295 0.00908129 0 0 0 1.22615 -1.42443 -0.828786 0 -0.000164368 0 0 0 0 0 0 0 0 0 0 0 0 0 0 0 0 0 2 0.002 
253 2 0.0125418 0.0764422 0.0133573 0 0 0 1.26948 1.57551 -3.82114 0 -0.000164368 0 0 0 0 0 0 0 0 0 0 0 0 0 0 0 0 0 3 0.002 
402 1 0.00816652 0.0763527 0.0165909 0 0 0 2.37009 -2.80565 8.53625 0 -0.000164368 0 0 0 0 0 0 0 0 0 0 0 0 0 0 0 0 0 3 0.002 
383 6 0.00368671 0.0776489 0.0155937 0 0 0 0.568798 -0.106945 -0.246498 0 -0.000164368 0 0 0 0 0 0 0 0 0 0 0 0 0 0 0 0 0 1 0.002 
125 10 0.0154402 0.0936226 0.0156109 0 0 0 0.809203 0.0966073 -0.0406113 0 -0.000164368 0 0 0 0 0 0 0 0 0 0 0 0 0 0 0 0 0 8 0.002 
123 8 0.00647156 0.0889457 0.0206557 0 0 0 6.34789 4.3004 -0.354365 0 -0.000164368 0 0 0 0 0 0 0 0 0 0 0 0 0 0 0 0 0 7 0.002 
199 4 0.00328509 0.1035 0.0200554 0 0 0 0.0318297 -0.384148 0.0697467 0 -0.000164368 0 0 0 0 0 0 0 0 0 0 0 0 0 0 0 0 0 7 0.002 
321 7 0.00888621 0.105346 0.020655 0 0 0 -0.131091 -0.430747 -0.0941605 0 -0.000164368 0 0 0 0 0 0 0 0 0 0 0 0 0 0 0 0 0 1 0.002 
533 4 0.0151683 0.107 0.0209905 0 0 0 -0.329103 -0.399868 -0.0842785 0 -0.000164368 0 0 0 0 0 0 0 0 0 0 0 0 0 0 0 0 0 0 0.002 
459 5 0.00472795 0.0769535 0.0232578 0 0 0 -0.336298 -0.0365966 -0.166108 0 -0.000164368 0 0 0 0 0 0 0 0 0 0 0 0 0 0 0 0 0 1 0.002 
84 8 0.0141226 0.0959689 0.021536 0 0 0 -0.026185 -0.24128 -0.406857 0 -0.000164368 0 0 0 0 0 0 0 0 0 0 0 0 0 0 0 0 0 2 0.002 
416 5 0.00903679 0.0983122 0.0234981 0 0 0 0.12016 -0.569955 0.118666 0 -0.000164368 0 0 0 0 0 0 0 0 0 0 0 0 0 0 0 0 0 2 0.002 
479 9 0.00475398 0.107533 0.0221469 0 0 0 -0.00235349 -0.0970935 -0.0659514 0 -0.000164368 0 0 0 0 0 0 0 0 0 0 0 0 0 0 0 0 0 0 0.002 
343 2 0.00305184 0.0805268 0.0257172 0 0 0 0.0696351 0.387569 -0.522264 0 -0.000164368 0 0 0 0 0 0 0 0 0 0 0 0 0 0 0 0 0 0 0.002 
426 3 0.00524355 0.0906128 0.0242152 0 0 0 -0.132598 0.886672 0.359008 -0.000702425 -0.00328996 -0.00113832 0 0 0 0 0 0 0 0 0 0 0 0 0 0 0 0 3 0.002 
490 2 0.0102915 0.0909932 0.0244064 0 0 0 -0.0741049 -0.407947 0.112268 0 -0.000164368 0 0 0 0 0 0 0 0 0 0 0 0 0 0 0 0 0 0 0.002 
540 4 0.0137438 0.0998768 0.0243242 0 0 0 0.200939 -0.3802 -0.326116 0 -0.000164368 0 0 0 0 0 0 0 0 0 0 0 0 0 0 0 0 0 0 0.002 
133 1 0.0103857 0.102556 0.0249827 0 0 0 0.306154 -0.253785 0.163534 0 -0.000164368 0 0 0 0 0 0 0 0 0 0 0 0 0 0 0 0 0 6 0.002 
513 4 0.0178897 0.101005 0.024038 0 0 0 0.196084 -0.402256 -0.0812306 0 -0.000164368 0 0 0 0 0 0 0 0 0 0 0 0 0 0 0 0 0 0 0.002 
112 6 0.00334059 0.106117 0.0256172 0 0 0 0.0561801 -0.122349 -0.0819115 0 -0.000164368 0 0 0 0 0 0 0 0 0 0 0 0 0 0 0 0 0 4 0.002 
332 2 0.015056 0.10575 0.0249072 0 0 0 0.297499 -0.0963644 0.578448 0 -0.000164368 0 0 0 0 0 0 0 0 0 0 0 0 0 0 0 0 0 8 0.002 
310 2 0.00308556 0.0763995 0.0276191 0 0 0 -0.514574 -0.153413 0.0284011 0 -0.000164368 0 0 0 0 0 0 0 0 0 0 0 0 0 0 0 0 0 2 0.002 
524 5 0.0074432 0.0802781 0.0264852 0 0 0 1.05605 -1.95689 1.14471 -0.0273947 -0.000795817 0.037362 0 0 0 0 2 0 0 0 0 0 0 0 0 0 0 0 4 0.002 
415 4 0.0120994 0.0813375 0.0259832 0 0 0 4.49423 -1.68975 1.53856 -0.0108331 -0.0186438 0.0155845 0 0 0 1 0 0 0 0 0 0 0 0 0 0 0 0 3 0.002 
468 8 0.00702693 0.0841288 0.0258742 0 0 0 1.60483 -1.16633 1.04395 -0.084775 0.080599 -0.668131 0 0 0 0 1 0 0 1 0 0 0 0 0 0 0 0 4 0.002 
140 4 0.0146636 0.0855824 0.0263635 0 0 0 2.12333 2.78428 0.931921 0 -0.000164368 0 0 0 0 0 0 0 0 0 0 0 0 0 0 0 0 0 3 0.002 
434 14 0.00354996 0.0873091 0.0271957 0 0 0 2.83614 1.55509 0.0348849 0 -0.000164368 0 0 0 0 0 0 0 0 0 0 0 0 0 0 0 0 0 0 0.002 
477 2 0.00993772 0.086983 0.0266139 0 0 0 -1.00575 0.271496 -0.293806 0.00699256 -0.00456508 -0.00124332 0 0 0 0 0 0 0 0 0 0 0 0 0 0 0 0 0 0.002 
441 3 0.00635577 0.0932149 0.0270114 0 0 0 0.270646 1.14603 0.359823 0.0535607 -0.030034 -0.0525468 0 0 2 0 0 0 0 0 0 0 0 0 0 0 0 0 2 0.002 
277 5 0.00526782 0.0972601 0.0277448 0 0 0 0.0188997 -0.181511 0.118136 -0.000931205 -0.00112568 0.000857375 0 0 0 0 1 0 0 0 0 0 0 0 0 0 0 0 2 0.002 
424 5 0.0117864 0.0966872 0.026075 0 0 0 0.155156 -0.226374 0.00343473 0 -0.000164368 0 0 0 0 0 0 0 0 0 0 0 0 0 0 0 0 0 4 0.002 
261 1 0.00323873 0.100448 0.0258668 0 0 0 0.0430152 -0.263312 -0.162999 0 -0.000164368 0 0 0 0 0 0 0 0 0 0 0 0 0 0 0 0 0 3 0.002 
444 3 0.00837744 0.0997166 0.0272557 0 0 0 0.0409927 -0.157837 -0.018213 0.000931205 0.000796939 -0.000857375 0 0 0 0 1 0 0 0 0 0 0 0 0 0 0 0 2 0.002 
454 2 0.0168075 0.0995318 0.0277054 0 0 0 0.152363 -0.0199819 0.175062 -0.000168048 0.00453684 -0.0061631 0 1 0 0 0 0 0 0 0 0 0 0 0 0 0 0 6 0.002 
229 6 0.00636343 0.103272 0.027107 0 0 0 0.0485098 -0.217614 -0.0270451 0 -0.000164368 0 0 0 0 0 0 0 0 0 0 0 0 0 0 0 0 0 5 0.002 
278 11 0.00993269 0.10782 0.0264603 0 0 0 0.153447 -0.06024 -0.190076 0 -0.000164368 0 0 0 0 0 0 0 0 0 0 0 0 0 0 0 0 0 1 0.002 
262 3 0.0182761 0.107916 0.0262133 0 0 0 0.244335 -0.038111 -0.0851093 0 -0.000164368 0 0 0 0 0 0 0 0 0 0 0 0 0 0 0 0 0 2 0.002 
286 14 0.00920192 0.0757559 0.0294214 0 0 0 -0.0650498 -0.497179 -0.174044 0 -0.000164368 0 0 0 0 0 0 0 0 0 0 0 0 0 0 0 0 0 6 0.002 
419 10 0.00600247 0.0783108 0.0296529 0 0 0 -0.172933 -0.466456 0.306183 -0.00354844 -0.0334284 -0.0546288 0 0 0 0 1 0 0 0 0 1 0 0 0 0 0 0 5 0.002 
440 5 0.0146159 0.078012 0.0283793 0 0 0 -0.477509 -1.1404 -0.00668585 0 -0.000164368 0 0 0 0 0 0 0 0 0 0 0 0 0 0 0 0 0 1 0.002 
144 9 0.0111455 0.0797833 0.0295002 0 0 0 1.98944 -2.9249 1.544 -0.0842526 0.000887798 -0.177078 0 0 0 1 0 0 0 0 2 0 0 0 0 0 0 0 7 0.002 
418 1 0.0034929 0.0828556 0.0297057 0 0 0 -0.00399054 -1.90432 -0.247124 0.0083295 -0.0349835 -0.0601552 1 0 0 0 0 0 0 0 0 0 0 0 0 0 0 0 6 0.002 
274 4 0.00848067 0.0837381 0.0293151 0 0 0 -0.450642 0.524471 2.74927 0.0766841 0.0322325 0.175638 0 0 0 1 0 0 0 1 0 0 0 0 0 0 0 0 5 0.002 
290 2 0.00784658 0.087728 0.0299317 0 0 0 -0.252521 0.384188 0.109525 0.025788 -0.00568596 -0.0837335 0 1 0 0 0 0 0 0 0 0 0 0 0 0 0 0 5 0.002 
465 4 0.00300814 0.0900218 0.0301138 0 0 0 -0.212568 1.4205 2.08628 0.0242908 -0.0399349 -0.0261231 0 0 0 1 0 0 0 0 0 0 0 0 0 0 0 0 4 0.002 
305 5 0.0029655 0.0938288 0.0289199 0 0 0 0.168354 0.329412 0.541891 -0.00684822 -0.0250811 -0.0172501 0 0 1 1 1 0 0 0 0 0 0 0 0 0 0 0 8 0.002 
206 6 0.00838621 0.0953114 0.0296907 0 0 0 0.692048 1.25624 0.274903 -0.034185 0.0209332 -0.231813 0 0 1 0 0 2 0 0 0 0 0 0 0 0 0 0 4 0.002 
313 1 0.0129211 0.0950063 0.0297136 0 0 0 0.0429483 -0.190039 -0.027484 0 -0.000164368 0 0 0 0 0 0 0 0 0 0 0 0 0 0 0 0 0 2 0.002 
401 3 0.0169269 0.0959496 0.0294598 0 0 0 -0.113756 -0.110664 -0.0905961 0.000168048 -0.00486558 0.0061631 0 1 0 0 0 0 0 0 0 0 0 0 0 0 0 0 1 0.002 
207 2 0.0125395 0.0996651 0.0287813 0 0 0 0.159645 -0.188958 -0.0856167 0 -0.000164368 0 0 0 0 0 0 0 0 0 0 0 0 0 0 0 0 0 3 0.002 
300 1 0.00299701 0.103144 0.0293754 0 0 0 -0.0214373 -0.12939 -0.0324633 0.00415237 0.00169334 0.000927073 0 0 0 0 0 0 0 0 0 0 0 0 0 0 0 0 2 0.002 
480 3 0.00944045 0.104849 0.0298954 0 0 0 0.242665 -0.100618 -0.0983914 -0.0140089 0.00148502 -0.00156925 0 0 1 0 0 0 0 0 0 0 0 0 0 0 0 0 3 0.002 
451 1 0.0130992 0.103984 0.0285705 0 0 0 0.177837 -0.198707 0.0314522 0.0140089 -0.00181375 0.00156925 0 0 1 0 0 0 0 0 0 0 0 0 0 0 0 0 2 0.002 
245 1 0.0169877 0.104666 0.029497 0 0 0 0.282303 -0.131051 -0.000626466 0 -0.000164368 0 0 0 0 0 0 0 0 0 0 0 0 0 0 0 0 0 2 0.002 
417 1 0.00357281 0.107841 0.0297145 0 0 0 0.106909 -0.0363183 -0.00205886 0 -0.000164368 0 0 0 0 0 0 0 0 0 0 0 0 0 0 0 0 0 2 0.002 
208 9 0.0142108 0.107979 0.0287058 0 0 0 0.1328 -0.0240015 0.00235399 0 -0.000164368 0 0 0 0 0 0 0 0 0 0 0 0 0 0 0 0 0 7 0.002 
70 6 0.00319212 0.0792591 0.0324494 0 0 0 -0.628935 -0.0635055 0.880945 0 -0.000164368 0 0 0 0 0 0 0 0 0 0 0 0 0 0 0 0 0 4 0.002 
344 1 0.0174231 0.0849018 0.0323336 0 0 0 0.256139 -0.314255 -0.0552174 0 -0.000164368 0 0 0 0 0 0 0 0 0 0 0 0 0 0 0 0 0 9 0.002 
224 5 0.0162693 0.0898837 0.0314463 0 0 0 0.162173 -0.183597 -0.0233548 0 -0.000164368 0 0 0 0 0 0 0 0 0 0 0 0 0 0 0 0 0 9 0.002 
404 6 0.00643396 0.0917858 0.0313408 0 0 0 -0.00261997 -0.169657 0.0751616 3.83705e-06 -0.00016533 -3.47182e-08 0 0 0 0 0 0 0 0 0 0 0 0 0 0 0 0 4 0.002 
16 3 0.00301425 0.0971284 0.0310657 0 0 0 -0.222774 0.220016 0.404679 -0.0291873 0.0616314 0.0438715 0 0 1 0 1 0 0 0 0 0 0 0 0 0 0 0 8 0.002 
334 2 0.00688122 0.0991546 0.0309349 0 0 0 0.0245623 -0.141498 0.0652495 0.000415441 0.00258135 -0.000231592 0 0 0 0 0 0 0 0 0 0 0 0 0 0 0 0 2 0.002 
73 3 0.0148996 0.101436 0.0315672 0 0 0 -0.0393701 -0.080204 0.0250601 0 -0.000164368 0 0 0 0 0 0 0 0 0 0 0 0 0 0 0 0 0 2 0.002 
337 8 0.00300375 0.0751234 0.0329895 0 0 0 -0.0366625 -0.133393 -0.0952198 -0.00567634 0.045924 -0.0197357 0 0 0 0 0 0 0 1 0 0 0 0 0 0 0 0 10 0.002 
231 7 0.0068563 0.0763839 0.0329872 0 0 0 -0.0562122 -0.396184 0.404253 0.0171383 -0.0336227 0.0564666 0 0 0 0 0 0 0 0 0 1 0 0 0 0 0 0 5 0.002 
5 3 0.0123281 0.0761754 0.0326049 0 0 0 0.109004 -0.309334 -0.136158 0 -0.000164368 0 0 0 0 0 0 0 0 0 0 0 0 0 0 0 0 0 1 0.002 
355 5 0.0162885 0.0782982 0.0329819 0 0 0 -0.0220649 -0.0710295 -0.0316057 0 -0.000164368 0 0 0 0 0 0 0 0 0 0 0 0 0 0 0 0 0 4 0.002 
29 5 0.00862796 0.0801245 0.0325074 0 0 0 -0.651082 0.192023 0.515579 0.0581751 -0.0111809 0.0166935 0 0 0 0 1 0 0 0 1 0 0 0 0 0 0 0 7 0.002 
131 7 0.0127786 0.0810299 0.0328037 0 0 0 0.275828 -0.11986 1.69799 0.101097 0.0120343 0.155311 0 0 0 0 0 0 0 0 1 0 0 0 0 0 0 0 5 0.002 
331 7 0.0069504 0.0837218 0.0328742 0 0 0 0.145624 -0.224255 0.842413 -0.0422902 -0.0297257 0.442782 0 0 0 1 1 0 0 0 0 0 0 0 0 0 0 0 7 0.002 
105 3 0.0030595 0.084898 0.0330332 0 0 0 -0.0539832 -0.576113 -0.448487 -0.00594677 0.0162403 0.0270721 1 0 0 0 0 0 0 0 0 0 0 0 0 0 0 0 6 0.002 
293 1 0.0107708 0.0850463 0.0328763 0 0 0 0.158913 -0.198341 0.0855426 0 -0.000164368 0 0 0 0 0 0 0 0 0 0 0 0 0 0 0 0 0 10 0.002 
389 5 0.00549081 0.0882828 0.0330334 0 0 0 -0.239058 0.0073711 0.294909 0.00586134 0.0007833 -0.050573 0 1 0 0 0 0 0 0 0 0 0 0 0 0 0 0 3 0.002 
457 6 0.00977419 0.090338 0.0329972 0 0 0 0.0780783 -0.0828773 -0.00598759 -3.83705e-06 -0.000163406 3.47182e-08 0 0 0 0 0 0 0 0 0 0 0 0 0 0 0 0 1 0.002 
453 3 0.00305772 0.093183 0.032981 0 0 0 0.0332947 -0.0881649 -0.0213078 0 -0.000164368 0 0 0 0 0 0 0 0 0 0 0 0 0 0 0 0 0 0 0.002 
483 1 0.0132381 0.0924227 0.0329594 0 0 0 0.0654007 0.00828995 -0.0265238 0 -0.000164368 0 0 0 0 0 0 0 0 0 0 0 0 0 0 0 0 0 2 0.002 
149 7 0.0180364 0.0933525 0.0328601 0 0 0 -0.0182555 0.0620985 0.210204 0 -0.000164368 0 0 0 0 0 0 0 0 0 0 0 0 0 0 0 0 0 13 0.002 
121 2 0.00626272 0.0957964 0.0330092 0 0 0 0.00452025 -0.0785171 0.118956 0.00575793 0.0138938 -0.000557607 0 0 0 0 0 1 0 0 0 0 0 0 0 0 0 0 5 0.002 
460 2 0.0102704 0.0951675 0.0330679 0 0 0 0.668736 0.440054 0.6531 -0.0260516 -0.0349997 -0.151433 0 0 0 0 0 1 0 0 0 0 0 0 0 0 0 0 6 0.002 
130 1 0.0150688 0.0960676 0.0330002 0 0 0 0.0150217 -0.0403125 -0.0115671 0.000169152 -7.4128e-05 0.000383436 0 0 0 0 0 0 0 0 0 0 0 0 0 0 0 0 1 0.002 
309 1 0.00365991 0.100569 0.0329713 0 0 0 0.0221121 -0.0590721 -0.0155534 0.015913 0.0218422 0.0130462 0 0 1 0 0 0 0 0 0 0 0 0 0 0 0 0 5 0.002 
216 2 0.0117689 0.0993418 0.0329689 0 0 0 -0.0586714 -0.124389 0.0374251 0 -0.000164368 0 0 0 0 0 0 0 0 0 0 0 0 0 0 0 0 0 5 0.002 
443 1 0.0184175 0.100022 0.0329662 0 0 0 0.030466 -0.0840704 0.0795915 -0.00113762 0.000582682 -0.000299283 1 0 0 0 0 0 0 0 0 0 0 0 0 0 0 0 4 0.002 
200 9 0.00872031 0.102152 0.03298 0 0 0 0.0229114 -0.0390733 -0.0112315 0 -0.000164368 0 0 0 0 0 0 0 0 0 0 0 0 0 0 0 0 0 5 0.002 
393 11 0.0121886 0.104471 0.0328794 0 0 0 0.0767525 -0.0371993 -0.00445221 0 -0.000164368 0 0 0 0 0 0 0 0 0 0 0 0 0 0 0 0 0 3 0.002 
108 2 0.00651509 0.106607 0.0325385 0 0 0 0.176296 -0.126219 -0.120784 0 -0.000164368 0 0 0 0 0 0 0 0 0 0 0 0 0 0 0 0 0 5 0.002 
60 4 0.0151116 0.107723 0.0327718 0 0 0 0.122862 -0.0124489 -0.0419527 0 -0.000164368 0 0 0 0 0 0 0 0 0 0 0 0 0 0 0 0 0 3 0.002 
254 10 0.0102917 0.107997 0.0328583 0 0 0 0.182651 0.0290837 0.00385573 0 -0.000164368 0 0 0 0 0 0 0 0 0 0 0 0 0 0 0 0 0 8 0.002 
458 3 0.039455 -0.00117459 0.0896715 0 0 0 -0.0627732 -1.4821 0.394413 0 -0.000164368 0 0 0 0 0 0 0 0 0 0 0 0 0 0 0 0 0 1 0.002 
116 1 0.0262355 0.0233896 0.0268272 0 0 0 1.20417 -1.39386 1.90881 0 -0.000164368 0 0 0 0 0 0 0 0 0 0 0 0 0 0 0 0 0 3 0.002 
270 1 0.0202991 0.0512015 -0.0355 0 0 0 2.22516e-308 -8.04937e-20 3.36607e-12 -0 0 0 0 0 0 0 0 0 0 0 0 0 0 0 0 0 0 0 0 0.002 
79 1 0.0426491 0.0514531 -0.0355079 0 0 0 3.63508e-16 2.12279e-15 2.75462e-13 -2.22045e-16 0 0 1 0 0 0 0 0 0 0 0 0 0 0 0 0 0 0 2 0.002 
127 3 0.0250769 0.0534114 -0.0355 0 0 0 0 2.01892e-20 3.36615e-12 0 0 0 0 0 0 0 0 0 0 0 0 0 0 0 0 0 0 0 2 0.002 
45 4 0.0454191 0.0535532 -0.0354921 0 0 0 -2.56962e-16 -2.16672e-15 2.85575e-13 2.22045e-16 0 0 1 0 0 0 0 0 0 0 0 0 0 0 0 0 0 0 4 0.002 
276 4 0.033445 0.0547355 -0.0355 0 0 0 2.10699e-124 1.01538e-19 -5.06146e-12 -2.04704e-124 0 0 0 0 0 0 0 0 0 0 0 0 0 0 0 0 0 0 0 0.002 
48 3 0.0235033 0.057327 -0.0355 0 0 0 9.63529e-98 -1.59821e-19 6.72682e-12 -1.75527e-98 0 0 0 0 0 0 0 0 0 0 0 0 0 0 0 0 0 0 0 0.002 
52 2 0.0282373 0.058442 -0.0355 0 0 0 -1.36649e-307 3.04475e-19 4.47982e-12 1.2255e-307 0 0 0 0 0 0 0 0 0 0 0 0 0 0 0 0 0 0 0 0.002 
351 1 0.0418462 0.0566895 -0.0355 0 0 0 0 2.23183e-19 3.92796e-12 1.44916e-306 -1.35525e-20 0 0 0 0 0 0 0 0 0 0 0 0 0 0 0 0 0 0 0.002 
39 3 0.0456632 0.0647333 -0.0355 0 0 0 1.14971e-97 6.08665e-20 -2.24229e-12 -7.77122e-98 0 3.55271e-15 0 0 0 0 0 0 0 0 0 0 0 0 0 0 0 0 0 0.002 
9 6 0.0357149 0.0670668 -0.0298384 0 0 0 2.81756 0.334484 -0.380998 0 -0.000164368 0 0 0 0 0 0 0 0 0 0 0 0 0 0 0 0 0 7 0.002 
496 2 0.0218866 0.0730195 -0.02942 0 0 0 -2.36014 -1.73842 0.81677 0 -0.000164368 0 0 0 0 0 0 0 0 0 0 0 0 0 0 0 0 0 0 0.002 
324 5 0.0422526 0.0526578 -0.027878 0 0 0 1.38596 -0.710892 0.287072 0 -0.000164368 0 0 0 0 0 0 0 0 0 0 0 0 0 0 0 0 0 3 0.002 
240 1 0.0463862 0.0698958 -0.0147516 0 0 0 0.771626 -3.40813 3.71472 0 -0.000164368 0 0 0 0 0 0 0 0 0 0 0 0 0 0 0 0 0 2 0.002 
141 5 0.0366373 0.0491583 -0.00881811 0 0 0 14.8219 -9.5151 13.6975 0 -0.000164368 0 0 0 0 0 0 0 0 0 0 0 0 0 0 0 0 0 9 0.002 
552 8 0.0389544 0.0642437 0.00179184 0 0 0 -1.04127 -3.39203 22.9169 0 -0.000164368 0 0 0 0 0 0 0 0 0 0 0 0 0 0 0 0 0 0 0.002 
370 4 0.0222997 0.0741413 0.00752188 0 0 0 1.40839 0.678568 2.79842 0 -0.000164368 0 0 0 0 0 0 0 0 0 0 0 0 0 0 0 0 0 5 0.002 
499 2 0.0202209 0.0698947 0.00838236 0 0 0 -2.3952 0.291846 -0.638627 0 -0.000164368 0 0 0 0 0 0 0 0 0 0 0 0 0 0 0 0 0 0 0.002 
146 9 0.047426 0.0389808 0.013414 0 0 0 7.90813e-06 26.828 -77.9616 1.00958e-07 -2.61252 -0.899015 0 0 0 0 0 0 0 0 0 0 0 0 0 0 0 0 0 0.002 
541 6 0.019531 0.0547046 0.0123867 0 0 0 -0.237762 -1.26813 0.268616 0 -0.000164368 0 0 0 0 0 0 0 0 0 0 0 0 0 0 0 0 0 0 0.002 
390 4 0.0464724 0.0529513 0.0146112 0 0 0 33.0752 26.5509 -93.755 -0.727651 -0.431741 0.891706 0 0 0 0 0 0 0 0 0 0 0 0 0 0 0 0 2 0.002 
263 2 0.0196929 0.064192 0.0148133 0 0 0 0.133429 -0.761515 -0.335509 0 -0.000164368 0 0 0 0 0 0 0 0 0 0 0 0 0 0 0 0 0 2 0.002 
544 2 0.0219718 0.0692316 0.0175638 0 0 0 1.19627 -3.03983 2.86106 0 -0.000164368 0 0 0 0 0 0 0 0 0 0 0 0 0 0 0 0 0 0 0.002 
250 5 0.02443 0.0595697 0.0204098 0 0 0 0.349817 -0.863603 0.714465 0 -0.000164368 0 0 0 0 0 0 0 0 0 0 0 0 0 0 0 0 0 11 0.002 
178 10 0.0199697 0.0468497 0.023163 0 0 0 0.203212 -2.1856 0.0619038 0 -0.000164368 0 0 0 0 0 0 0 0 0 0 0 0 0 0 0 0 0 4 0.002 
380 3 0.0274548 0.0532662 0.0215287 0 0 0 -1.80109 -3.22302 -0.137315 0 -0.000164368 0 0 0 0 0 0 0 0 0 0 0 0 0 0 0 0 0 0 0.002 
74 5 0.0254945 0.0590667 0.0249946 0 0 0 -0.460777 -1.97745 0.0903593 0 -0.000164368 0 0 0 0 0 0 0 0 0 0 0 0 0 0 0 0 0 2 0.002 
237 10 0.0218021 0.0613886 0.0274962 0 0 0 -1.15799 -0.778291 0.175592 0 -0.000164368 0 0 0 0 0 0 0 0 0 0 0 0 0 0 0 0 0 5 0.002 
474 8 0.0263735 0.0688802 0.0268903 0 0 0 0.312966 -0.652951 -0.543811 0 -0.000164368 0 0 0 0 0 0 0 0 0 0 0 0 0 0 0 0 0 0 0.002 
225 4 0.0275683 0.0736063 0.026809 0 0 0 0.0744822 -0.242027 -0.381364 0 -0.000164368 0 0 0 0 0 0 0 0 0 0 0 0 0 0 0 0 0 2 0.002 
487 3 0.0320411 0.0743281 0.0278054 0 0 0 0.907649 -1.77801 0.813522 0 -0.000164368 0 0 0 0 0 0 0 0 0 0 0 0 0 0 0 0 0 1 0.002 
159 2 0.029792 0.0482022 0.0284846 0 0 0 -2.01621 -2.77135 -1.66631 0 -0.000164368 0 0 0 0 0 0 0 0 0 0 0 0 0 0 0 0 0 0 0.002 
280 6 0.0386175 0.0516216 0.0280857 0 0 0 1.44388 -2.86183 1.16644 0 -0.000164368 0 0 0 0 0 0 0 0 0 0 0 0 0 0 0 0 0 3 0.002 
447 1 0.0431844 0.0623127 0.0295206 0 0 0 0.705409 -0.642967 -0.388502 0 -0.000164368 0 0 0 0 0 0 0 0 0 0 0 0 0 0 0 0 0 1 0.002 
77 12 0.0297717 0.0639995 0.0288275 0 0 0 0.0214879 -0.621189 0.026417 0 -0.000164368 0 0 0 0 0 0 0 0 0 0 0 0 0 0 0 0 0 5 0.002 
243 5 0.0216022 0.067635 0.0282052 0 0 0 -0.0746241 -0.97613 0.271544 0 -0.000164368 0 0 0 0 0 0 0 0 0 0 0 0 0 0 0 0 0 2 0.002 
428 8 0.0463081 0.0623173 0.0324721 0 0 0 0.213991 -0.790481 -0.14209 0 -0.000164368 0 0 0 0 0 0 0 0 0 0 0 0 0 0 0 0 0 2 0.002 
437 8 0.0328011 0.0689881 0.0312448 0 0 0 -0.348744 -0.519479 -0.683033 0 -0.000164368 0 0 0 0 0 0 0 0 0 0 0 0 0 0 0 0 0 7 0.002 
535 3 0.0446817 0.0716202 0.0320981 0 0 0 0.184843 -0.906482 0.0413898 0 -0.000164368 0 0 0 0 0 0 0 0 0 0 0 0 0 0 0 0 0 1 0.002 
242 6 0.0236769 0.0734137 0.0310323 0 0 0 0.75591 -0.623747 -0.4678 0 -0.000164368 0 0 0 0 0 0 0 0 0 0 0 0 0 0 0 0 0 7 0.002 
384 6 0.0224903 0.0500173 0.0330248 0 0 0 0.523024 -1.13026 1.28251 0.0970292 0.111216 -0.224054 0 0 0 0 0 0 0 0 0 0 0 0 0 0 0 0 4 0.002 
516 2 0.0295329 0.0626616 0.0327259 0 0 0 -0.285586 -0.0500639 -0.00739945 0 -0.000164368 0 0 0 0 0 0 0 0 0 0 0 0 0 0 0 0 0 0 0.002 
63 6 0.0226748 0.0679158 0.0328299 0 0 0 0.210442 -0.85002 -0.160646 0 -0.000164368 0 0 0 0 0 0 0 0 0 0 0 0 0 0 0 0 0 6 0.002 
470 8 0.0425224 0.066499 0.0328927 0 0 0 1.48287 -0.00862431 -0.0645606 0 -0.000164368 0 0 0 0 0 0 0 0 0 0 0 0 0 0 0 0 0 0 0.002 
323 7 0.0289016 0.0730478 0.0326391 0 0 0 0.423336 -0.209486 -0.0565844 0 -0.000164368 0 0 0 0 0 0 0 0 0 0 0 0 0 0 0 0 0 4 0.002 
464 6 0.04091 0.0732509 0.0328787 0 0 0 0.12997 -0.593893 0.00069278 0 -0.000164368 0 0 0 0 0 0 0 0 0 0 0 0 0 0 0 0 0 1 0.002 
438 2 0.0346938 0.0431236 0.0347699 0 0 0 -0.730455 -2.28255 -0.0722347 0 -0.000164368 0 0 0 0 0 0 0 0 0 0 0 0 0 0 0 0 0 4 0.002 
550 10 0.0253413 0.0412515 0.0406159 0 0 0 4.1254 12.0187 -14.3444 0.0412062 -0.28026 -0.258297 0 0 0 0 0 0 0 0 0 0 0 0 0 0 0 0 0 0.002 
34 3 0.0267675 0.101646 -0.032574 0 0 0 1.45283 -2.202 -1.77196 0 -0.000164368 0 0 0 0 0 0 0 0 0 0 0 0 0 0 0 0 0 4 0.002 
314 6 0.038948 0.108245 -0.0329957 0 0 0 1.70532 1.94671 1.43851 0.337643 -2.33182 0.0912419 0 0 0 0 0 0 0 0 0 0 0 0 0 0 0 0 1 0.002 
392 1 0.0321804 0.103822 -0.0299821 0 0 0 2.65113 -0.326311 -0.298948 0 -0.000164368 0 0 0 0 0 0 0 0 0 0 0 0 0 0 0 0 0 4 0.002 
318 4 0.0345265 0.0849657 -0.0279051 0 0 0 -1.14 -1.03343 0.853443 0 -0.000164368 0 0 0 0 0 0 0 0 0 0 0 0 0 0 0 0 0 1 0.002 
439 1 0.0354693 0.0925001 -0.0251447 0 0 0 -6.70273 -3.60011 7.40676 0 -0.000164368 0 0 0 0 0 0 0 0 0 0 0 0 0 0 0 0 0 2 0.002 
203 3 0.047401 0.0990931 -0.025263 0 0 0 -0.33106 -0.464172 0.156909 0 -0.000164368 0 0 0 0 0 0 0 0 0 0 0 0 0 0 0 0 0 6 0.002 
545 9 0.026443 0.0938024 -0.0242895 0 0 0 -2.67809 5.16969 1.21159 0 -0.000164368 0 0 0 0 0 0 0 0 0 0 0 0 0 0 0 0 0 0 0.002 
161 8 0.0373461 0.101724 -0.0229695 0 0 0 -1.61158 4.1813 1.9659 0 -0.000164368 0 0 0 0 0 0 0 0 0 0 0 0 0 0 0 0 0 8 0.002 
423 3 0.0453299 0.0944339 -0.0204879 0 0 0 0.417463 -3.16309 -0.656593 0 -0.000164368 0 0 0 0 0 0 0 0 0 0 0 0 0 0 0 0 0 2 0.002 
236 3 0.0297102 0.0987708 -0.0203308 0 0 0 1.76721 -1.46904 0.0123583 0 -0.000164368 0 0 0 0 0 0 0 0 0 0 0 0 0 0 0 0 0 1 0.002 
538 1 0.0242827 0.102214 -0.0167813 0 0 0 2.06502 0.278251 0.748084 0 -0.000164368 0 0 0 0 0 0 0 0 0 0 0 0 0 0 0 0 0 0 0.002 
522 2 0.0349606 0.107927 -0.0172946 0 0 0 -0.443208 0.391944 0.944243 0 -0.000164368 0 0 0 0 0 0 0 0 0 0 0 0 0 0 0 0 0 0 0.002 
26 9 0.0434952 0.0811098 -0.0144117 0 0 0 3.06568 4.19086 -6.12525 0 -0.000164368 0 0 0 0 0 0 0 0 0 0 0 0 0 0 0 0 0 3 0.002 
528 6 0.0471402 0.104039 -0.0142593 0 0 0 0.880156 -0.689312 1.52418 0 -0.000164368 0 0 0 0 0 0 0 0 0 0 0 0 0 0 0 0 0 0 0.002 
462 8 0.0228817 0.0774374 -0.0121356 0 0 0 -2.48496 0.600242 0.176338 0 -0.000164368 0 0 0 0 0 0 0 0 0 0 0 0 0 0 0 0 0 2 0.002 
213 4 0.0227549 0.102635 -0.0128075 0 0 0 0.865248 -0.899656 -0.892811 0 -0.000164368 0 0 0 0 0 0 0 0 0 0 0 0 0 0 0 0 0 2 0.002 
20 3 0.036724 0.102398 -0.0113037 0 0 0 -1.31198 -0.0789758 2.25085 0 -0.000164368 0 0 0 0 0 0 0 0 0 0 0 0 0 0 0 0 0 3 0.002 
301 5 0.0381129 0.0994018 -0.00892983 0 0 0 2.6504 -1.73907 -0.663147 0 -0.000164368 0 0 0 0 0 0 0 0 0 0 0 0 0 0 0 0 0 1 0.002 
342 4 0.0245428 0.105323 -0.0103503 0 0 0 -1.29022 0.275916 -0.792382 0.00100967 -0.00411709 0.00325472 0 0 0 1 0 0 0 0 0 0 0 0 0 0 0 0 5 0.002 
411 1 0.0268318 0.103318 -0.00781521 0 0 0 -0.633304 1.67163 0.964904 -0.00100967 0.00378836 -0.00325472 0 0 0 1 0 0 0 0 0 0 0 0 0 0 0 0 3 0.002 
507 6 0.0399704 0.0975902 -0.00289386 0 0 0 0.472046 0.236863 -0.617878 0 -0.000164368 0 0 0 0 0 0 0 0 0 0 0 0 0 0 0 0 0 0 0.002 
4 6 0.0438215 0.0861103 -0.000477426 0 0 0 -0.133129 -0.110307 0.828821 0 -0.000164368 0 0 0 0 0 0 0 0 0 0 0 0 0 0 0 0 0 3 0.002 
62 2 0.0282991 0.106114 -0.00130636 0 0 0 -2.58362 -0.257945 3.67709 0 -0.000164368 0 0 0 0 0 0 0 0 0 0 0 0 0 0 0 0 0 4 0.002 
336 9 0.0248869 0.0896685 0.00148688 0 0 0 -0.214422 0.071174 -0.559987 0 -0.000164368 0 0 0 0 0 0 0 0 0 0 0 0 0 0 0 0 0 2 0.002 
257 6 0.0374056 0.0959517 0.00122361 0 0 0 2.03156 -1.62485 1.39366 0 -0.000164368 0 0 0 0 0 0 0 0 0 0 0 0 0 0 0 0 0 2 0.002 
176 2 0.0335486 0.0891395 0.00336372 0 0 0 0.736475 -1.95168 1.66437 0 -0.000164368 0 0 0 0 0 0 0 0 0 0 0 0 0 0 0 0 0 2 0.002 
338 6 0.040583 0.1072 0.00477122 0 0 0 2.35332 0.183453 1.76772 0 -0.000164368 0 0 0 0 0 0 0 0 0 0 0 0 0 0 0 0 0 0 0.002 
502 6 0.0336587 0.0941626 0.00571422 0 0 0 -0.34603 -0.945557 2.28295 0 -0.000164368 0 0 0 0 0 0 0 0 0 0 0 0 0 0 0 0 0 1 0.002 
294 1 0.0440455 0.106437 0.0068962 0 0 0 0.613143 0.751922 0.348744 0 -0.000164368 0 0 0 0 0 0 0 0 0 0 0 0 0 0 0 0 0 4 0.002 
406 5 0.0415594 0.083678 0.00789018 0 0 0 0.899269 0.072486 -1.16189 0 -0.000164368 0 0 0 0 0 0 0 0 0 0 0 0 0 0 0 0 0 3 0.002 
356 7 0.0375156 0.0946752 0.00823032 0 0 0 -2.66286 -1.04536 0.8587 0 -0.000164368 0 0 0 0 0 0 0 0 0 0 0 0 0 0 0 0 0 8 0.002 
6 3 0.0422604 0.0973001 0.00782573 0 0 0 1.30002 2.44046 4.90815 0 -0.000164368 0 0 0 0 0 0 0 0 0 0 0 0 0 0 0 0 0 3 0.002 
126 2 0.0404587 0.104278 0.00826414 0 0 0 -0.646579 1.23332 2.15816 0 -0.000164368 0 0 0 0 0 0 0 0 0 0 0 0 0 0 0 0 0 5 0.002 
495 8 0.0236521 0.107003 0.00876334 0 0 0 -1.86337 1.16592 -0.818057 0 -0.000164368 0 0 0 0 0 0 0 0 0 0 0 0 0 0 0 0 0 0 0.002 
53 3 0.0280911 0.0905977 0.0120348 0 0 0 1.02083 -1.48413 -2.09067 0 -0.000164368 0 0 0 0 0 0 0 0 0 0 0 0 0 0 0 0 0 3 0.002 
472 3 0.0408486 0.0917101 0.011511 0 0 0 0.0445281 -0.802488 -0.431359 0 -0.000164368 0 0 0 0 0 0 0 0 0 0 0 0 0 0 0 0 0 1 0.002 