ITEM: TIMESTEP
3600000
ITEM: NUMBER OF ATOMS
6741
ITEM: BOX BOUNDS ff ff ff
-0.01 0.45
-0.15 0.15
-0.08 0.1
ITEM: ATOMS id type x y z ix iy iz vx vy vz fx fy fz c_cc_1 c_cc_2 c_cc_3 c_cc_4 c_cc_5 c_cc_6 c_cc_7 c_cc_8 c_cc_9 c_cc_10 c_cc_11 c_cc_12 c_cc_13 c_cc_14 c_cc_15 c_cc_16 f_fppacc radius c_cc_17 
6453 13 0.00916257 -0.00218732 -0.0609935 0 0 0 -0.00366888 -0.0650908 0.0283556 0 -1.05196e-05 0 0 0 0 0 0 0 0 0 0 0 0 0 0 0 0 0 0 0.0008 0 
6702 2 0.0104653 -0.0133217 -0.0594339 0 0 0 -0.00364584 -0.0729415 0.0456806 0 -1.05196e-05 0 0 0 0 0 0 0 0 0 0 0 0 0 0 0 0 0 0 0.0008 0 
6537 6 0.00945844 -0.0162991 -0.0586544 0 0 0 0.0018448 -0.260284 0.0296154 0 -1.05196e-05 0 0 0 0 0 0 0 0 0 0 0 0 0 0 0 0 0 0 0.0008 0 
6055 5 0.0160446 -0.0242967 -0.0556652 0 0 0 8.25058e-06 -0.0120164 0.0849815 0 -1.05196e-05 0 0 0 0 0 0 0 0 0 0 0 0 0 0 0 0 0 0 0.0008 0 
6870 3 0.00710808 -0.0243149 -0.0520172 0 0 0 -1.37889e-13 -10.9874 1.20558 0 -1.05196e-05 0 0 0 0 0 0 0 0 0 0 0 0 0 0 0 0 0 0 0.0008 0 
2169 7 0.00860405 -0.0225429 -0.0480762 0 0 0 0.137674 -16.9046 5.23415 0 -1.05196e-05 0 0 0 0 0 0 0 0 0 0 0 0 0 0 0 0 0 9 0.0008 0 
3905 4 0.0173025 -0.0422251 -0.0440246 0 0 0 0.0178775 -0.317846 0.365655 0 -1.05196e-05 0 0 0 0 0 0 0 0 0 0 0 0 0 0 0 0 0 1 0.0008 0 
6786 9 0.00280901 -0.0400895 -0.0425082 0 0 0 1.84275 -4.18752 5.0112 0 -1.05196e-05 0 0 0 0 0 0 0 0 0 0 0 0 0 0 0 0 0 0 0.0008 0 
6891 4 0.00878285 -0.0443383 -0.0374384 0 0 0 -0.204793 -4.72149 7.27671 0 -1.05196e-05 0 0 0 0 0 0 0 0 0 0 0 0 0 0 0 0 0 0 0.0008 0 
1729 5 0.010658 -0.0454272 -0.0337988 0 0 0 0.392372 -8.55629 8.33405 0 -1.05196e-05 0 0 0 0 0 0 0 0 0 0 0 0 0 0 0 0 0 8 0.0008 0 
4302 8 0.00561216 -0.0489593 -0.0329344 0 0 0 -0.906316 -3.90562 6.92099 0.0020034 0.0167363 0.0103817 0 0 0 0 0 0 0 0 0 0 0 0 0 0 0 0 5 0.0008 0 
5123 1 0.00704392 -0.0545928 -0.0218972 0 0 0 6.21219 -15.3578 30.5879 0 -1.05196e-05 0 0 0 0 0 0 0 0 0 0 0 0 0 0 0 0 0 3 0.0008 0 
2171 3 0.012428 -0.0518183 -0.0155975 0 0 0 7.77484 -4.19461 22.451 0 -1.05196e-05 0 0 0 0 0 0 0 0 0 0 0 0 0 0 0 0 0 5 0.0008 0 
2062 8 0.00795654 -0.0598326 -0.0111766 0 0 0 -0.0281684 -0.0158395 0.00408404 0 -1.05196e-05 0 0 0 0 0 0 0 0 0 0 0 0 0 0 0 0 0 3 0.0008 0 
221 5 0.0124135 -0.0600698 -0.0102784 0 0 0 -0.185779 -0.00511723 0.0273747 1.2432e-17 -2.53692e-07 1.35713e-06 0 0 0 0 0 0 0 0 0 0 0 0 0 0 0 0 0 0.0008 0 
6957 3 0.00494497 -0.057956 -0.0110204 0 0 0 -1.91595 -13.005 20.6861 -0.145402 0.380748 0.0692321 0 0 0 0 0 0 0 0 0 0 0 0 0 0 0 0 0 0.0008 0 
6854 6 0.0162438 -0.0487464 -0.010694 0 0 0 0.00325395 -19.2665 8.92664 0 -1.05196e-05 0 0 0 0 0 0 0 0 0 0 0 0 0 0 0 0 0 0 0.0008 0 
3427 4 0.00616228 -0.0601006 -0.0101134 0 0 0 -0.0890643 -0.00997296 0.0534747 4.47126e-06 -7.62596e-07 4.82669e-08 0 0 0 0 0 0 0 0 0 0 0 0 0 0 0 0 2 0.0008 0 
3491 3 0.00204739 -0.0606185 -0.0073447 0 0 0 -0.0747386 -0.0227532 0.119884 5.98238e-08 7.75398e-05 1.82769e-05 0 0 0 0 0 0 0 0 0 0 0 0 0 0 0 0 0 0.0008 0 
4165 3 0.00426091 -0.0608149 -0.00629253 0 0 0 -0.0187718 -0.00475776 0.0254529 -1.09101e-12 -2.56502e-07 1.3566e-06 0 0 0 0 0 0 0 0 0 0 0 0 0 0 0 0 0 0.0008 0 
607 1 0.00976672 -0.0608813 -0.0059353 0 0 0 -0.0862257 -0.000115667 0.00140437 0 -1.05196e-05 0 0 0 0 0 0 0 0 0 0 0 0 0 0 0 0 0 2 0.0008 0 
72 4 0.0014512 -0.0609356 -0.00563815 0 0 0 -0.00123561 1.6389e-10 0.00187494 -5.84118e-17 -5.59175e-12 8.86462e-17 0 0 0 0 0 0 0 0 0 0 0 0 0 0 0 0 1 0.0008 0 
4459 4 0.0020896 -0.0609356 -0.00416861 0 0 0 0.00548756 1.81811e-10 -0.000397818 2.77754e-16 1.34869e-12 -2.01408e-17 0 0 0 0 0 0 0 0 0 0 0 0 0 0 0 0 3 0.0008 0 
5313 7 0.00465868 -0.0609356 -0.00463218 0 0 0 0.036052 -9.78578e-09 0.0280304 -9.62964e-14 -2.76861e-10 -7.48758e-14 0 0 0 0 0 0 0 0 0 0 0 0 0 0 0 0 0 0.0008 0 
1200 7 0.000800309 -0.0609356 -0.00321274 0 0 0 0.000295479 -8.53781e-06 -0.00590563 -1.85938e-09 3.50479e-07 -8.80769e-10 0 0 0 0 0 0 0 0 0 0 0 0 0 0 0 0 0 0.0008 0 
4095 1 0.00352707 -0.0609356 -0.00344325 0 0 0 0.00260803 1.10367e-10 0.0110156 8.42311e-17 -5.85412e-12 3.55961e-16 0 0 0 0 0 0 0 0 0 0 0 0 0 0 0 0 1 0.0008 0 
414 7 0.00220532 -0.0609356 -0.00244721 0 0 0 0.00504984 -4.03797e-05 -0.014398 -1.87592e-09 -2.19007e-08 -7.92122e-10 0 0 0 0 0 0 0 0 0 0 0 0 0 0 0 0 4 0.0008 0 
690 7 0.00369051 -0.0609356 -0.00184982 0 0 0 0.00339377 -4.76118e-05 -0.0070289 1.53198e-09 -4.73139e-08 8.84986e-10 0 0 0 0 0 0 0 0 0 0 0 0 0 0 0 0 1 0.0008 0 
693 3 0.00509858 -0.0609356 -0.002646 0 0 0 -0.00125434 -3.93137e-13 -0.00495966 -1.49754e-19 0 -5.98988e-19 0 0 0 0 0 0 0 0 0 0 0 0 0 0 0 0 1 0.0008 0 
1887 11 0.00669974 -0.0609345 -0.00208149 0 0 0 -0.064873 -0.00101436 -0.0261867 0 -1.05196e-05 0 0 0 0 0 0 0 0 0 0 0 0 0 0 0 0 0 1 0.0008 0 
3742 14 0.00828029 -0.0609275 -0.0024888 0 0 0 0.0300638 0.00633236 0.126384 0 -1.05196e-05 0 0 0 0 0 0 0 0 0 0 0 0 0 0 0 0 0 4 0.0008 0 
2843 9 0.0113439 -0.0609356 -0.00247052 0 0 0 0.0378867 2.51403e-13 -0.00860177 4.79158e-18 0 9.19733e-19 0 0 0 0 0 0 0 0 0 0 0 0 0 0 0 0 3 0.0008 0 
1871 2 0.000800875 -0.0609356 -0.00136795 0 0 0 -7.49765e-05 1.05708e-12 -0.00739195 2.4106e-21 0 7.48675e-19 0 0 0 0 0 0 0 0 0 0 0 0 0 0 0 0 4 0.0008 0 
209 4 0.00489164 -0.0609356 -0.000791981 0 0 0 0.000519658 7.78898e-06 -0.00396607 -1.24988e-11 -6.49204e-08 -9.77276e-12 0 0 0 0 0 0 0 0 0 0 0 0 0 0 0 0 3 0.0008 0 
1118 3 0.00951977 -0.0609356 -0.000741383 0 0 0 -0.00833823 -7.8472e-06 -0.0317062 1.82542e-11 1.86297e-07 7.17447e-11 0 0 0 0 0 0 0 0 0 0 0 0 0 0 0 0 0 0.0008 0 
206 1 0.000802321 -0.0609356 0.000393508 0 0 0 -0.000393597 -2.25492e-05 -0.00285211 -1.79929e-07 -8.08727e-08 3.88706e-08 1 0 0 0 0 0 0 0 0 0 0 0 0 0 0 0 9 0.0008 0 
101 5 0.00213971 -0.0609356 -0.000484712 0 0 0 -0.00118151 2.22724e-05 -0.00452419 1.41718e-07 7.39475e-08 -1.4112e-08 1 0 0 0 0 0 0 0 0 0 0 0 0 0 0 0 13 0.0008 0 
1002 3 0.00354756 -0.0609356 0.000280768 0 0 0 0.002667 -4.90492e-12 -0.0112608 3.02155e-19 0 -1.19807e-18 0 0 0 0 0 0 0 0 0 0 0 0 0 0 0 0 9 0.0008 0 
585 3 0.00641381 -0.0609356 -0.000296499 0 0 0 -0.000573454 6.73312e-07 0.0019733 2.12764e-11 -1.74812e-07 1.00333e-11 0 0 0 0 0 0 0 0 0 0 0 0 0 0 0 0 6 0.0008 0 
1920 3 0.00801257 -0.0609356 -0.000198257 0 0 0 0.000342593 -1.27279e-05 -0.00331448 -1.93453e-12 -4.81852e-08 1.18504e-11 0 0 0 0 0 0 0 0 0 0 0 0 0 0 0 0 3 0.0008 0 
5892 2 0.0106729 -0.0609356 0.000368345 0 0 0 9.44647e-05 4.58935e-07 -0.0434765 -5.06756e-06 -6.14102e-09 1.39744e-06 0 0 0 0 0 0 0 0 0 0 0 0 0 0 0 0 0 0.0008 0 
280 2 0.00213183 -0.0609356 0.00132896 0 0 0 0.00179422 -3.67709e-08 -0.00160114 -1.84184e-14 -1.37329e-10 1.64345e-14 0 0 0 0 0 0 0 0 0 0 0 0 0 0 0 0 8 0.0008 0 
553 2 0.00504027 -0.0609356 0.000861158 0 0 0 -0.00154968 3.82575e-05 -0.00804335 -4.48233e-09 4.14599e-08 -7.50088e-09 0 0 0 0 0 0 0 0 0 0 0 0 0 0 0 0 2 0.0008 0 
1470 6 0.00658003 -0.0609356 0.00129877 0 0 0 -0.000616823 -3.99675e-05 -0.00612205 8.09984e-09 -1.29377e-07 2.22192e-08 0 0 0 0 0 0 0 0 0 0 0 0 0 0 0 0 10 0.0008 0 
4050 3 0.0133052 -0.0609356 0.000502593 0 0 0 0.0483549 -1.52108e-12 0.0325967 -4.79238e-18 0 -4.79163e-18 0 0 0 0 0 0 0 0 0 0 0 0 0 0 0 0 3 0.0008 0 
1972 6 0.000800411 -0.0609356 0.00221703 0 0 0 0.000160334 -1.28903e-05 -0.00369052 -3.30579e-07 -2.52612e-08 -5.62055e-07 0 0 0 0 0 1 0 0 0 0 0 0 0 0 0 0 15 0.0008 0 
317 1 0.00359564 -0.0609356 0.00209144 0 0 0 0.000234494 2.92262e-11 -0.00278661 1.91557e-18 -3.86648e-14 -2.28927e-17 0 0 0 0 0 0 0 0 0 0 0 0 0 0 0 0 2 0.0008 0 
2069 4 0.00515143 -0.0609356 0.00246953 0 0 0 0.000800672 -6.03615e-08 -0.00521956 -1.25204e-14 -1.9324e-09 8.38453e-14 0 0 0 0 0 0 0 0 0 0 0 0 0 0 0 0 13 0.0008 0 
18 2 0.0081385 -0.0609356 0.00178291 0 0 0 -0.00606148 -8.76542e-13 0.0107044 -5.98979e-19 0 -2.03351e-19 0 0 0 0 0 0 0 0 0 0 0 0 0 0 0 0 3 0.0008 0 
1894 5 0.00227197 -0.0609356 0.00300628 0 0 0 -0.00158932 -1.84382e-11 -0.00248246 7.96754e-18 -5.03052e-13 1.24367e-17 0 0 0 0 0 0 0 0 0 0 0 0 0 0 0 0 14 0.0008 0 
154 3 0.00672616 -0.0609356 0.00295005 0 0 0 0.00273176 2.9907e-12 -0.00908025 1.05894e-20 0 1.19805e-18 0 0 0 0 0 0 0 0 0 0 0 0 0 0 0 0 16 0.0008 0 
1367 1 0.00841167 -0.0609356 0.00354158 0 0 0 0.0070348 -3.3272e-08 0.00649763 -6.60877e-14 3.11261e-10 -6.10411e-14 0 0 0 0 0 0 0 0 0 0 0 0 0 0 0 0 10 0.0008 0 
2966 5 0.00998916 -0.0609356 0.00283743 0 0 0 0.0213902 -2.32676e-12 0.0432024 2.66334e-19 0 5.48237e-19 0 0 0 0 0 0 0 0 0 0 0 0 0 0 0 0 3 0.0008 0 
604 2 0.0114962 -0.0609356 0.00361363 0 0 0 -0.0283198 5.24659e-12 0.02238 -2.91785e-18 0 -2.39583e-18 0 0 0 0 0 0 0 0 0 0 0 0 0 0 0 0 1 0.0008 0 
398 2 0.0166831 -0.0609356 0.00358898 0 0 0 0.0584789 -2.64903e-12 0.0334135 -4.70409e-19 0 4.83423e-18 0 0 0 0 0 0 0 0 0 0 0 0 0 0 0 0 9 0.0008 0 
6772 2 0.0078493 -0.0496548 0.00306844 0 0 0 1.61161 1.89526 4.3865 0 -1.05196e-05 0 0 0 0 0 0 0 0 0 0 0 0 0 0 0 0 0 0 0.0008 0 
733 3 0.000800238 -0.0609356 0.003817 0 0 0 -7.97164e-05 9.61457e-06 -0.00389651 -8.84981e-08 1.5765e-08 3.04364e-07 0 0 1 0 0 1 0 0 0 0 0 0 0 0 0 0 22 0.0008 0 
210 4 0.00218174 -0.0609356 0.00462403 0 0 0 -0.00265416 7.2791e-06 0.000326673 3.82129e-08 1.58522e-08 -3.18299e-07 0 0 1 0 0 0 0 0 0 0 0 0 0 0 0 0 37 0.0008 0 
1705 8 0.00377118 -0.0609356 0.00375346 0 0 0 0.00539417 6.53567e-12 -0.000966657 -5.99037e-19 0 1.49745e-19 0 0 0 0 0 0 0 0 0 0 0 0 0 0 0 0 21 0.0008 0 
531 10 0.00553557 -0.0609356 0.00402337 0 0 0 0.00527048 5.55326e-08 -0.00594617 7.9649e-14 2.11279e-09 -8.32572e-14 0 0 0 0 0 0 0 0 0 0 0 0 0 0 0 0 20 0.0008 0 
3087 1 0.00715406 -0.0609356 0.00453684 0 0 0 -0.0042809 -1.26751e-05 -0.00598587 2.00482e-07 -4.69358e-08 -4.39366e-07 1 0 0 0 0 0 0 0 0 0 0 0 0 0 0 0 9 0.0008 0 
1890 2 0.0102039 -0.0609357 0.00458672 0 0 0 0.0311956 -0.000116233 -0.0221461 -7.76737e-07 1.8629e-05 1.45536e-05 0 0 0 0 0 0 0 0 0 0 0 0 0 0 0 0 4 0.0008 0 
2641 8 0.000810379 -0.0609356 0.00546925 0 0 0 0.000597359 -4.58265e-12 -0.000577213 7.55393e-20 0 -7.48778e-20 0 0 0 0 0 0 0 0 0 0 0 0 0 0 0 0 10 0.0008 0 
2352 2 0.00436174 -0.0609356 0.00540758 0 0 0 -0.00057971 -1.0552e-05 -0.00265084 -7.32735e-07 7.36081e-08 -9.00477e-08 0 1 0 0 0 0 0 0 0 0 0 0 0 0 0 0 10 0.0008 0 
2116 2 0.00595106 -0.0609356 0.00559166 0 0 0 -0.000581954 5.27262e-06 -0.00187281 2.79649e-07 2.41746e-08 -2.66062e-07 1 1 0 0 0 0 0 0 0 0 0 0 0 0 0 0 16 0.0008 0 
4938 7 0.00856643 -0.0609358 0.00537047 0 0 0 0.00325163 0.000338179 -0.0272487 1.85303e-05 3.34184e-05 1.18011e-05 0 0 0 0 0 0 0 0 0 0 0 0 0 0 0 0 12 0.0008 0 
1039 2 0.0115723 -0.0609195 0.00573289 0 0 0 0.00188505 -0.00358796 -0.0191939 4.03158e-19 -2.53692e-07 -1.35713e-06 0 0 0 0 0 0 0 0 0 0 0 0 0 0 0 0 5 0.0008 0 
316 1 0.0130452 -0.0609356 0.00476724 0 0 0 0.0255068 -1.47124e-08 -0.0043834 -5.38637e-07 -1.20814e-11 -5.30525e-07 1 0 0 0 0 0 0 0 0 0 0 0 0 0 0 0 1 0.0008 0 
3865 4 0.00249656 -0.0608341 0.00618942 0 0 0 0.0222419 -0.000876902 -0.00466181 5.44591e-07 -1.56469e-07 -8.3107e-07 0 0 0 0 0 0 0 0 0 0 0 0 0 0 0 0 3 0.0008 0 
5191 1 0.00992147 -0.0608065 0.00622714 0 0 0 -0.00949741 0.00341216 0.00313055 0 -1.05196e-05 0 0 0 0 0 0 0 0 0 0 0 0 0 0 0 0 0 0 0.0008 0 
833 7 0.0135794 -0.0608189 0.00627087 0 0 0 0.0324606 -0.00126298 -0.00675629 5.1746e-07 -1.73682e-07 -9.29899e-07 1 0 0 0 0 0 0 0 0 0 0 0 0 0 0 0 6 0.0008 0 
2951 1 0.0184766 -0.060808 0.00632949 0 0 0 -0.0884197 0.0178671 0.0955805 9.05335e-14 -2.53698e-07 -1.35713e-06 0 0 0 0 0 0 0 0 0 0 0 0 0 0 0 0 0 0.0008 0 
5113 5 0.00112031 -0.0605918 0.00709115 0 0 0 0.0321944 -0.0483034 -0.00526849 0 -1.05196e-05 0 0 0 0 0 0 0 0 0 0 0 0 0 0 0 0 0 3 0.0008 0 
1165 1 0.00407732 -0.0606896 0.0069627 0 0 0 0.00882951 -0.000168134 -0.000946311 -4.16064e-07 2.27423e-08 3.52051e-07 0 1 0 0 0 0 0 0 0 0 0 0 0 0 0 0 22 0.0008 0 
3869 8 0.00550597 -0.0605481 0.00771945 0 0 0 0.0103713 -0.00107529 -0.0057192 1.15097e-09 -1.81304e-07 -1.3715e-06 0 0 0 0 0 0 0 0 0 0 0 0 0 0 0 0 12 0.0008 0 
4248 10 0.00686284 -0.060704 0.00688582 0 0 0 0.00886623 -0.00154861 -0.00832881 1.92619e-07 -1.36791e-07 -3.74432e-07 0 1 0 0 0 0 0 0 0 0 0 0 0 0 0 0 7 0.0008 0 
3081 3 0.0084651 -0.0606906 0.00695747 0 0 0 0.00965651 -0.00385122 -0.0206056 -1.071e-11 -5.20978e-07 -1.30487e-06 0 0 0 0 0 0 0 0 0 0 0 0 0 0 0 0 3 0.0008 0 
510 4 0.0122444 -0.0606096 0.00739046 0 0 0 0.0166353 -0.00166589 -0.0089117 -1.20777e-18 -2.53692e-07 -1.35713e-06 0 0 0 0 0 0 0 0 0 0 0 0 0 0 0 0 2 0.0008 0 
839 1 0.0161956 -0.0607154 0.00682477 0 0 0 0.0332026 -0.00120172 -0.00642862 -1.53226e-18 -2.53692e-07 -1.35713e-06 0 0 0 0 0 0 0 0 0 0 0 0 0 0 0 0 2 0.0008 0 
4325 3 0.00438281 -0.0603357 0.00885589 0 0 0 -0.0121972 -0.00434118 -0.0232232 2.1618e-16 -2.53691e-07 -1.35713e-06 0 0 0 0 0 0 0 0 0 0 0 0 0 0 0 0 0 0.0008 0 
5900 8 0.00807191 -0.0603191 0.00890694 0 0 0 -0.0436899 -0.00900342 -0.00261042 0 -1.05196e-05 0 0 0 0 0 0 0 0 0 0 0 0 0 0 0 0 0 0 0.0008 0 
6574 6 0.0114479 -0.060311 0.00879509 0 0 0 -0.00445932 -0.0331535 -0.121572 0 -1.05196e-05 0 0 0 0 0 0 0 0 0 0 0 0 0 0 0 0 0 0 0.0008 0 
570 3 0.0135658 -0.0604374 0.00831202 0 0 0 0.00441712 0.00293381 0.0156945 1.74963e-18 -2.53692e-07 -1.35713e-06 0 0 0 0 0 0 0 0 0 0 0 0 0 0 0 0 6 0.0008 0 
248 8 0.0182384 -0.060334 0.00886489 0 0 0 0.0634677 0.00980535 0.052454 8.23101e-18 -2.53692e-07 -1.35713e-06 0 0 0 0 0 0 0 0 0 0 0 0 0 0 0 0 5 0.0008 0 
5373 2 0.0162284 -0.0602428 0.00935258 0 0 0 -0.0184391 -0.00174885 -0.00935552 6.27396e-18 -2.53692e-07 -1.35713e-06 0 0 0 0 0 0 0 0 0 0 0 0 0 0 0 0 1 0.0008 0 
1352 4 0.00775044 -0.0599759 0.0107807 0 0 0 0.00119233 -0.00116057 -0.00620851 -2.28021e-18 -2.53692e-07 -1.35713e-06 0 0 0 0 0 0 0 0 0 0 0 0 0 0 0 0 1 0.0008 0 
3047 1 0.00384055 -0.0577542 0.0115472 0 0 0 0.647252 2.47012 10.3447 0 -1.05196e-05 0 0 0 0 0 0 0 0 0 0 0 0 0 0 0 0 0 12 0.0008 0 
4714 2 0.0104734 -0.0573834 0.0123219 0 0 0 0.565193 1.5154 9.58992 0 -1.05196e-05 0 0 0 0 0 0 0 0 0 0 0 0 0 0 0 0 0 2 0.0008 0 
1344 5 0.0081797 -0.0482907 0.0145772 0 0 0 0.233771 -1.28613 -1.49709 0 -1.05196e-05 0 0 0 0 0 0 0 0 0 0 0 0 0 0 0 0 0 3 0.0008 0 
5632 2 0.0147905 -0.0588368 0.0170424 0 0 0 -0.0544915 -0.00691566 0.0731479 1.6182e-06 -7.29771e-06 3.06475e-07 0 0 0 0 0 0 0 0 0 0 0 0 0 0 0 0 1 0.0008 0 
1930 2 0.0183411 -0.0525704 0.0255161 0 0 0 -3.26301 4.14227 11.5467 0 -1.05196e-05 0 0 0 0 0 0 0 0 0 0 0 0 0 0 0 0 0 6 0.0008 0 
6782 5 0.0132364 -0.0518468 0.0320167 0 0 0 -0.00153164 -0.0766299 -0.123762 -1.7023e-17 -2.08228e-06 -3.363e-06 0 0 0 0 0 0 0 0 0 0 0 0 0 0 0 0 0 0.0008 0 
6718 9 0.00327839 -0.0291806 0.0390682 0 0 0 0.992097 5.81205 4.16309 0 -1.05196e-05 0 0 0 0 0 0 0 0 0 0 0 0 0 0 0 0 0 0 0.0008 0 
6598 1 0.0127531 -0.0407967 0.04248 0 0 0 2.28524 3.41392 3.40066 0 -1.05196e-05 0 0 0 0 0 0 0 0 0 0 0 0 0 0 0 0 0 0 0.0008 0 
6719 2 0.0113637 -0.0268276 0.0522469 0 0 0 0.238377 7.29243 4.70898 0 -1.05196e-05 0 0 0 0 0 0 0 0 0 0 0 0 0 0 0 0 0 0 0.0008 0 
6479 4 0.00343672 -0.0238924 0.0536783 0 0 0 0.56751 16.4015 7.0926 0 -1.05196e-05 0 0 0 0 0 0 0 0 0 0 0 0 0 0 0 0 0 0 0.0008 0 
3347 12 0.0110996 -0.00362923 0.0565149 0 0 0 2.52649 9.98331 0.375526 0 -1.05196e-05 0 0 0 0 0 0 0 0 0 0 0 0 0 0 0 0 0 2 0.0008 0 
6448 4 0.0169427 -0.00372152 0.0575543 0 0 0 2.43808 6.33151 0.830791 0 -1.05196e-05 0 0 0 0 0 0 0 0 0 0 0 0 0 0 0 0 0 0 0.0008 0 
6076 6 0.00875437 -0.0190025 0.0576561 0 0 0 -0.706638 -0.791656 -0.258103 0 -1.05196e-05 0 0 0 0 0 0 0 0 0 0 0 0 0 0 0 0 0 0 0.0008 0 
3579 8 0.0121208 -0.0118974 0.057988 0 0 0 0.078578 9.03308 4.95359 0 -1.05196e-05 0 0 0 0 0 0 0 0 0 0 0 0 0 0 0 0 0 0 0.0008 0 
1176 1 0.00827417 -0.0113715 0.0577245 0 0 0 5.76121 22.678 5.19294 0 -1.05196e-05 0 0 0 0 0 0 0 0 0 0 0 0 0 0 0 0 0 15 0.0008 0 
6810 1 0.00215253 -0.00104848 0.0588944 0 0 0 -0.14736 9.67087 0.430059 0 -1.05196e-05 0 0 0 0 0 0 0 0 0 0 0 0 0 0 0 0 0 0 0.0008 0 
4164 1 0.0143646 0.0127334 -0.059404 0 0 0 -0.0204915 -0.235855 -0.0646132 0 -1.05196e-05 0 0 0 0 0 0 0 0 0 0 0 0 0 0 0 0 0 8 0.0008 0 
6892 4 0.0139077 0.00764242 -0.0581743 0 0 0 -1.85951 -2.21045 0.298163 0 -1.05196e-05 0 0 0 0 0 0 0 0 0 0 0 0 0 0 0 0 0 0 0.0008 0 
6928 2 0.00579089 0.0111209 -0.0577113 0 0 0 2.0296 -6.75134 -1.58869 0 -1.05196e-05 0 0 0 0 0 0 0 0 0 0 0 0 0 0 0 0 0 0 0.0008 0 
4423 3 0.0165581 0.0235724 -0.0537887 0 0 0 -20.5956 -28.7187 -12.3057 0 -1.05196e-05 0 0 0 0 0 0 0 0 0 0 0 0 0 0 0 0 0 8 0.0008 0 
1902 1 0.00742069 0.0194384 -0.0534334 0 0 0 0.396248 -3.92961 -20.3514 0 -1.05196e-05 0 0 0 0 0 0 0 0 0 0 0 0 0 0 0 0 0 10 0.0008 0 
6828 4 0.00208806 0.0241798 -0.051482 0 0 0 1.70871 -6.44051 -14.7886 0 -1.05196e-05 0 0 0 0 0 0 0 0 0 0 0 0 0 0 0 0 0 0 0.0008 0 
6838 1 0.00202091 0.0183618 -0.0510655 0 0 0 0.137577 -4.50464 -16.1487 0 -1.05196e-05 0 0 0 0 0 0 0 0 0 0 0 0 0 0 0 0 0 0 0.0008 0 
2177 4 0.0123287 0.0171876 -0.0487042 0 0 0 -4.51415 -3.99989 -16.0818 0 -1.05196e-05 0 0 0 0 0 0 0 0 0 0 0 0 0 0 0 0 0 3 0.0008 0 
6851 2 0.0122645 0.000908437 -0.0475302 0 0 0 3.84209 -12.0889 1.41761 0 -1.05196e-05 0 0 0 0 0 0 0 0 0 0 0 0 0 0 0 0 0 0 0.0008 0 
4178 4 0.00428187 0.0373455 -0.0437374 0 0 0 -4.07944 -5.91473 -8.14189 0 -1.05196e-05 0 0 0 0 0 0 0 0 0 0 0 0 0 0 0 0 0 3 0.0008 0 
6735 4 0.00213601 0.0389666 -0.0432576 0 0 0 0.341305 -3.06995 -2.11057 0 -1.05196e-05 0 0 0 0 0 0 0 0 0 0 0 0 0 0 0 0 0 0 0.0008 0 
2606 2 0.010708 0.0391071 -0.0424593 0 0 0 4.94921 7.85702 -7.71444 0 -1.05196e-05 0 0 0 0 0 0 0 0 0 0 0 0 0 0 0 0 0 5 0.0008 0 
6927 1 0.0147868 0.0443543 -0.0368046 0 0 0 0.360033 -1.83605 2.5785 0 -1.05196e-05 0 0 0 0 0 0 0 0 0 0 0 0 0 0 0 0 0 0 0.0008 0 
2321 7 0.0103957 0.0511125 -0.0355 0 0 0 1.11597e-08 -9.05382e-09 -6.68164e-08 1.44476e-09 2.16117e-09 2.61038e-09 0 0 0 0 0 0 0 0 0 0 0 0 0 0 0 0 0 0.0008 0 
283 5 0.00822601 0.0521944 -0.0355 0 0 0 4.58428e-303 -8.48857e-20 -5.89787e-12 -9.42764e-308 0 2.22045e-16 0 0 0 0 0 0 0 0 0 0 0 0 0 0 0 0 0 0.0008 0 
478 2 0.00649625 0.0529406 -0.0355 0 0 0 3.06555e-302 2.82306e-20 -5.89791e-12 -9.24576e-308 0 -2.22045e-16 0 0 0 0 0 0 0 0 0 0 0 0 0 0 0 0 0 0.0008 0 
871 8 0.00625639 0.0558148 -0.0355 0 0 0 4.30861e-302 8.48293e-20 -5.8979e-12 9.43309e-308 0 2.22045e-16 0 0 0 0 0 0 0 0 0 0 0 0 0 0 0 0 1 0.0008 0 
5520 7 0.00964429 0.0549405 -0.0355 0 0 0 3.07534e-302 -2.83805e-20 -4.72347e-12 9.25622e-308 -8.47033e-22 2.22045e-16 0 0 0 0 0 0 0 0 0 0 0 0 0 0 0 0 0 0.0008 0 
2565 7 0.00832037 0.0580035 -0.0355 0 0 0 8.08481e-54 -8.38243e-20 2.12355e-15 -1.42785e-53 0 0 0 0 0 0 0 0 0 0 0 0 0 0 0 0 0 0 0 0.0008 0 
3089 3 0.0107774 0.0616874 -0.0355 0 0 0 -4.21034e-302 -9.39226e-21 -5.89789e-12 9.15439e-308 0 2.22045e-16 0 0 0 0 0 0 0 0 0 0 0 0 0 0 0 0 0 0.0008 0 
3064 5 0.00572385 0.0664167 -0.0355 0 0 0 -9.70634e-129 -8.47672e-20 -3.53507e-12 -1.04988e-130 -8.47033e-22 -2.22045e-16 0 0 0 0 0 0 0 0 0 0 0 0 0 0 0 0 0 0.0008 0 
5230 4 0.00290972 0.0725339 -0.0355 0 0 0 4.38241e-96 8.47028e-20 3.53505e-12 -1.25581e-96 0 2.22045e-16 0 0 0 0 0 0 0 0 0 0 0 0 0 0 0 0 0 0.0008 0 
2130 11 0.0169242 0.0756713 -0.0355008 0 0 0 -2.49059e-15 4.95222e-14 -3.5399e-12 8.32667e-17 -6.4098e-16 0 0 0 0 0 0 0 0 0 0 0 1 0 0 0 0 0 8 0.0008 0 
4708 6 0.0184178 0.0757525 -0.0354992 0 0 0 2.34995e-15 -4.95189e-14 -3.53947e-12 -8.32667e-17 6.4098e-16 0 0 0 0 0 0 0 0 0 0 0 1 0 0 0 0 0 11 0.0008 0 
5274 5 0.0152257 0.0938759 -0.0355 0 0 0 -1.81365e-120 7.54186e-20 -5.89787e-12 1.57365e-120 0 -2.22045e-16 0 0 0 0 0 0 0 0 0 0 0 0 0 0 0 0 0 0.0008 0 
6872 9 0.0107681 0.051287 -0.0337868 0 0 0 0.69191 0.602259 0.43117 0 -1.05196e-05 0 0 0 0 0 0 0 0 0 0 0 0 0 0 0 0 0 0 0.0008 0 
4005 5 0.00224673 0.0738434 -0.034194 0 0 0 0.877662 0.556649 -8.37927 0 -1.05196e-05 0 0 0 0 0 0 0 0 0 0 0 0 0 0 0 0 0 5 0.0008 0 
2820 5 0.00495414 0.0921221 -0.0336759 0 0 0 -0.614856 -0.448654 -1.07779 0 -1.05196e-05 0 0 0 0 0 0 0 0 0 0 0 0 0 0 0 0 0 2 0.0008 0 
2390 5 0.0092104 0.0933991 -0.033521 0 0 0 0.14915 0.674539 0.426236 0 -1.05196e-05 0 0 0 0 0 0 0 0 0 0 0 0 0 0 0 0 0 6 0.0008 0 
5333 6 0.0124862 0.0990808 -0.0335325 0 0 0 -0.507167 1.53498 2.81253 0 -1.05196e-05 0 0 0 0 0 0 0 0 0 0 0 0 0 0 0 0 0 0 0.0008 0 
5290 10 0.00538121 0.1012 -0.0341751 0 0 0 -2.30877 3.76345 -0.941191 0 -1.05196e-05 0 0 0 0 0 0 0 0 0 0 0 0 0 0 0 0 0 1 0.0008 0 
2458 6 0.0150409 0.101527 -0.0337768 0 0 0 0.74463 1.04586 0.37039 0 -1.05196e-05 0 0 0 0 0 0 0 0 0 0 0 0 0 0 0 0 0 4 0.0008 0 
3229 8 0.0021664 0.103234 -0.0341992 0 0 0 -0.21094 0.635098 0.00326721 0 -1.05196e-05 0 0 0 0 0 0 0 0 0 0 0 0 0 0 0 0 0 14 0.0008 0 
6488 3 0.0186583 0.103308 -0.0339994 0 0 0 0.937431 -0.125302 0.679647 0 -1.05196e-05 0 0 0 0 0 0 0 0 0 0 0 0 0 0 0 0 0 0 0.0008 0 
5969 12 0.00877412 0.103674 -0.0336859 0 0 0 0.995493 1.25174 0.416606 0 -1.05196e-05 0 0 0 0 0 0 0 0 0 0 0 0 0 0 0 0 0 0 0.0008 0 
3461 4 0.00199083 0.10486 -0.0338796 0 0 0 -0.010209 0.61855 0.0142847 0 -1.05196e-05 0 0 0 0 0 0 0 0 0 0 0 0 0 0 0 0 0 5 0.0008 0 
5 6 0.00353571 0.105156 -0.0341965 0 0 0 0.213364 0.272128 -0.00912971 0 -1.05196e-05 0 0 0 0 0 0 0 0 0 0 0 0 0 0 0 0 0 2 0.0008 0 
4911 2 0.00280945 0.106599 -0.0341672 0 0 0 0.05939 0.219542 0.0039023 0 -1.05196e-05 0 0 0 0 0 0 0 0 0 0 0 0 0 0 0 0 0 2 0.0008 0 
4313 4 0.00958052 0.105937 -0.0341731 0 0 0 0.0262726 -0.144389 0.0371387 0 -1.05196e-05 0 0 0 0 0 0 0 0 0 0 0 0 0 0 0 0 0 4 0.0008 0 
1061 4 0.0112738 0.106053 -0.0340894 0 0 0 0.0440274 0.0210885 0.0211897 -0.00318678 -0.00566873 -0.00162168 0 0 0 1 0 0 0 0 0 0 0 0 0 0 0 0 9 0.0008 0 
3790 4 0.0152264 0.106031 -0.0337462 0 0 0 -0.337545 -0.350759 0.436895 0 -1.05196e-05 0 0 0 0 0 0 0 0 0 0 0 0 0 0 0 0 0 12 0.0008 0 
4607 5 0.0173206 0.106031 -0.0336397 0 0 0 0.522789 -0.333988 0.823833 0 -1.05196e-05 0 0 0 0 0 0 0 0 0 0 0 0 0 0 0 0 0 4 0.0008 0 
844 10 0.00457418 0.107705 -0.0341467 0 0 0 0.0993547 -0.0379551 0.0131088 0 -1.05196e-05 0 0 0 0 0 0 0 0 0 0 0 0 0 0 0 0 0 4 0.0008 0 
3115 1 0.00648358 0.107687 -0.0341639 0 0 0 0.064432 0.0460516 -0.023493 0 -1.05196e-05 0 0 0 0 0 0 0 0 0 0 0 0 0 0 0 0 0 4 0.0008 0 
3993 2 0.00861884 0.10772 -0.0335382 0 0 0 0.00903616 -0.0109792 -0.0341623 0.00020196 0.00224163 -0.0012746 0 1 0 0 0 0 0 0 0 0 0 0 0 0 0 0 9 0.0008 0 
5775 13 0.0113598 0.107639 -0.0341921 0 0 0 -0.517331 -0.297391 -0.0839416 0.00318678 0.00564769 0.00162168 0 0 0 1 0 0 0 0 0 0 0 0 0 0 0 0 6 0.0008 0 
4290 4 0.0128585 0.107127 -0.0334834 0 0 0 -0.514111 0.0819759 0.216156 0 -1.05196e-05 0 0 0 0 0 0 0 0 0 0 0 0 0 0 0 0 0 6 0.0008 0 
5535 2 0.0162209 0.107702 -0.0340958 0 0 0 0.502064 -0.022581 0.134016 0.000265762 -0.00344995 -0.000809652 0 3 0 0 0 0 0 0 0 0 0 0 0 0 0 0 7 0.0008 0 
42 4 0.0178048 0.107534 -0.0341592 0 0 0 0.534231 -0.314791 0.0528691 0.00108834 -0.000466244 0.000397291 0 1 0 0 0 0 0 0 0 0 0 0 0 0 0 0 6 0.0008 0 
2633 3 0.00183512 0.108166 -0.0341754 0 0 0 -0.0916318 -0.144555 -0.0150009 0 -1.05196e-05 0 0 0 0 0 0 0 0 0 0 0 0 0 0 0 0 0 5 0.0008 0 
1328 9 0.0144445 0.107774 -0.034203 0 0 0 0.207633 -0.47408 0.0879622 -9.48815e-05 0.000119614 0.0003221 0 0 0 0 0 0 0 0 0 0 0 0 0 0 0 0 5 0.0008 0 
5086 3 0.00329979 0.108858 -0.0338912 0 0 0 -0.0706051 0.0627897 -0.00802347 0 -1.05196e-05 0 0 0 0 0 0 0 0 0 0 0 0 0 0 0 0 0 3 0.0008 0 
5605 6 0.00501921 0.109124 -0.0335457 0 0 0 0.00986669 -0.0828393 -0.0811846 0 -1.05196e-05 0 0 0 0 0 0 0 0 0 0 0 0 0 0 0 0 0 5 0.0008 0 
3042 3 0.00666076 0.109126 -0.0334415 0 0 0 0.0806915 0.0915628 -0.0808452 0 -1.05196e-05 0 0 0 0 0 0 0 0 0 0 0 0 0 0 0 0 0 7 0.0008 0 
4014 6 0.00922405 0.109197 -0.0340387 0 0 0 -0.335776 -0.0431383 -0.105115 0 -1.05196e-05 0 0 0 0 0 0 0 0 0 0 0 0 0 0 0 0 0 7 0.0008 0 
576 2 0.0108325 0.10919 -0.0341907 0 0 0 -0.236164 -0.028087 0.0495782 0 -1.05196e-05 0 0 0 0 0 0 0 0 0 0 0 0 0 0 0 0 0 7 0.0008 0 
3755 1 0.0131892 0.109088 -0.034187 0 0 0 0.161161 -0.192199 0.058393 0 -1.05196e-05 0 0 0 0 0 0 0 0 0 0 0 0 0 0 0 0 0 7 0.0008 0 
4771 7 0.01572 0.109208 -0.0341425 0 0 0 0.329658 -0.0413879 -0.15052 -0.00118784 -0.00235916 0.00158984 0 1 0 0 0 0 0 0 0 0 0 0 0 0 0 0 4 0.0008 0 
5891 9 0.0174637 0.109198 -0.034066 0 0 0 0.617729 -0.0367625 0.240565 0 -1.05196e-05 0 0 0 0 0 0 0 0 0 0 0 0 0 0 0 0 0 5 0.0008 0 
704 13 0.0072506 0.0674422 -0.0331622 0 0 0 -0.0838955 -0.388698 -0.841771 0 -1.05196e-05 0 0 0 0 0 0 0 0 0 0 0 0 0 0 0 0 0 2 0.0008 0 
5310 2 0.0182052 0.0757967 -0.0333175 0 0 0 1.17636 -0.579262 0.677427 0 -1.05196e-05 0 0 0 0 0 0 0 0 0 0 0 0 0 0 0 0 0 1 0.0008 0 
2768 7 0.00486256 0.0892649 -0.0330217 0 0 0 4.26145 -1.82941 3.04237 0 -1.05196e-05 0 0 0 0 0 0 0 0 0 0 0 0 0 0 0 0 0 11 0.0008 0 
4873 2 0.00435467 0.0937808 -0.0333134 0 0 0 -0.0674659 0.347618 1.30404 0.0024689 -0.0187177 -0.0215443 0 1 0 0 0 0 0 0 0 0 0 0 0 0 0 0 1 0.0008 0 
4294 3 0.0138902 0.100086 -0.0330223 0 0 0 -2.11495 0.568178 -1.3212 0 -1.05196e-05 0 0 0 0 0 0 0 0 0 0 0 0 0 0 0 0 0 2 0.0008 0 
1471 7 0.00733888 0.100621 -0.0332734 0 0 0 2.32389 6.00766 1.99493 0 -1.05196e-05 0 0 0 0 0 0 0 0 0 0 0 0 0 0 0 0 0 7 0.0008 0 
1332 3 0.00525109 0.101728 -0.0324901 0 0 0 1.67407 1.50837 -0.011593 0 -1.05196e-05 0 0 0 0 0 0 0 0 0 0 0 0 0 0 0 0 0 2 0.0008 0 
6907 9 0.0170191 0.101673 -0.0332474 0 0 0 1.46659 -2.90697 1.55693 0 -1.05196e-05 0 0 0 0 0 0 0 0 0 0 0 0 0 0 0 0 0 0 0.0008 0 
4236 6 0.00453193 0.104444 -0.0330717 0 0 0 0.32583 0.201113 0.311721 -5.47002e-06 -2.72704e-05 -1.88431e-05 0 0 0 0 0 1 0 0 0 0 0 0 0 0 0 0 4 0.0008 0 
3389 10 0.00620613 0.104441 -0.0333879 0 0 0 -1.55209 0.0969082 0.00371131 0 -1.05196e-05 0 0 0 0 0 0 0 0 0 0 0 0 0 0 0 0 0 1 0.0008 0 
2450 4 0.00184002 0.106335 -0.0329166 0 0 0 0.00916876 -0.0198762 -0.0921313 5.12006e-06 0.000158852 -0.000283816 0 0 0 1 0 0 0 0 0 0 0 0 0 0 0 0 4 0.0008 0 
1340 3 0.00800155 0.106271 -0.0332929 0 0 0 -0.104953 0.174506 0.165095 -0.00020196 -0.00226267 0.0012746 0 1 0 0 0 0 0 0 0 0 0 0 0 0 0 0 8 0.0008 0 
4025 7 0.0111668 0.107087 -0.0326983 0 0 0 -0.0208103 -0.273156 -0.0401338 0 -1.05196e-05 0 0 0 0 0 0 0 0 0 0 0 0 0 0 0 0 0 3 0.0008 0 
534 5 0.0157838 0.107143 -0.0326622 0 0 0 0.0120854 0.12803 0.138314 7.12144e-05 -4.44468e-05 -0.000333521 0 1 0 0 0 0 0 0 0 0 0 0 0 0 0 0 7 0.0008 0 
6732 5 0.0183764 0.106954 -0.0326767 0 0 0 0.739204 1.14374 0.104274 0.00161941 -0.00398162 -0.00172071 0 0 0 0 1 0 0 0 0 0 0 0 0 0 0 0 1 0.0008 0 
2867 6 0.0129218 0.108445 -0.032529 0 0 0 0.367056 0.243599 0.0117356 0 -1.05196e-05 0 0 0 0 0 0 0 0 0 0 0 0 0 0 0 0 0 8 0.0008 0 
4251 1 0.00181196 0.109189 -0.0328255 0 0 0 -0.0908363 0.0168827 0.0211878 0 -1.05196e-05 0 0 0 0 0 0 0 0 0 0 0 0 0 0 0 0 0 7 0.0008 0 
1473 1 0.014489 0.109207 -0.0325043 0 0 0 -0.215238 0.226386 0.159506 0.00381453 -0.00954315 0.00285782 0 0 0 0 0 0 0 0 0 0 0 0 0 0 0 0 8 0.0008 0 
5577 7 0.0162151 0.109179 -0.0325381 0 0 0 0.0174574 0.605493 0.129229 0 -1.05196e-05 0 0 0 0 0 0 0 0 0 0 0 0 0 0 0 0 0 6 0.0008 0 
3093 7 0.0141006 0.0690879 -0.0315952 0 0 0 6.74536 -6.82129 -2.35612 0 -1.05196e-05 0 0 0 0 0 0 0 0 0 0 0 0 0 0 0 0 0 5 0.0008 0 
6255 2 0.00956489 0.092185 -0.0318876 0 0 0 0.528364 -1.09482 -0.549967 0 -1.05196e-05 0 0 0 0 0 0 0 0 0 0 0 0 0 0 0 0 0 0 0.0008 0 
4202 1 0.00455626 0.0947544 -0.032079 0 0 0 -0.674165 0.132594 -1.31524 -0.0024689 0.0186967 0.0215443 0 1 0 0 0 0 0 0 0 0 0 0 0 0 0 0 12 0.0008 0 
6087 1 0.00228412 0.0973061 -0.0314766 0 0 0 1.52685 2.25185 -0.116635 0 -1.05196e-05 0 0 0 0 0 0 0 0 0 0 0 0 0 0 0 0 0 1 0.0008 0 
4943 1 0.0185337 0.0991272 -0.0315297 0 0 0 4.67955 1.82038 4.54471 0 -1.05196e-05 0 0 0 0 0 0 0 0 0 0 0 0 0 0 0 0 0 0 0.0008 0 
1934 4 0.0023858 0.102622 -0.0318249 0 0 0 -1.30107 0.571495 -0.0267475 -3.94404e-05 -0.000288643 -6.46258e-05 0 0 0 1 0 0 0 0 0 0 0 0 0 0 0 0 13 0.0008 0 
6065 6 0.00315678 0.104033 -0.0323341 0 0 0 0.0220735 0.530215 0.168776 0.00123707 0.0023161 -0.00323725 0 0 0 0 0 1 0 0 0 0 0 0 0 0 0 0 8 0.0008 0 
6708 6 0.00215222 0.105185 -0.0318539 0 0 0 -0.0644527 0.120194 0.195668 -5.12006e-06 -0.000179891 0.000283816 0 0 0 1 0 0 0 0 0 0 0 0 0 0 0 0 1 0.0008 0 
6643 5 0.00416411 0.105618 -0.0320509 0 0 0 0.0607414 0.467591 -0.0656684 5.47002e-06 6.23124e-06 1.88431e-05 0 0 0 0 0 1 0 0 0 0 0 0 0 0 0 0 1 0.0008 0 
6463 2 0.00731692 0.105098 -0.0321544 0 0 0 -1.01811 -0.0244552 0.0342706 0 -1.05196e-05 0 0 0 0 0 0 0 0 0 0 0 0 0 0 0 0 0 0 0.0008 0 
480 3 0.00576056 0.106097 -0.032138 0 0 0 0.142654 0.299799 0.318979 0 -1.05196e-05 0 0 0 0 0 0 0 0 0 0 0 0 0 0 0 0 0 11 0.0008 0 
6873 1 0.0175435 0.105661 -0.0316645 0 0 0 1.35204 0.707632 2.26326 0 -1.05196e-05 0 0 0 0 0 0 0 0 0 0 0 0 0 0 0 0 0 0 0.0008 0 
3886 4 0.00319159 0.106888 -0.0321812 0 0 0 -0.074777 0.113132 0.128822 0 -1.05196e-05 0 0 0 0 0 0 0 0 0 0 0 0 0 0 0 0 0 2 0.0008 0 
3911 2 0.00862405 0.107738 -0.0318245 0 0 0 0.0249146 -0.0792728 0.0500387 0 -1.05196e-05 0 0 0 0 0 0 0 0 0 0 0 0 0 0 0 0 0 9 0.0008 0 
5984 6 0.0141313 0.107658 -0.0315009 0 0 0 0.0727389 -0.100707 0.702404 0 -1.05196e-05 0 0 0 0 0 0 0 0 0 0 0 0 0 0 0 0 0 0 0.0008 0 
3912 3 0.00183238 0.107766 -0.0320919 0 0 0 -0.295361 0.00427279 0.117503 0 -1.05196e-05 0 0 0 0 0 0 0 0 0 0 0 0 0 0 0 0 0 4 0.0008 0 
2957 5 0.00404957 0.108268 -0.0322597 0 0 0 -0.0100566 0.216641 -0.0513106 0 -1.05196e-05 0 0 0 0 0 0 0 0 0 0 0 0 0 0 0 0 0 9 0.0008 0 
2134 4 0.0172157 0.107918 -0.0321752 0 0 0 -0.271417 -0.191968 0.042805 -0.00244287 -0.00118706 2.7177e-05 0 0 0 1 1 0 0 0 0 0 0 0 0 0 0 0 7 0.0008 0 
5682 2 0.00560621 0.109046 -0.0319846 0 0 0 -0.00950848 -0.0444391 -0.0433127 0 -1.05196e-05 0 0 0 0 0 0 0 0 0 0 0 0 0 0 0 0 0 3 0.0008 0 
5917 5 0.00797753 0.109154 -0.0323006 0 0 0 0.0276455 -0.074577 0.0980899 0 -1.05196e-05 0 0 0 0 0 0 0 0 0 0 0 0 0 0 0 0 0 4 0.0008 0 
5706 1 0.00987572 0.109157 -0.0318112 0 0 0 -0.0905789 -0.0784215 0.0105 0 -1.05196e-05 0 0 0 0 0 0 0 0 0 0 0 0 0 0 0 0 0 9 0.0008 0 
3135 4 0.0114848 0.109063 -0.0320287 0 0 0 0.106292 0.224505 0.0412708 0 -1.05196e-05 0 0 0 0 0 0 0 0 0 0 0 0 0 0 0 0 0 12 0.0008 0 
716 6 0.0180566 0.10921 -0.0318205 0 0 0 0.125358 -0.0650076 0.289856 0.000256993 -0.00329123 0.000918962 0 0 0 1 0 1 0 0 0 0 0 0 0 0 0 0 8 0.0008 0 
2170 7 0.0154745 0.0441501 -0.0303863 0 0 0 4.82561 -3.65143 1.80679 0 -1.05196e-05 0 0 0 0 0 0 0 0 0 0 0 0 0 0 0 0 0 7 0.0008 0 
6097 1 0.0122228 0.070399 -0.0306472 0 0 0 3.91367 -1.27003 5.98263 0 -1.05196e-05 0 0 0 0 0 0 0 0 0 0 0 0 0 0 0 0 0 0 0.0008 0 