ITEM: TIMESTEP
18500000
ITEM: NUMBER OF ATOMS
2237
ITEM: BOX BOUNDS ff ff ff
-0.01 0.45
-0.15 0.15
-0.08 0.1
ITEM: ATOMS id type x y z ix iy iz vx vy vz fx fy fz c_cc_1 c_cc_2 c_cc_3 c_cc_4 c_cc_5 c_cc_6 c_cc_7 c_cc_8 c_cc_9 c_cc_10 c_cc_11 c_cc_12 c_cc_13 c_cc_14 c_cc_15 c_cc_16 f_fppacc radius 
629 8 0.0171634 -0.0572875 -0.00684961 0 0 0 1.37828 -1.67715 5.98283 0 -0.000164368 0 0 0 0 0 0 0 0 0 0 0 0 0 0 0 0 0 172 0.002 
1833 4 0.00700246 -0.0134187 -0.0563194 0 0 0 -0.431148 -16.9825 4.00364 -0.00278619 0.201842 0.586761 0 0 0 0 0 0 0 0 0 0 0 0 0 0 0 0 49 0.002 
447 1 0.0121562 -0.023924 0.03308 0 0 0 0.145885 -2.70841 -0.843336 0 -0.000164368 0 0 0 0 0 0 0 0 0 0 0 0 0 0 0 0 0 140 0.002 
1255 3 0.00345684 -0.0115507 0.0350613 0 0 0 0.219109 -1.30493 -2.85188 0 -0.000164368 0 0 0 0 0 0 0 0 0 0 0 0 0 0 0 0 0 130 0.002 
1271 4 0.00706187 0.0117929 -0.0597196 0 0 0 0.000126525 -7.81128e-06 -5.32798e-06 8.16443e-05 -4.11147e-06 -2.69045e-06 0 0 0 0 0 0 0 0 0 0 0 0 0 0 0 0 131 0.002 
1650 1 0.00416395 0.0187273 -0.0493176 0 0 0 -0.417235 -2.07685 -2.38249 0 -0.000164368 0 0 0 0 0 0 0 0 0 0 0 0 0 0 0 0 0 94 0.002 
1981 13 0.00371596 0.0142143 -0.0295339 0 0 0 0.21265 -5.46965 -1.79409 0.00579914 -0.230748 -1.54556 0 0 0 0 0 0 0 0 0 0 0 0 0 0 0 0 28 0.002 
244 1 0.013019 0.0229567 0.0454565 0 0 0 0.867078 -3.05455 5.27848 0 -0.000164368 0 0 0 0 0 0 0 0 0 0 0 0 0 0 0 0 0 130 0.002 
41 1 0.0150674 0.0528703 -0.0355008 0 0 0 -5.0434e-16 1.42017e-15 -1.9616e-12 -1.38778e-17 0 0 1 0 0 0 0 0 0 0 0 0 0 0 0 0 0 0 157 0.002 
480 3 0.0160532 0.0564897 -0.0354992 0 0 0 5.19728e-16 -1.57919e-15 -1.96169e-12 2.77556e-17 -5.55112e-17 0 1 0 0 0 0 0 0 0 0 0 0 0 0 0 0 0 201 0.002 
1707 1 0.0127315 0.062599 -0.0355 0 0 0 -4.98196e-37 -2.0292e-19 -5.61329e-12 1.08126e-37 0 -3.55271e-15 0 0 0 0 0 0 0 0 0 0 0 0 0 0 0 0 1 0.002 
286 14 0.0158492 0.0688611 -0.0355 0 0 0 3.28971e-16 -3.32769e-16 6.72685e-12 6.53202e-16 1.26391e-16 0 0 0 0 0 0 0 0 0 0 0 0 0 0 0 0 0 131 0.002 
2093 4 0.00880826 0.0648246 -0.0331271 0 0 0 0.206988 -0.436247 0.562181 0.000781675 -0.0981144 0.60037 0 0 0 0 0 0 0 0 0 0 0 0 0 0 0 0 36 0.002 
2064 8 0.00697918 0.0697991 -0.0326623 0 0 0 -0.476923 0.0231338 -0.516398 0 -0.000164368 0 0 0 0 0 0 0 0 0 0 0 0 0 0 0 0 0 48 0.002 
1789 2 0.0182136 0.0716634 -0.0321978 0 0 0 0.55893 -0.483939 0.57037 0 -0.000164368 0 0 0 0 0 0 0 0 0 0 0 0 0 0 0 0 0 76 0.002 
727 2 0.00361678 0.0743056 -0.0320964 0 0 0 0.126556 -0.258969 -0.415593 -0.017444 0.109052 -0.0218642 0 1 0 0 0 0 0 0 0 0 0 0 0 0 0 0 174 0.002 
1663 6 0.0102251 0.0745051 -0.0329718 0 0 0 -0.196668 -0.399542 -0.0962275 0 -0.000164368 0 0 0 0 0 0 0 0 0 0 0 0 0 0 0 0 0 99 0.002 
2280 2 0.00446795 0.05918 -0.0307272 0 0 0 1.14221 -1.57874 -1.23003 -0.203364 -0.165887 -0.0430146 0 1 0 0 0 0 0 0 0 0 0 0 0 0 0 0 1 0.002 
981 4 0.00740293 0.0616694 -0.0303925 0 0 0 0.622735 -0.826484 0.126566 0.203364 0.165559 0.0430146 0 1 0 0 0 0 0 0 0 0 0 0 0 0 0 0 142 0.002 
2226 1 0.0158119 0.0654956 -0.029316 0 0 0 -1.0599 1.43097 2.72319 0 -0.000164368 0 0 0 0 0 0 0 0 0 0 0 0 0 0 0 0 0 2 0.002 
1592 3 0.00637248 0.065779 -0.0300746 0 0 0 1.08267 -0.716353 0.108585 0 -0.000164368 0 0 0 0 0 0 0 0 0 0 0 0 0 0 0 0 0 82 0.002 
2022 4 0.00294114 0.0705247 -0.0312116 0 0 0 -0.111345 0.261505 -0.215588 0.258204 -0.182955 0.0537112 0 1 0 0 0 0 0 0 0 0 0 0 0 0 0 0 62 0.002 
932 2 0.0115305 0.0688896 -0.0299549 0 0 0 -0.159469 -0.925304 -0.239525 0 -0.000164368 0 0 0 0 0 0 0 0 0 0 0 0 0 0 0 0 0 104 0.002 
319 4 0.0039449 0.0524425 -0.02882 0 0 0 -3.89655 -3.87201 -0.117043 0 -0.000164368 0 0 0 0 0 0 0 0 0 0 0 0 0 0 0 0 0 114 0.002 
2199 5 0.00298527 0.0741857 -0.0277419 0 0 0 0.0943201 -0.522837 0.199163 -0.0134329 0.00616053 -0.00253375 0 0 0 0 1 0 0 0 0 0 0 0 0 0 0 0 5 0.002 
1483 5 0.0102679 0.0725122 -0.0281625 0 0 0 -0.0102026 -0.682577 -0.0371397 0 -0.000164368 0 0 0 0 0 0 0 0 0 0 0 0 0 0 0 0 0 144 0.002 
870 2 0.0033825 0.0605571 -0.0223613 0 0 0 1.78815 -1.64965 1.86879 0 -0.000164368 0 0 0 0 0 0 0 0 0 0 0 0 0 0 0 0 0 148 0.002 
349 7 0.00528087 0.0737644 -0.0223841 0 0 0 -0.304375 -0.811292 -0.262603 0 -0.000164368 0 0 0 0 0 0 0 0 0 0 0 0 0 0 0 0 0 102 0.002 
859 6 0.00370641 0.0688831 -0.0224301 0 0 0 -0.21183 -1.01989 -0.561311 0 -0.000164368 0 0 0 0 0 0 0 0 0 0 0 0 0 0 0 0 0 174 0.002 
702 1 0.0134594 0.048273 -0.0176715 0 0 0 0.0160564 -0.593508 1.25349 0 -0.000164368 0 0 0 0 0 0 0 0 0 0 0 0 0 0 0 0 0 124 0.002 
782 1 0.00418639 0.0538083 -0.0225185 0 0 0 1.98918 -2.9332 -5.70099 0 -0.000164368 0 0 0 0 0 0 0 0 0 0 0 0 0 0 0 0 0 158 0.002 
1923 1 0.0182232 0.0652568 -0.0137772 0 0 0 0.121956 -4.10095 4.28873 0.0184572 0.0761591 0.154226 1 0 0 0 0 0 0 0 0 0 0 0 0 0 0 0 33 0.002 
299 1 0.00344716 0.0705095 -0.0165457 0 0 0 0.055294 -0.853661 -0.207351 0 -0.000164368 0 0 0 0 0 0 0 0 0 0 0 0 0 0 0 0 0 168 0.002 
1185 6 0.00337009 0.0624849 0.00799108 0 0 0 0.0516904 -0.19372 -0.71971 0 -0.000164368 0 0 0 0 0 0 0 0 0 0 0 0 0 0 0 0 0 123 0.002 
1381 4 0.00530252 0.0567757 -0.00609048 0 0 0 -0.148229 -0.298897 -1.27767 0 -0.000164368 0 0 0 0 0 0 0 0 0 0 0 0 0 0 0 0 0 102 0.002 
869 7 0.00361821 0.0574752 -0.000473133 0 0 0 -0.00529287 -0.492816 -0.929371 0 -0.000164368 0 0 0 0 0 0 0 0 0 0 0 0 0 0 0 0 0 168 0.002 
1330 2 0.00336587 0.0636024 -0.000764018 0 0 0 -0.0120757 -0.268057 -1.11609 0 -0.000164368 0 0 0 0 0 0 0 0 0 0 0 0 0 0 0 0 0 135 0.002 
1792 6 0.00641246 0.0743595 -9.22175e-05 0 0 0 0.0173797 -0.0335537 -0.98417 0 -0.000164368 0 0 0 0 0 0 0 0 0 0 0 0 0 0 0 0 0 85 0.002 
2127 4 0.00725051 0.0633211 0.0068435 0 0 0 0.00428988 -0.255127 -0.798 0 -0.000164368 0 0 0 0 0 0 0 0 0 0 0 0 0 0 0 0 0 41 0.002 
1606 5 0.00343687 0.0691159 0.00726056 0 0 0 0.0193191 -0.2528 -0.524952 0 -0.000164368 0 0 0 0 0 0 0 0 0 0 0 0 0 0 0 0 0 115 0.002 
768 6 0.0141284 0.0727971 0.00673549 0 0 0 -4.62011 5.02304 -1.68263 0 -0.000164368 0 0 0 0 0 0 0 0 0 0 0 0 0 0 0 0 0 141 0.002 
970 7 0.00620012 0.0684056 0.0102737 0 0 0 0.117367 -0.196548 -0.575387 0 -0.000164368 0 0 0 0 0 0 0 0 0 0 0 0 0 0 0 0 0 179 0.002 
1953 1 0.0137512 0.0726335 0.0118136 0 0 0 -0.392001 0.54231 -0.775084 0 -0.000164368 0 0 0 0 0 0 0 0 0 0 0 0 0 0 0 0 0 53 0.002 
187 7 0.00314136 0.0629891 0.0125425 0 0 0 0.0418241 -0.0641212 -0.608994 0 -0.000164368 0 0 0 0 0 0 0 0 0 0 0 0 0 0 0 0 0 89 0.002 
584 8 0.00323592 0.0670557 0.0127723 0 0 0 -0.0337712 -0.0434107 -0.577579 0 -0.000164368 0 0 0 0 0 0 0 0 0 0 0 0 0 0 0 0 0 216 0.002 
387 10 0.0116096 0.0664913 0.0128872 0 0 0 0.140495 -0.235744 -0.420504 0 -0.000164368 0 0 0 0 0 0 0 0 0 0 0 0 0 0 0 0 0 96 0.002 
1480 1 0.00898368 0.0624088 0.0142703 0 0 0 0.123138 -0.0873852 -0.599846 0 -0.000164368 0 0 0 0 0 0 0 0 0 0 0 0 0 0 0 0 0 57 0.002 
1595 1 0.00756748 0.0660164 0.0158337 0 0 0 -0.118762 -0.162396 -0.388396 0 -0.000164368 0 0 0 0 0 0 0 0 0 0 0 0 0 0 0 0 0 143 0.002 
1572 2 0.00742913 0.0700916 0.0160078 0 0 0 -0.000753281 -0.155487 -0.357986 0 -0.000164368 0 0 0 0 0 0 0 0 0 0 0 0 0 0 0 0 0 115 0.002 
362 1 0.0162245 0.0684402 0.0139582 0 0 0 0.0567601 -0.509167 -1.09689 0 -0.000164368 0 0 0 0 0 0 0 0 0 0 0 0 0 0 0 0 0 113 0.002 
618 7 0.011442 0.0702321 0.0151576 0 0 0 0.100719 -0.258991 -0.295167 0 -0.000164368 0 0 0 0 0 0 0 0 0 0 0 0 0 0 0 0 0 153 0.002 
949 3 0.00696985 0.0739761 0.0146602 0 0 0 -0.0090336 -0.0521895 -0.323041 0 -0.000164368 0 0 0 0 0 0 0 0 0 0 0 0 0 0 0 0 0 169 0.002 
741 5 0.017148 0.074316 0.0161083 0 0 0 -0.0488374 -0.173757 -0.279307 0 -0.000164368 0 0 0 0 0 0 0 0 0 0 0 0 0 0 0 0 0 155 0.002 
1298 1 0.0179348 0.0619832 0.0169706 0 0 0 0.0655361 0.0293299 -1.76474 0 -0.000164368 0 0 0 0 0 0 0 0 0 0 0 0 0 0 0 0 0 131 0.002 
1033 2 0.00318762 0.0644176 0.018079 0 0 0 0.110216 -0.351095 -0.459475 0 -0.000164368 0 0 0 0 0 0 0 0 0 0 0 0 0 0 0 0 0 179 0.002 
1013 8 0.00302257 0.0725308 0.018841 0 0 0 0.0197249 -0.157413 -0.115526 0 -0.000164368 0 0 0 0 0 0 0 0 0 0 0 0 0 0 0 0 0 155 0.002 
1994 3 0.0138182 0.0622599 0.0198434 0 0 0 0.136601 -0.311348 -0.305468 0 -0.000164368 0 0 0 0 0 0 0 0 0 0 0 0 0 0 0 0 0 43 0.002 
1603 6 0.00476475 0.0688741 0.0191119 0 0 0 0.0897357 -0.160373 -0.339326 0 -0.000164368 0 0 0 0 0 0 0 0 0 0 0 0 0 0 0 0 0 66 0.002 
843 4 0.0119765 0.0681602 0.0190718 0 0 0 0.0825866 -0.117559 -0.232568 0 -0.000164368 0 0 0 0 0 0 0 0 0 0 0 0 0 0 0 0 0 149 0.002 
199 4 0.0098522 0.0716242 0.0192742 0 0 0 -0.0143808 -0.275928 -0.219674 0 -0.000164368 0 0 0 0 0 0 0 0 0 0 0 0 0 0 0 0 0 224 0.002 
1546 1 0.0146566 0.072776 0.0196526 0 0 0 0.0203334 0.0361443 0.0241802 0 -0.000164368 0 0 0 0 0 0 0 0 0 0 0 0 0 0 0 0 0 79 0.002 
92 2 0.00669282 0.0612966 0.0218836 0 0 0 0.00552751 -0.210383 -0.905498 0 -0.000164368 0 0 0 0 0 0 0 0 0 0 0 0 0 0 0 0 0 178 0.002 
406 5 0.00764505 0.0690385 0.0220771 0 0 0 0.086957 -0.187257 -0.247422 0 -0.000164368 0 0 0 0 0 0 0 0 0 0 0 0 0 0 0 0 0 150 0.002 
1012 7 0.00312494 0.0719174 0.0233993 0 0 0 0.0113316 -0.144258 -0.103705 0 -0.000164368 0 0 0 0 0 0 0 0 0 0 0 0 0 0 0 0 0 115 0.002 
2150 2 0.014299 0.0706557 0.0233613 0 0 0 -0.118512 -0.0166937 -0.164665 0.00423932 -0.0116992 0.00301407 0 2 0 0 0 0 0 0 0 0 0 0 0 0 0 0 43 0.002 
776 5 0.00774461 0.0730216 0.0230781 0 0 0 0.000445408 -0.235669 -0.0896607 -2.89065e-05 -0.000169727 -1.02583e-05 0 0 0 0 1 0 0 0 0 0 0 0 0 0 0 0 159 0.002 
1922 3 0.0131954 0.0744685 0.023012 0 0 0 -0.0573212 -0.00402995 0.00865802 -0.0033436 0.00653121 -0.00307869 0 1 1 0 0 0 0 0 0 0 0 0 0 0 0 0 49 0.002 
1737 2 0.0131725 0.0654713 0.0244872 0 0 0 -0.43982 1.10139 -1.40199 0 -0.000164368 0 0 0 0 0 0 0 0 0 0 0 0 0 0 0 0 0 66 0.002 
1961 7 0.0169433 0.0678292 0.0243666 0 0 0 -0.0246776 0.00403478 -0.157496 -0.000864622 0.000531602 0.000211139 0 1 0 0 0 0 0 0 0 0 0 0 0 0 0 0 84 0.002 
2144 6 0.01047 0.069521 0.0250256 0 0 0 -0.244133 -0.0735404 0.0118444 -9.00905e-05 -7.4817e-05 -4.59255e-05 0 0 0 0 0 1 0 0 0 0 0 0 0 0 0 0 48 0.002 
2049 1 0.0183693 0.0716492 0.0240364 0 0 0 -0.0166712 0.186535 -0.117149 -0.00128054 -0.00323249 -0.00108167 1 0 0 0 0 0 0 0 0 0 0 0 0 0 0 0 20 0.002 
1481 4 0.003175 0.0610627 0.0256941 0 0 0 0.0341716 -0.458572 -0.40104 0 -0.000164368 0 0 0 0 0 0 0 0 0 0 0 0 0 0 0 0 0 121 0.002 
2069 1 0.0183676 0.0618143 0.0256146 0 0 0 -0.682662 0.499967 -0.756766 0 -0.000164368 0 0 0 0 0 0 0 0 0 0 0 0 0 0 0 0 0 45 0.002 
1904 8 0.0184699 0.0653939 0.0274008 0 0 0 -0.105169 0.0750693 0.0289061 0 -0.000164368 0 0 0 0 0 0 0 0 0 0 0 0 0 0 0 0 0 58 0.002 
1201 4 0.0136741 0.0684463 0.0271611 0 0 0 -0.136156 0.235132 0.0343459 9.00905e-05 -0.000253919 4.59255e-05 0 0 0 0 0 1 0 0 0 0 0 0 0 0 0 0 177 0.002 
1836 3 0.0183517 0.0698007 0.0278179 0 0 0 -0.034117 -0.0862517 -0.0520542 0 -0.000164368 0 0 0 0 0 0 0 0 0 0 0 0 0 0 0 0 0 63 0.002 
2152 2 0.0071139 0.072508 0.0274815 0 0 0 -0.123016 -0.236352 -0.0354698 0 -0.000164368 0 0 0 0 0 0 0 0 0 0 0 0 0 0 0 0 0 40 0.002 
491 2 0.0148181 0.0724088 0.0269558 0 0 0 -0.0129083 -0.120629 -0.00984892 3.00572e-05 -9.78586e-05 -0.000327618 0 2 0 0 0 0 0 0 0 0 0 0 0 0 0 0 189 0.002 
1586 4 0.00300132 0.0746779 0.0279375 0 0 0 0.0853318 -0.0286861 -0.00115236 0.00240166 0.00393021 -0.0036416 0 0 0 2 0 0 0 0 0 0 0 0 0 0 0 0 108 0.002 
1652 6 0.010411 0.074103 0.025854 0 0 0 -0.105353 -0.138622 -0.00261567 0.000134123 3.3549e-05 -0.00314303 0 0 1 0 1 2 0 0 0 0 0 0 0 0 0 0 74 0.002 
1607 7 0.0145664 0.0630762 0.0284167 0 0 0 -0.704192 1.58673 0.642667 0 -0.000164368 0 0 0 0 0 0 0 0 0 0 0 0 0 0 0 0 0 111 0.002 
1444 3 0.00788216 0.064336 0.0287666 0 0 0 -0.270613 -0.133483 -0.0438371 0 -0.000164368 0 0 0 0 0 0 0 0 0 0 0 0 0 0 0 0 0 143 0.002 
1239 4 0.0100159 0.0677305 0.0289197 0 0 0 -0.197345 -0.112202 -0.0916468 0.0136066 -0.00785766 -0.00147526 0 0 0 1 0 0 0 0 0 0 0 0 0 0 0 0 136 0.002 
1140 12 0.00611442 0.0682288 0.0282754 0 0 0 -0.0750517 -0.056031 -0.20444 -0.0048696 0.0014972 0.00254058 0 0 0 1 0 0 0 0 0 0 0 0 0 0 0 0 165 0.002 
77 12 0.00299111 0.0706947 0.0279892 0 0 0 0.0503434 -0.0595741 -0.025366 -0.0039925 -0.000321086 0.000697916 0 0 0 1 0 0 0 0 0 0 0 0 0 0 0 0 197 0.002 
426 3 0.0107376 0.0716667 0.0289997 0 0 0 -0.0778481 -0.113565 0.013188 -0.0015461 -0.000137772 -0.000523972 0 0 1 0 0 1 0 0 0 0 0 0 0 0 0 0 210 0.002 
885 6 0.0109616 0.0621489 0.0313259 0 0 0 -0.303347 0.382707 -0.288636 0 -0.000164368 0 0 0 0 0 0 0 0 0 0 0 0 0 0 0 0 0 116 0.002 
1782 5 0.00583491 0.0648946 0.0324539 0 0 0 -0.390328 0.114462 -0.0772849 0 -0.000164368 0 0 0 0 0 0 0 0 0 0 0 0 0 0 0 0 0 93 0.002 
1227 5 0.0164037 0.0661729 0.0307812 0 0 0 -0.224927 0.00536448 -0.12051 0 -0.000164368 0 0 0 0 0 0 0 0 0 0 0 0 0 0 0 0 0 126 0.002 
995 2 0.0139066 0.0691968 0.0318168 0 0 0 -0.0556631 -0.0218414 -0.176087 0.000456632 0.000271835 -0.000485527 0 1 0 0 0 0 0 0 0 0 0 0 0 0 0 0 141 0.002 
1251 1 0.003 0.0725051 0.0322139 0 0 0 0.00201812 -0.0960638 -0.0387214 -2.60209e-05 0.000373671 -5.33866e-05 0 0 0 0 0 0 0 0 0 0 0 0 0 0 0 0 117 0.002 
1787 1 0.00722858 0.0741494 0.0323476 0 0 0 -0.0620476 -0.151842 0.103697 0 -0.000164368 0 0 0 0 0 0 0 0 0 0 0 0 0 0 0 0 0 104 0.002 
28 5 0.0145749 0.0730746 0.0325148 0 0 0 0.0656955 -0.102885 0.0896207 -0.00035832 -0.00175709 0.000391892 0 1 0 0 3 0 0 0 0 0 0 0 0 0 0 0 146 0.002 
1867 4 0.0115727 0.0552342 0.0327726 0 0 0 -1.18109 -0.104022 -0.0403865 0 -0.000164368 0 0 0 0 0 0 0 0 0 0 0 0 0 0 0 0 0 64 0.002 
715 4 0.0152322 0.0623985 0.0328218 0 0 0 -0.101226 0.399839 -0.363282 0 -0.000164368 0 0 0 0 0 0 0 0 0 0 0 0 0 0 0 0 0 194 0.002 
1662 8 0.0126624 0.0655105 0.0327986 0 0 0 -0.567812 0.156962 -0.257057 0 -0.000164368 0 0 0 0 0 0 0 0 0 0 0 0 0 0 0 0 0 84 0.002 
1382 2 0.00306232 0.0678556 0.0328856 0 0 0 0.00368803 -0.196317 0.0106584 0 -0.000164368 0 0 0 0 0 0 0 0 0 0 0 0 0 0 0 0 0 145 0.002 
1366 7 0.00915938 0.0675453 0.0329348 0 0 0 -0.0339274 -0.163211 0.00191532 0.000326614 -0.000301058 -2.84254e-05 0 0 0 0 0 0 1 0 0 0 0 0 0 0 0 0 130 0.002 
1845 1 0.0182737 0.069253 0.032572 0 0 0 -0.00767756 -0.0853845 0.0198688 -0.00275712 0.00376809 0.00204137 2 0 0 0 0 0 0 0 0 0 0 0 0 0 0 0 92 0.002 
738 5 0.00626559 0.0703036 0.0329339 0 0 0 -0.0748409 -0.19313 0.035424 -0.000326614 -2.76787e-05 2.84254e-05 0 0 0 0 0 0 1 0 0 0 0 0 0 0 0 0 147 0.002 
1914 2 0.0107678 0.0713748 0.0329799 0 0 0 -0.0842091 0.00274995 0.0369154 0.000703439 -0.00409972 0.0033957 0 0 1 0 0 0 0 0 0 0 0 0 0 0 0 0 56 0.002 
914 8 0.0185469 0.0732217 0.0329482 0 0 0 0.100846 -0.151626 0.0610694 -0.00267836 0.00214193 0.00186641 1 0 0 0 1 0 0 2 0 0 0 0 0 0 0 0 150 0.002 
1445 5 0.00813398 0.0381909 0.0431869 0 0 0 -0.213283 8.47449 -7.13564 0 -0.000164368 0 0 0 0 0 0 0 0 0 0 0 0 0 0 0 0 0 154 0.002 
1177 7 0.00682606 0.0774182 -0.0325904 0 0 0 -0.445366 -0.466239 0.232197 0 -0.000164368 0 0 0 0 0 0 0 0 0 0 0 0 0 0 0 0 0 15 0.002 
1664 1 0.0121277 0.0788205 -0.0327794 0 0 0 -0.544427 -1.09863 0.181999 0 -0.000164368 0 0 0 0 0 0 0 0 0 0 0 0 0 0 0 0 0 71 0.002 
1254 3 0.00336824 0.0803131 -0.0329914 0 0 0 -0.695857 -0.503372 0.0249315 0 -0.000164368 0 0 0 0 0 0 0 0 0 0 0 0 0 0 0 0 0 147 0.002 
972 3 0.00714641 0.084276 -0.0327358 0 0 0 0.19054 -0.259144 0.0881183 0 -0.000164368 0 0 0 0 0 0 0 0 0 0 0 0 0 0 0 0 0 177 0.002 
2258 1 0.0109773 0.0828643 -0.0329513 0 0 0 0.307763 -0.411985 0.100442 0 -0.000164368 0 0 0 0 0 0 0 0 0 0 0 0 0 0 0 0 0 0 0.002 
526 2 0.00311347 0.0845005 -0.0324317 0 0 0 0.16903 -0.272987 0.0764684 0 -0.000164368 0 0 0 0 0 0 0 0 0 0 0 0 0 0 0 0 0 166 0.002 
1270 6 0.00482403 0.0881492 -0.0329962 0 0 0 -0.00288255 -0.201237 0.004452 0 -0.000164368 0 0 0 0 0 0 0 0 0 0 0 0 0 0 0 0 0 131 0.002 
360 2 0.00904433 0.0878141 -0.0329936 0 0 0 -0.384476 0.202083 -0.0598431 -0.00993214 -0.00624687 -0.00469003 0 2 0 0 0 0 0 0 0 0 0 0 0 0 0 0 158 0.002 
1375 6 0.0125774 0.0892031 -0.0317985 0 0 0 -0.116485 -0.238111 -0.155132 0.0123051 0.00266279 0.00223509 0 1 0 0 0 1 0 0 0 0 0 0 0 0 0 0 141 0.002 
1504 2 0.0175713 0.0906217 -0.0328985 0 0 0 0.373011 -0.0673789 -0.0508945 -0.00475571 -0.029126 -1.80147e-05 0 1 0 0 0 0 0 0 0 0 0 0 0 0 0 0 95 0.002 
290 2 0.00299475 0.0921379 -0.0325354 0 0 0 -0.00111027 -0.0757144 -0.034416 -0.00375623 -0.00339344 -0.00317081 0 1 0 0 0 0 0 0 0 0 0 0 0 0 0 0 180 0.002 
1236 1 0.00692402 0.0916528 -0.0330029 0 0 0 -0.0133588 -0.0892394 -0.00349258 -0.00660329 0.00241429 -0.0011306 2 1 0 0 0 0 0 0 0 0 0 0 0 0 0 0 118 0.002 
1623 3 0.0108617 0.0926062 -0.0329901 0 0 0 -0.0650719 -0.0860805 0.0385209 -0.000776015 -0.00428767 -0.00533989 0 0 1 0 0 1 0 0 0 0 0 0 0 0 0 0 106 0.002 
1446 6 0.0145586 0.093575 -0.0318386 0 0 0 -0.147903 0.143696 -0.132157 -0.000530096 0.00362865 -0.00777234 0 0 1 0 0 2 0 0 0 0 0 0 0 0 0 0 154 0.002 
2214 8 0.00396499 0.0960167 -0.0329541 0 0 0 0.0135144 0.0125712 -0.00285216 0 -0.000164368 0 0 0 0 0 0 0 0 0 0 0 0 0 0 0 0 0 12 0.002 
1138 3 0.00808076 0.0954658 -0.0329924 0 0 0 -0.103931 -0.0541524 -0.0506941 0.00511142 0.00518721 -0.00189358 1 0 1 0 0 0 0 0 0 0 0 0 0 0 0 0 153 0.002 
947 4 0.0182503 0.09452 -0.0330035 0 0 0 -0.0718906 0.309237 0.0224229 0.0156466 -0.0169683 -0.000243583 0 1 0 1 0 1 0 0 0 0 0 0 0 0 0 0 109 0.002 
1387 4 0.0117415 0.0974172 -0.0329937 0 0 0 -0.118469 -0.0139102 0.0148364 -0.00422989 -0.00209659 -0.00123594 0 0 0 1 0 0 0 0 0 0 0 0 0 0 0 0 136 0.002 
930 3 0.0157317 0.0975844 -0.0329997 0 0 0 -0.174633 0.384857 -0.00308373 -0.00230559 0.0102929 -0.000498521 0 0 1 2 0 0 0 0 0 0 0 0 0 0 0 0 171 0.002 
384 6 0.002993 0.10002 -0.0329585 0 0 0 0.0139474 -0.00368155 -0.035735 -0.00170768 -0.00189513 -0.00104598 0 0 0 0 0 2 0 0 0 0 0 0 0 0 0 0 200 0.002 
1363 1 0.00681137 0.0991637 -0.0322078 0 0 0 0.0456971 0.0487047 -0.00797776 -0.000598099 -0.00030048 -0.00120527 2 0 1 0 0 1 0 0 0 0 0 0 0 0 0 0 161 0.002 
1306 4 0.00972333 0.101794 -0.0329241 0 0 0 0.0101903 0.0990982 0.0244608 0.00547104 0.00114682 -0.00179648 1 0 0 2 0 0 0 0 0 0 0 0 0 0 0 0 96 0.002 
2272 5 0.0136269 0.100981 -0.0329995 0 0 0 0.00730769 0.0244527 0.0561103 -0.00857562 0.00698083 0.00427408 0 0 1 1 2 0 0 0 0 0 0 0 0 0 0 0 9 0.002 
1173 1 0.017821 0.10123 -0.0329773 0 0 0 -0.0105994 -0.0172332 -0.107981 -0.00519831 0.00779782 0.00492883 2 0 0 0 0 0 0 0 0 0 0 0 0 0 0 0 129 0.002 
1360 1 0.0029916 0.104018 -0.0330021 0 0 0 -0.00202376 0.00901462 -0.00335446 0.00244858 -0.00161775 3.64499e-05 2 0 0 0 0 1 0 0 0 0 0 0 0 0 0 0 94 0.002 
1790 9 0.00692692 0.104638 -0.0329984 0 0 0 -0.0248051 0.0881022 -0.0457388 0.006163 -0.00288478 0.000622102 1 0 0 1 0 0 0 0 1 0 0 0 0 0 0 0 71 0.002 
2155 10 0.0155146 0.104498 -0.03275 0 0 0 0.0791838 0.00623081 -0.0536369 -1.76557e-05 -0.00023888 2.57234e-05 0 0 0 0 1 0 0 0 0 0 0 0 0 0 0 0 21 0.002 
784 7 0.00299013 0.108003 -0.0330001 0 0 0 -0.00477773 -0.0126918 -0.0217024 0.00571765 0.00288975 0.000897504 1 0 0 0 0 0 1 0 0 0 0 0 0 0 0 0 184 0.002 
2195 3 0.00934668 0.108009 -0.0330035 0 0 0 0.0139731 -0.0215459 -0.00924296 0.000598805 -0.00378324 0.000126101 0 0 1 0 0 0 0 0 0 0 0 0 0 0 0 0 16 0.002 
1126 4 0.0135622 0.108004 -0.0330084 0 0 0 -0.0905205 -0.020645 -0.00465369 0.00413044 -0.00437262 0.000851137 0 0 0 2 0 0 0 0 0 0 0 0 0 0 0 0 149 0.002 
871 2 0.0175427 0.108013 -0.0328441 0 0 0 -0.0321478 0.0291075 -0.0475664 -0.000637938 -0.00917599 0.00167265 0 1 0 1 0 0 0 0 0 0 0 0 0 0 0 0 156 0.002 
1219 5 0.0100999 0.0767375 -0.0295957 0 0 0 0.0932117 -0.823726 0.367254 0 -0.000164368 0 0 0 0 0 0 0 0 0 0 0 0 0 0 0 0 0 104 0.002 
2285 5 0.0164204 0.0820495 -0.0306355 0 0 0 -1.04417 4.85587 -1.00943 0 -0.000164368 0 0 0 0 0 0 0 0 0 0 0 0 0 0 0 0 0 0 0.002 
1736 1 0.00412397 0.0821984 -0.0292829 0 0 0 -0.667562 -0.395611 -0.0555429 -0.00175278 -0.00114495 0.000163172 1 0 0 0 0 0 0 0 0 0 0 0 0 0 0 0 93 0.002 
1989 8 0.0143238 0.0857201 -0.0305952 0 0 0 -0.359291 -0.0971622 -0.75613 -0.00586142 -0.00346831 0.00124748 0 0 0 0 0 0 0 1 0 0 0 0 0 0 0 0 48 0.002 
2122 4 0.00300319 0.0891666 -0.0295154 0 0 0 0.00352852 0.0538974 -0.0364903 0 -0.000164368 0 0 0 0 0 0 0 0 0 0 0 0 0 0 0 0 0 25 0.002 
227 6 0.00845353 0.0900053 -0.0297138 0 0 0 -0.293309 0.0158125 0.169943 -0.011096 -0.0214864 -0.00203422 1 1 0 0 0 2 0 0 0 0 0 0 0 0 0 0 39 0.002 
811 5 0.00299448 0.097982 -0.0294248 0 0 0 -0.0279313 -0.0301692 -0.0343712 0.00117387 -0.00142576 0.000925546 0 0 0 0 2 0 0 0 0 0 0 0 0 0 0 0 143 0.002 
1975 1 0.00960287 0.097927 -0.0296352 0 0 0 -0.0153481 0.0684806 0.0925856 0.00193036 -0.00203396 -0.00036581 1 0 0 0 0 0 0 0 0 0 0 0 0 0 0 0 45 0.002 
1747 3 0.01432 0.0990914 -0.0295457 0 0 0 -0.00845674 0.0119072 0.14222 0.0008879 0.000499118 -0.00138356 0 0 1 0 1 0 0 0 0 0 0 0 0 0 0 0 84 0.002 
194 2 0.0184307 0.0996351 -0.0293195 0 0 0 0.0866669 0.133054 -0.10773 0 -0.000164368 0 0 0 0 0 0 0 0 0 0 0 0 0 0 0 0 0 176 0.002 
2255 4 0.00304073 0.102496 -0.0292479 0 0 0 0.000907193 -0.0923715 -0.031241 0 -0.000164368 0 0 0 0 0 0 0 0 0 0 0 0 0 0 0 0 0 10 0.002 
751 3 0.00711796 0.101793 -0.0292264 0 0 0 -0.0573082 -0.0329976 0.13503 0.00352361 -0.00190243 -1.69775e-05 1 0 1 0 0 0 0 0 0 0 0 0 0 0 0 0 175 0.002 
721 5 0.00979831 0.105148 -0.0302685 0 0 0 -0.0510096 -0.0234171 0.0409768 0.000616939 -0.00462884 0.00291788 0 0 1 0 2 0 0 0 1 0 0 0 0 0 0 0 130 0.002 
2288 1 0.0180552 0.103653 -0.029577 0 0 0 -0.0880384 0.289404 -0.0407702 -0.0119414 -0.0100919 0.013792 3 0 0 0 0 0 0 0 0 0 0 0 0 0 0 0 6 0.002 
1724 2 0.00614431 0.107913 -0.0305633 0 0 0 0.00726825 -0.0368839 -0.0618611 0.00609184 0.00174221 -0.000391956 0 1 0 0 0 0 1 0 0 0 0 0 0 0 0 0 21 0.002 
49 3 0.00621802 0.0762615 -0.028756 0 0 0 0.0516234 -0.625911 0.121448 0.030775 0.00393686 -0.0027226 0 0 1 0 0 0 0 0 0 0 0 0 0 0 0 0 139 0.002 
805 6 0.00299011 0.0785249 -0.0279862 0 0 0 -0.0492652 -0.663344 -0.0221533 0.0203221 0.00943182 -0.00334066 0 0 0 0 0 0 0 0 0 0 0 0 0 0 0 0 151 0.002 
1494 4 0.00808762 0.0825222 -0.0288946 0 0 0 -0.714828 -0.261342 0.23413 0.00175278 0.00081621 -0.000163172 1 0 0 0 0 0 0 0 0 0 0 0 0 0 0 0 133 0.002 
381 2 0.012151 0.0827849 -0.0289739 0 0 0 -0.81314 0.187909 -0.30075 0.00261949 -0.00208995 0.00343382 0 2 0 0 0 0 0 1 0 0 0 0 0 0 0 0 158 0.002 
1212 1 0.00615311 0.0870992 -0.0281503 0 0 0 -0.136291 -0.228291 -0.008055 0.00807055 0.000398057 -0.00213639 1 0 0 0 0 0 0 0 0 0 0 0 0 0 0 0 139 0.002 
1768 10 0.0171937 0.0885036 -0.0288801 0 0 0 0.364871 0.587728 -1.43965 0 -0.000164368 0 0 0 0 0 0 0 0 0 0 0 0 0 0 0 0 0 106 0.002 
1323 9 0.0119121 0.090693 -0.0278707 0 0 0 -0.279936 -0.13674 0.017672 -0.0119616 0.0136218 0.00336358 0 0 0 0 0 1 0 0 2 0 0 0 0 0 0 0 148 0.002 
1942 5 0.0155786 0.092164 -0.0282525 0 0 0 -0.422394 0.211681 -0.0662643 0.0377172 -0.0015086 0.0109065 0 0 0 0 0 1 0 0 1 0 0 0 0 0 0 0 41 0.002 
1023 1 0.00400041 0.0941303 -0.0291258 0 0 0 -0.0661844 -0.0383711 -0.0325229 0.00136136 -0.00386878 0.000950295 1 0 0 0 1 0 0 0 0 0 0 0 0 0 0 0 150 0.002 
466 1 0.00799865 0.0939351 -0.0291022 0 0 0 -0.0454458 -0.00529116 0.0524723 -0.000736965 -0.000256073 0.00112948 1 0 0 0 0 0 0 0 0 0 0 0 0 0 0 0 156 0.002 
2215 6 0.0119198 0.0947236 -0.029082 0 0 0 -0.0801729 -0.0470797 0.104264 -0.00394458 -0.00423154 0.00126041 2 0 0 0 0 1 0 0 0 0 0 0 0 0 0 0 13 0.002 
997 6 0.0167538 0.0959525 -0.0291058 0 0 0 0.161317 0.030454 -0.29186 -0.000178158 -0.000231639 -0.000336196 0 0 1 0 0 0 0 0 0 0 0 0 0 0 0 0 151 0.002 
1977 1 0.00636039 0.0973393 -0.0273798 0 0 0 -0.0882516 -0.00274767 0.0430974 0.00276538 -0.00118158 -0.000900731 1 0 0 0 1 0 0 0 0 0 0 0 0 0 0 0 57 0.002 
1574 3 0.0112209 0.101613 -0.0290736 0 0 0 -0.118077 -0.0127034 -0.012092 0.000532368 -0.00260854 0.00414703 0 0 1 0 1 0 0 0 0 0 0 0 0 0 0 0 118 0.002 
560 4 0.00574867 0.105109 -0.0274927 0 0 0 -0.00999253 0.0451955 0.104357 0.00404904 -0.0028324 0.000924169 0 0 1 2 0 0 0 0 0 0 0 0 0 0 0 0 184 0.002 
1645 1 0.0141501 0.104428 -0.0289791 0 0 0 -0.0146087 -0.057867 -0.0621866 0.000907038 -0.0043212 -7.03681e-05 2 0 0 0 0 0 0 0 0 0 0 0 0 0 0 0 85 0.002 
2025 2 0.00301768 0.108006 -0.0276951 0 0 0 -0.0110298 0.0271828 0.000593437 0.000987813 -0.00212181 0.000944713 0 0 0 1 0 0 0 0 0 0 0 0 0 0 0 0 54 0.002 
2213 4 0.00877055 0.10792 -0.0275584 0 0 0 -0.0766867 -0.0233807 0.0154633 -0.000137625 -0.00108539 0.00279714 0 1 0 2 0 0 0 0 0 0 0 0 0 0 0 0 15 0.002 
413 11 0.012403 0.108007 -0.029198 0 0 0 -0.0182199 -0.0150575 0.0421281 -0.000285814 -0.00225182 0.0024498 1 0 0 2 0 0 0 0 0 0 1 0 0 0 0 0 115 0.002 
985 4 0.0162384 0.108009 -0.027989 0 0 0 0.0858882 -0.0552888 -0.0472087 -0.00522583 -0.00101825 -0.00332265 0 0 0 0 0 0 0 0 0 0 0 0 0 0 0 0 121 0.002 
813 6 0.0114297 0.0798861 -0.0263253 0 0 0 -0.213588 0.48358 0.547237 0.00322551 0.00506025 -0.00219405 0 1 0 0 0 0 0 0 0 0 0 0 0 0 0 0 195 0.002 
2 6 0.00644171 0.0799177 -0.0260711 0 0 0 -0.577072 -0.586279 0.310751 0 -0.000164368 0 0 0 0 0 0 0 0 0 0 0 0 0 0 0 0 0 175 0.002 
2282 6 0.0167906 0.0806354 -0.0258059 0 0 0 0.0373147 -0.163113 -1.96839 0 -0.000164368 0 0 0 0 0 0 0 0 0 0 0 0 0 0 0 0 0 0 0.002 
2298 7 0.00367142 0.0828185 -0.025173 0 0 0 -0.448235 -0.372981 0.146024 0 -0.000164368 0 0 0 0 0 0 0 0 0 0 0 0 0 0 0 0 0 0 0.002 
156 4 0.00849576 0.0850581 -0.025596 0 0 0 -0.397444 -0.491195 -0.184781 0 -0.000164368 0 0 0 0 0 0 0 0 0 0 0 0 0 0 0 0 0 161 0.002 
1379 8 0.0123298 0.0858847 -0.0264605 0 0 0 -0.371817 -0.0479063 0.120991 1.64153e-05 -0.000159467 -0.00248724 0 1 0 0 0 0 0 0 0 0 0 0 0 0 0 0 156 0.002 
1917 4 0.00305839 0.0876923 -0.0256986 0 0 0 0.100672 0.028434 0.0698068 -0.00807055 -0.000726793 0.00213639 1 0 0 0 0 0 0 0 0 0 0 0 0 0 0 0 53 0.002 
317 11 0.00828366 0.0905748 -0.0257689 0 0 0 -0.251858 -0.230685 0.263732 0.000545386 -0.00635953 -0.00165199 0 0 0 0 0 1 0 0 0 0 1 0 0 0 0 0 165 0.002 
2267 4 0.00300067 0.0917098 -0.0260874 0 0 0 -0.00151512 0.00151363 0.0490795 0 -0.000164368 0 0 0 0 0 0 0 0 0 0 0 0 0 0 0 0 0 4 0.002 
322 2 0.0109443 0.0935316 -0.0252286 0 0 0 -0.178798 -0.145405 -0.173121 -0.00404886 0.00270897 0.00445944 0 0 0 0 0 0 0 0 1 0 0 0 0 0 0 0 196 0.002 
735 8 0.00299839 0.0959239 -0.0256953 0 0 0 -0.00403336 -0.0008814 0.0246412 0.00139919 3.84506e-05 -0.00172132 1 0 0 0 0 0 0 0 0 0 0 0 0 0 0 0 124 0.002 
898 1 0.00660795 0.0941041 -0.0249504 0 0 0 -0.328635 -0.264559 -0.184981 -0.00152011 0.00682309 0.00511864 0 0 0 0 0 0 0 0 0 0 1 0 0 0 0 0 153 0.002 
2297 9 0.0154105 0.0948045 -0.0250431 0 0 0 -0.116293 -0.0830669 -0.0355849 0 -0.000164368 0 0 0 0 0 0 0 0 0 0 0 0 0 0 0 0 0 1 0.002 
37 5 0.012445 0.0975338 -0.026302 0 0 0 0.0133647 0.000422014 0.122839 0.000682931 0.00381847 0.00297418 0 0 0 0 0 1 0 0 0 0 0 0 0 0 0 0 37 0.002 
55 4 0.00299995 0.100393 -0.0258271 0 0 0 0.0183253 -0.0354633 0.0066379 -0.000205071 -0.000113721 1.57125e-05 0 0 0 1 0 0 0 0 0 0 0 0 0 0 0 0 153 0.002 
1096 8 0.00914795 0.0998916 -0.0261038 0 0 0 -0.0231863 0.00857243 0.0253427 0.00211818 0.00256219 0.00332803 1 0 0 0 0 0 0 0 0 0 0 0 0 0 0 0 138 0.002 
2057 3 0.0162878 0.0986369 -0.0258396 0 0 0 0.053233 -0.0260037 -0.0395066 0.00439032 -0.00351594 -0.00117776 0 0 0 0 0 0 0 0 0 0 0 0 0 0 0 0 21 0.002 
2013 13 0.0134321 0.102202 -0.0257384 0 0 0 0.0823426 -0.065574 -0.0246606 7.693e-05 -0.000706911 0.000379893 1 0 0 0 0 0 0 0 0 0 0 0 0 0 0 0 74 0.002 
1304 1 0.00299586 0.104657 -0.0246386 0 0 0 -0.0150201 0.0701628 0.0925017 0.00128455 0.00195779 0.000869086 0 0 0 1 0 0 0 0 0 0 0 0 0 0 0 0 139 0.002 
1852 2 0.00948544 0.104062 -0.0264335 0 0 0 -0.102635 0.011907 0.0723568 0.000816116 -0.00116723 -0.000817409 0 0 1 0 1 0 0 0 0 0 0 0 0 0 0 0 68 0.002 
1267 3 0.0164449 0.105047 -0.0252561 0 0 0 0.165782 0.128996 0.0755083 0.00420696 -0.0085223 -0.00869377 0 0 1 0 0 0 0 0 0 0 0 0 0 0 0 0 116 0.002 
1074 10 0.0126886 0.106398 -0.0255539 0 0 0 0.00684712 -0.0117681 0.0403076 0.00153024 -0.00168852 0.00230335 0 0 0 0 0 0 0 0 0 1 1 0 0 0 0 0 174 0.002 
1325 5 0.00369061 0.0783284 -0.0235575 0 0 0 -0.477726 -0.75613 0.407959 0 -0.000164368 0 0 0 0 0 0 0 0 0 0 0 0 0 0 0 0 0 62 0.002 
1141 6 0.00908487 0.0792272 -0.0229193 0 0 0 0.0795472 -0.523304 -0.736041 0 -0.000164368 0 0 0 0 0 0 0 0 0 0 0 0 0 0 0 0 0 134 0.002 
242 6 0.00684199 0.0829879 -0.0225937 0 0 0 -0.321224 -0.436415 -0.0919449 0.00802692 -0.0010559 -0.0271195 0 0 0 0 0 1 0 0 0 0 0 0 0 0 0 0 81 0.002 
1395 7 0.00605347 0.0872334 -0.0230348 0 0 0 -0.0881393 -0.333543 0.121278 0 -0.000164368 0 0 0 0 0 0 0 0 0 0 0 0 0 0 0 0 0 156 0.002 
1709 2 0.011325 0.0886026 -0.0236896 0 0 0 -0.758282 -0.226626 0.232289 0 -0.000164368 0 0 0 0 0 0 0 0 0 0 0 0 0 0 0 0 0 72 0.002 
890 6 0.0147625 0.0908781 -0.0245024 0 0 0 -0.761167 -0.0809967 -0.108182 0 -0.000164368 0 0 0 0 0 0 0 0 0 0 0 0 0 0 0 0 0 178 0.002 
1800 7 0.0058484 0.0978882 -0.0234324 0 0 0 -0.00427975 -0.235625 -0.223941 0 -0.000164368 0 0 0 0 0 0 0 0 0 0 0 0 0 0 0 0 0 53 0.002 
801 5 0.00974768 0.0970295 -0.0231592 0 0 0 0.0133624 -0.160227 0.134498 0 -0.000164368 0 0 0 0 0 0 0 0 0 0 0 0 0 0 0 0 0 122 0.002 
2283 7 0.0138299 0.0982845 -0.0226214 0 0 0 -0.0372935 0.170256 -0.0585035 0 -0.000164368 0 0 0 0 0 0 0 0 0 0 0 0 0 0 0 0 0 4 0.002 
920 3 0.00627342 0.102327 -0.0245858 0 0 0 0.0018471 -0.00673403 0.0602973 -0.000284837 -0.000229678 -4.09446e-05 0 0 0 1 0 0 0 0 0 0 0 0 0 0 0 0 155 0.002 
1627 4 0.0106556 0.102608 -0.0228248 0 0 0 0.173088 0.118198 -0.0147329 0 -0.000164368 0 0 0 0 0 0 0 0 0 0 0 0 0 0 0 0 0 89 0.002 
1302 3 0.0170527 0.1014 -0.0230519 0 0 0 -0.0059205 0.0191309 -0.195013 -0.00439032 0.00318721 0.00117776 0 0 0 0 0 0 0 0 0 0 0 0 0 0 0 0 127 0.002 
250 5 0.00299519 0.107912 -0.0222857 0 0 0 -0.000697442 -0.00770453 0.133991 -0.000258858 -0.000780001 -0.000700257 0 0 0 0 2 0 0 0 0 0 0 0 0 0 0 0 202 0.002 
2236 3 0.00641286 0.108006 -0.0243419 0 0 0 -0.0309571 -0.00187704 0.0542761 -0.00184761 -0.00266357 -6.4026e-05 0 0 1 1 1 0 0 0 0 0 0 0 0 0 0 0 13 0.002 
1690 9 0.0101302 0.10795 -0.0228999 0 0 0 -0.00255639 -0.00805033 0.0339377 0.00293766 -0.00272514 0.00248389 0 0 1 0 0 0 0 0 2 1 0 0 0 0 0 0 99 0.002 
638 6 0.01531 0.107988 -0.0228225 0 0 0 -0.0648611 0.0720833 0.0392107 -0.000952805 0.00874806 0.00710348 0 0 1 0 0 1 0 0 0 0 0 0 0 0 0 0 131 0.002 
1805 8 0.00781435 0.0761987 -0.0204413 0 0 0 0.195559 -0.487042 -0.623638 0 -0.000164368 0 0 0 0 0 0 0 0 0 0 0 0 0 0 0 0 0 84 0.002 