ITEM: TIMESTEP
8400000
ITEM: NUMBER OF ATOMS
15184
ITEM: BOX BOUNDS ff ff ff
-0.01 0.45
-0.15 0.15
-0.08 0.1
ITEM: ATOMS id type x y z ix iy iz vx vy vz fx fy fz c_cc_1 c_cc_2 c_cc_3 c_cc_4 c_cc_5 c_cc_6 c_cc_7 c_cc_8 c_cc_9 c_cc_10 c_cc_11 c_cc_12 c_cc_13 c_cc_14 c_cc_15 c_cc_16 f_fppacc radius c_cc_17 
11334 1 0.015457 -0.00703871 -0.0603706 0 0 0 0.044167 -0.603241 0.0766602 0 -1.05196e-05 0 0 0 0 0 0 0 0 0 0 0 0 0 0 0 0 0 26 0.0008 0 
15806 3 0.0154169 -0.0135444 -0.0593953 0 0 0 0.00132028 -0.0735163 -0.125295 0 -1.05196e-05 0 0 0 0 0 0 0 0 0 0 0 0 0 0 0 0 0 0 0.0008 0 
13923 7 0.0105681 -0.0184822 -0.0580511 0 0 0 -0.0190085 -0.294085 0.0493069 0 -1.05196e-05 0 0 0 0 0 0 0 0 0 0 0 0 0 0 0 0 0 18 0.0008 0 
11450 15 0.00364059 -0.0132234 -0.0575267 0 0 0 -0.707736 -10.3892 4.0896 -0.000354811 -0.006676 -0.0138818 0 0 0 0 0 0 0 0 0 0 0 0 0 0 0 0 32 0.0008 0 
16241 2 0.00578781 -0.0127042 -0.0575874 0 0 0 0.885899 -20.4783 7.90123 0 -1.05196e-05 0 0 0 0 0 0 0 0 0 0 0 0 0 0 0 0 0 0 0.0008 0 
15517 2 0.0108327 -0.0254146 -0.055161 0 0 0 -8.30663e-06 -0.18359 0.0597944 0 -1.05196e-05 0 0 0 0 0 0 0 0 0 0 0 0 0 0 0 0 0 0 0.0008 0 
11471 3 0.00684165 -0.00347787 -0.0548529 0 0 0 -0.153763 -1.38977 0.159004 0 -1.05196e-05 0 0 0 0 0 0 0 0 0 0 0 0 0 0 0 0 0 45 0.0008 0 
3839 8 0.0153399 -0.029493 -0.0533862 0 0 0 0.000828035 -0.235793 0.117411 1.8619e-11 -6.3308e-06 3.15237e-06 0 0 0 0 0 0 0 0 0 0 0 0 0 0 0 0 45 0.0008 0 
16215 6 0.00711954 -0.0267605 -0.0513062 0 0 0 4.90188 -6.42198 4.741 0 -1.05196e-05 0 0 0 0 0 0 0 0 0 0 0 0 0 0 0 0 0 0 0.0008 0 
16249 3 0.00291837 -0.00160809 -0.0508116 0 0 0 0.0222077 -8.65155 -3.89271 0 -1.05196e-05 0 0 0 0 0 0 0 0 0 0 0 0 0 0 0 0 0 0 0.0008 0 
15694 7 0.0100633 -0.0355661 -0.0494997 0 0 0 -0.0577145 -0.329423 0.250652 0 -1.05196e-05 0 0 0 0 0 0 0 0 0 0 0 0 0 0 0 0 0 0 0.0008 0 
10441 10 0.00834275 -0.0344602 -0.0503167 0 0 0 -0.101622 -0.320412 0.215482 0 -1.05196e-05 0 0 0 0 0 0 0 0 0 0 0 0 0 0 0 0 0 37 0.0008 0 
7480 4 0.0167265 -0.0321418 -0.0494077 0 0 0 1.62618 -8.16705 4.60212 0 -1.05196e-05 0 0 0 0 0 0 0 0 0 0 0 0 0 0 0 0 0 25 0.0008 0 
16198 11 0.00374054 -0.0329909 -0.0487083 0 0 0 0.730238 -8.1755 4.7125 0 -1.05196e-05 0 0 0 0 0 0 0 0 0 0 0 0 0 0 0 0 0 0 0.0008 0 
16106 4 0.00884288 -0.0329972 -0.048645 0 0 0 2.25385 -13.966 8.03672 0 -1.05196e-05 0 0 0 0 0 0 0 0 0 0 0 0 0 0 0 0 0 0 0.0008 0 
16196 5 0.00911485 -0.00850925 -0.0471742 0 0 0 -0.15686 -7.6243 1.46386 0 -1.05196e-05 0 0 0 0 0 0 0 0 0 0 0 0 0 0 0 0 0 0 0.0008 0 
15982 3 0.00262092 -0.0376288 -0.0450787 0 0 0 -0.0386626 -1.68536 1.40816 0 -1.05196e-05 0 0 0 0 0 0 0 0 0 0 0 0 0 0 0 0 0 0 0.0008 0 
4711 1 0.00391949 -0.0320614 -0.0417986 0 0 0 0.370408 -3.35614 -0.296458 0 -1.05196e-05 0 0 0 0 0 0 0 0 0 0 0 0 0 0 0 0 0 52 0.0008 0 
3591 4 0.0130884 -0.0409463 -0.0402461 0 0 0 0.937325 -3.29007 12.0216 0 -1.05196e-05 0 0 0 0 0 0 0 0 0 0 0 0 0 0 0 0 0 50 0.0008 0 
11996 1 0.0112387 -0.0470973 -0.0387865 0 0 0 -0.0642123 -0.365962 0.401468 -3.34887e-10 -3.47923e-06 3.68357e-06 0 0 0 0 0 0 0 0 0 0 0 0 0 0 0 0 19 0.0008 0 
16297 1 0.00733817 -0.0409047 -0.0387019 0 0 0 -16.2222 -8.28884 17.3425 0 -1.05196e-05 0 0 0 0 0 0 0 0 0 0 0 0 0 0 0 0 0 0 0.0008 0 
16138 8 0.00269934 -0.0412345 -0.0374239 0 0 0 0.371064 -6.72646 6.10398 0 -1.05196e-05 0 0 0 0 0 0 0 0 0 0 0 0 0 0 0 0 0 0 0.0008 0 
411 4 0.00681911 -0.0465725 -0.0360261 0 0 0 1.22863 -16.1947 19.7128 0 -1.05196e-05 0 0 0 0 0 0 0 0 0 0 0 0 0 0 0 0 0 47 0.0008 0 
15381 2 0.00715588 -0.0513085 -0.0327615 0 0 0 -0.101025 -0.341048 0.502453 0 -1.05196e-05 0 0 0 0 0 0 0 0 0 0 0 0 0 0 0 0 0 0 0.0008 0 
14757 3 0.0116849 -0.0478236 -0.0330445 0 0 0 1.26393 -4.48936 6.29733 0 -1.05196e-05 0 0 0 0 0 0 0 0 0 0 0 0 0 0 0 0 0 4 0.0008 0 
16153 2 0.00432022 -0.0502427 -0.0305878 0 0 0 -2.0223 -3.29387 6.00898 0 -1.05196e-05 0 0 0 0 0 0 0 0 0 0 0 0 0 0 0 0 0 0 0.0008 0 
16004 1 0.0171407 -0.0482973 -0.0288053 0 0 0 0.209897 -0.530485 -0.484871 0 -1.05196e-05 0 0 0 0 0 0 0 0 0 0 0 0 0 0 0 0 0 0 0.0008 0 
16221 2 0.00528006 -0.0464899 -0.0265379 0 0 0 0.8732 -9.42351 9.54277 0 -1.05196e-05 0 0 0 0 0 0 0 0 0 0 0 0 0 0 0 0 0 0 0.0008 0 
16235 2 0.0111639 -0.0523525 -0.0230653 0 0 0 -6.88154e-13 -8.88467 11.4985 0 -1.05196e-05 0 0 0 0 0 0 0 0 0 0 0 0 0 0 0 0 0 0 0.0008 0 
13175 6 0.00901079 -0.0588754 -0.0166687 0 0 0 -0.0136088 -0.0142861 0.0655704 1.33208e-07 4.82784e-05 5.52752e-06 0 0 0 0 0 0 0 0 0 0 0 0 0 0 0 0 1 0.0008 0 
10616 9 0.0115058 -0.0415933 -0.0156193 0 0 0 0.403787 -0.126961 1.19545 0 -1.05196e-05 0 0 0 0 0 0 0 0 0 0 0 0 0 0 0 0 0 23 0.0008 0 
10802 6 0.00415817 -0.0592398 -0.0147183 0 0 0 0.0116566 -0.00656154 0.0351011 4.6359e-18 -2.53692e-07 1.35713e-06 0 0 0 0 0 0 0 0 0 0 0 0 0 0 0 0 0 0.0008 0 
7764 4 0.0163313 -0.0594236 -0.0137349 0 0 0 -0.417218 -0.0615839 0.329015 9.5944e-09 5.49695e-07 1.50145e-06 0 0 0 0 0 0 0 0 0 0 0 0 0 0 0 0 43 0.0008 0 
5338 2 0.00177722 -0.0595831 -0.0128816 0 0 0 0.0137429 -0.0194092 0.10383 -1.58014e-18 -2.53692e-07 1.35713e-06 0 0 0 0 0 0 0 0 0 0 0 0 0 0 0 0 44 0.0008 0 
14749 4 0.00372568 -0.0596068 -0.0127464 0 0 0 -0.00136251 -0.00645203 0.03271 0 -1.05196e-05 0 0 0 0 0 0 0 0 0 0 0 0 0 0 0 0 0 0 0.0008 0 
255 2 0.0054036 -0.0595971 -0.0128067 0 0 0 -0.0211804 -0.00470815 0.0251864 -1.89671e-19 -2.53692e-07 1.35713e-06 0 0 0 0 0 0 0 0 0 0 0 0 0 0 0 0 39 0.0008 0 
6566 2 0.0140713 -0.0595944 -0.0128215 0 0 0 0.187605 -0.0172935 0.0925117 -2.97529e-17 -2.53692e-07 1.35713e-06 0 0 0 0 0 0 0 0 0 0 0 0 0 0 0 0 15 0.0008 0 
14360 4 0.00271473 -0.0598391 -0.0115124 0 0 0 -0.0193019 0.00143644 -0.00806909 1.10158e-06 5.96559e-07 -2.04003e-07 0 0 0 1 0 0 0 0 0 0 0 0 0 0 0 0 4 0.0008 0 
12757 3 0.000801544 -0.0599433 -0.0109513 0 0 0 0.00190582 -0.00879774 0.0252246 0 -1.05196e-05 0 0 0 0 0 0 0 0 0 0 0 0 0 0 0 0 0 18 0.0008 0 
12332 2 0.00616947 -0.0599345 -0.0110022 0 0 0 0.00827779 -0.00632882 0.0338562 4.20191e-21 -2.53692e-07 1.35713e-06 0 0 0 0 0 0 0 0 0 0 0 0 0 0 0 0 8 0.0008 0 
1637 5 0.00781009 -0.0599941 -0.0106831 0 0 0 0.0153026 -0.00398039 0.0212932 2.66295e-18 -2.53692e-07 1.35713e-06 0 0 0 0 0 0 0 0 0 0 0 0 0 0 0 0 58 0.0008 0 
4306 9 0.00375558 -0.0602294 -0.00941267 0 0 0 0.0186767 -0.00823519 -0.0208057 0 -1.05196e-05 0 0 0 0 0 0 0 0 0 0 0 0 0 0 0 0 0 21 0.0008 0 
12450 8 0.00747698 -0.0602837 -0.00913421 0 0 0 0.00335648 -0.00282803 0.0151281 -7.96364e-14 -2.63172e-07 1.35527e-06 0 0 0 0 0 0 0 0 0 0 0 0 0 0 0 0 5 0.0008 0 
7654 8 0.0021211 -0.0601118 -0.0100521 0 0 0 0.0142392 0.000368365 0.00610922 1.05139e-06 -6.08861e-06 -1.59858e-06 0 0 0 1 0 0 0 1 0 0 0 0 0 0 0 0 45 0.0008 0 
14580 12 0.0024375 -0.0604003 -0.00851069 0 0 0 0.0256235 -0.000335082 0.00515668 1.43695e-06 1.04083e-05 -1.01059e-05 0 0 0 0 0 0 0 1 0 0 0 1 0 0 0 0 5 0.0008 0 
15272 2 0.0092463 -0.0603496 -0.00878143 0 0 0 0.0115807 -0.0109977 0.0588323 1.53729e-18 -2.53692e-07 1.35713e-06 0 0 0 0 0 0 0 0 0 0 0 0 0 0 0 0 0 0.0008 0 
13527 2 0.0118783 -0.0604794 -0.00808718 0 0 0 -0.0290123 -0.00789815 0.0422513 -1.24433e-18 -2.53692e-07 1.35713e-06 0 0 0 0 0 0 0 0 0 0 0 0 0 0 0 0 2 0.0008 0 
3129 3 0.00082428 -0.0605429 -0.00774748 0 0 0 0.000339015 -0.000685826 0.00364733 -1.05048e-07 -7.47464e-08 5.3883e-07 0 0 1 0 0 0 0 0 0 0 0 0 0 0 0 0 17 0.0008 0 
8040 3 0.00255938 -0.0606922 -0.00694255 0 0 0 -0.00725148 -0.00124557 0.00859923 -7.72591e-06 -3.72231e-06 -4.17805e-06 0 0 1 0 0 0 0 0 0 0 0 1 0 0 0 0 45 0.0008 0 
3837 1 0.00399735 -0.0605517 -0.00770024 0 0 0 -0.00298004 -2.62818e-06 0.00245334 -6.9687e-06 6.21701e-06 -2.31733e-05 1 0 0 0 0 0 0 0 0 0 0 0 0 0 0 0 51 0.0008 0 
4848 7 0.00668346 -0.0605405 -0.00776049 0 0 0 0.021445 -0.00533963 0.0285643 -2.38936e-13 -2.5507e-07 1.35686e-06 0 0 0 0 0 0 0 0 0 0 0 0 0 0 0 0 42 0.0008 0 
7649 2 0.00107627 -0.0608332 -0.00619439 0 0 0 -0.000612582 -0.000714103 0.00382786 1.97756e-07 -1.01852e-07 4.26527e-07 0 0 1 0 0 0 0 0 0 0 0 0 0 0 0 0 23 0.0008 0 
4413 6 0.00394514 -0.0608455 -0.00612869 0 0 0 -0.00231208 -0.00080763 0.00176135 1.02205e-05 -3.39675e-06 5.84446e-06 1 0 0 0 0 0 0 0 0 0 0 0 0 0 0 0 40 0.0008 0 
12917 2 0.00536907 -0.0607098 -0.0068547 0 0 0 -0.00119576 -0.000348186 0.00186268 -3.41199e-15 -2.54272e-07 1.35702e-06 0 0 0 0 0 0 0 0 0 0 0 0 0 0 0 0 21 0.0008 0 
2611 5 0.00674563 -0.0608598 -0.00605238 0 0 0 -0.00103757 -1.01249e-05 1.03139e-05 1.72609e-07 2.76918e-08 -3.17918e-07 0 0 0 0 1 0 0 0 0 0 0 0 0 0 0 0 43 0.0008 0 
2015 2 0.00810823 -0.0607017 -0.00689488 0 0 0 0.0140529 -0.00160372 0.00198532 2.92424e-07 -1.01793e-05 1.09883e-06 0 1 0 0 0 0 0 0 0 0 0 0 0 0 0 0 26 0.0008 0 
12116 6 0.00982834 -0.0607799 -0.00646525 0 0 0 0.00109473 -0.00670077 0.0530629 0 -1.05196e-05 0 0 0 0 0 0 0 0 0 0 0 0 0 0 0 0 0 2 0.0008 0 
14724 5 0.0134162 -0.060713 -0.00683744 0 0 0 -0.00711724 0.00434419 -0.0232394 8.72363e-19 -2.53692e-07 1.35713e-06 0 0 0 0 0 0 0 0 0 0 0 0 0 0 0 0 0 0.0008 0 
14256 8 0.0185224 -0.0607247 -0.00677486 0 0 0 -0.0385716 -0.0018808 0.0100614 4.90088e-18 -2.53692e-07 1.35713e-06 0 0 0 0 0 0 0 0 0 0 0 0 0 0 0 0 4 0.0008 0 
10595 5 0.00244214 -0.0609356 -0.00536573 0 0 0 -0.00423403 -0.00134338 0.00715344 6.95651e-06 -3.85702e-06 7.18257e-06 0 0 1 0 1 0 0 0 0 0 0 0 0 0 0 0 37 0.0008 0 
5611 3 0.00529515 -0.0609356 -0.00527231 0 0 0 -0.000811725 2.48124e-05 -0.000787425 -1.65729e-10 -1.1732e-07 -2.03263e-10 0 0 0 0 0 0 0 0 0 0 0 0 0 0 0 0 32 0.0008 0 
12304 8 0.00826651 -0.060933 -0.00531981 0 0 0 -0.0230991 0.00117945 0.00938776 1.52184e-07 -1.16896e-05 -6.98249e-06 0 1 0 0 0 0 0 1 0 0 0 0 0 0 0 0 21 0.0008 0 
10360 1 0.0100047 -0.0609356 -0.00484523 0 0 0 0.00360541 -1.07197e-10 -0.00558935 -1.12299e-16 4.32867e-12 1.74138e-16 0 0 0 0 0 0 0 0 0 0 0 0 0 0 0 0 41 0.0008 0 
10496 1 0.0112915 -0.0609006 -0.00582901 0 0 0 0.0223067 0.00248215 0.00816807 0 -1.05196e-05 0 0 0 0 0 0 0 0 0 0 0 0 0 0 0 0 0 17 0.0008 0 
5399 2 0.0139633 -0.0609356 -0.00504736 0 0 0 0.0282802 -1.45127e-08 -0.0184615 -1.12081e-13 -3.98854e-10 7.31674e-14 0 0 0 0 0 0 0 0 0 0 0 0 0 0 0 0 34 0.0008 0 
5560 2 0.0154818 -0.0609356 -0.0055826 0 0 0 0.0314881 -3.20651e-09 -0.0158481 -2.86774e-14 5.14298e-11 1.44334e-14 0 0 0 0 0 0 0 0 0 0 0 0 0 0 0 0 27 0.0008 0 
700 8 0.0172602 -0.0609097 -0.00578502 0 0 0 0.022119 0.00343561 -0.0183789 4.2144e-14 -2.53701e-07 1.35713e-06 0 0 0 0 0 0 0 0 0 0 0 0 0 0 0 0 8 0.0008 0 
7937 2 0.00080178 -0.0609356 -0.00462149 0 0 0 0.000496136 3.402e-06 0.00408758 -4.51681e-08 -3.4168e-09 3.735e-07 0 0 0 0 0 0 0 0 0 0 0 0 0 0 0 0 37 0.0008 0 
894 6 0.00221466 -0.0609356 -0.00377891 0 0 0 -0.00617463 5.01832e-08 0.00544732 -8.67562e-14 3.40422e-12 7.6539e-14 0 0 0 0 0 0 0 0 0 0 0 0 0 0 0 0 33 0.0008 0 
9977 6 0.00381068 -0.0609356 -0.00453703 0 0 0 0.000351283 -0.000249235 -0.000571363 -3.67892e-06 -1.75903e-06 5.47493e-06 0 0 0 0 1 1 0 0 0 0 0 0 0 0 0 0 24 0.0008 0 
8455 4 0.00674827 -0.0609356 -0.00445427 0 0 0 -0.000157698 2.03944e-06 -3.69998e-05 -2.12007e-08 -2.35509e-08 7.97517e-08 0 0 0 1 1 0 0 0 0 0 0 0 0 0 0 0 52 0.0008 0 
12691 4 0.0120032 -0.0609356 -0.0043873 0 0 0 0.0193839 -7.31478e-05 0.0086227 -4.13414e-10 7.66181e-07 -1.84558e-10 0 0 0 0 0 0 0 0 0 0 0 0 0 0 0 0 29 0.0008 0 
14434 6 0.0167419 -0.0609356 -0.00416156 0 0 0 -0.00426186 -7.45777e-08 -0.00577273 2.74344e-13 5.27177e-09 2.1314e-14 0 0 0 0 0 0 0 0 0 0 0 0 0 0 0 0 1 0.0008 0 
11529 2 0.0182988 -0.0609356 -0.00453845 0 0 0 -0.00104234 1.09336e-07 0.00205424 4.89204e-13 -5.17197e-09 -4.18895e-13 0 0 0 0 0 0 0 0 0 0 0 0 0 0 0 0 10 0.0008 0 
5540 9 0.000801417 -0.0609356 -0.00301975 0 0 0 0.000724646 1.1554e-07 0.00375466 1.97031e-14 -2.97777e-09 1.2597e-13 0 0 0 0 0 0 0 0 0 0 0 0 0 0 0 0 54 0.0008 0 
1225 1 0.00367668 -0.0609356 -0.00294284 0 0 0 0.00209052 0.000365221 2.31509e-05 9.78438e-07 1.36553e-06 -3.62947e-06 1 0 0 0 0 1 0 0 0 0 0 0 0 0 0 0 140 0.0008 0 
9269 5 0.00516066 -0.0609356 -0.0036778 0 0 0 0.000187742 -1.71181e-05 -0.000454241 -2.49068e-07 3.22013e-07 -1.26062e-07 0 0 0 0 0 0 0 0 0 0 0 0 0 0 0 0 33 0.0008 0 
11208 2 0.00654056 -0.0609356 -0.00286792 0 0 0 0.000282515 3.22307e-05 2.10709e-05 -4.0935e-09 -3.14433e-08 2.91336e-07 0 0 0 1 0 0 0 0 0 0 0 0 0 0 0 0 28 0.0008 0 
10613 5 0.00817264 -0.0609356 -0.00372277 0 0 0 -0.00240405 0.000721747 0.0117434 -4.40126e-07 -7.92561e-06 5.0016e-06 0 0 0 0 0 0 0 1 0 0 0 0 0 0 0 0 25 0.0008 0 
1063 5 0.00970495 -0.0609356 -0.00326043 0 0 0 -0.000693184 1.1946e-06 -0.00239432 -2.73068e-13 -1.22884e-08 -8.25798e-13 0 0 0 0 0 0 0 0 0 0 0 0 0 0 0 0 39 0.0008 0 
5953 8 0.0120355 -0.0609353 -0.00278027 0 0 0 0.0180783 -0.000368925 -0.00359099 6.1308e-07 -1.01142e-05 1.45774e-06 0 0 0 0 0 0 0 1 0 0 0 0 0 0 0 0 22 0.0008 0 
7286 3 0.013492 -0.0609356 -0.00346582 0 0 0 -0.00621151 2.50729e-12 -0.0213211 -5.99055e-19 0 -2.41711e-18 0 0 0 0 0 0 0 0 0 0 0 0 0 0 0 0 13 0.0008 0 
215 2 0.0151934 -0.0609356 -0.00375669 0 0 0 -0.00561912 -1.87648e-11 -0.0148983 9.60359e-17 4.72353e-11 2.54709e-16 0 0 0 0 0 0 0 0 0 0 0 0 0 0 0 0 33 0.0008 0 
5167 8 0.0178493 -0.0609356 -0.00296863 0 0 0 -0.000402772 -3.13243e-12 -0.0077506 -7.52052e-20 0 9.84676e-19 0 0 0 0 0 0 0 0 0 0 0 0 0 0 0 0 23 0.0008 0 
16158 5 0.00182419 -0.0473682 -0.00318946 0 0 0 -4.03812 11.4703 2.4626 0 -1.05196e-05 0 0 0 0 0 0 0 0 0 0 0 0 0 0 0 0 0 0 0.0008 0 
9680 4 0.00221159 -0.0609355 -0.00217876 0 0 0 -0.00271028 -0.000301991 0.000362337 1.48296e-06 -4.61056e-06 -9.17098e-06 0 0 0 1 0 0 0 0 0 0 0 0 0 0 0 0 36 0.0008 0 
6408 2 0.00503772 -0.0609356 -0.00208243 0 0 0 0.000684971 5.56458e-05 -0.000260746 5.3886e-08 1.45242e-08 -2.49003e-07 0 0 0 0 0 0 0 0 0 0 0 0 0 0 0 0 22 0.0008 0 
4634 2 0.00795329 -0.0609356 -0.00211638 0 0 0 0.000832709 -2.32182e-08 -0.00176034 -4.09606e-14 4.57631e-09 4.35424e-13 0 0 0 0 0 0 0 0 0 0 0 0 0 0 0 0 35 0.0008 0 
9715 3 0.0106484 -0.0609357 -0.00196596 0 0 0 -0.00203644 -0.000161866 -0.00384044 -1.86143e-07 5.25826e-06 -4.03998e-06 0 0 1 0 0 0 0 0 0 0 0 0 0 0 0 0 17 0.0008 0 
9279 2 0.0147135 -0.0609356 -0.00221816 0 0 0 -0.00129982 7.62418e-07 -0.0102301 -2.64917e-13 -4.83464e-09 -2.20952e-12 0 0 0 0 0 0 0 0 0 0 0 0 0 0 0 0 8 0.0008 0 
7893 2 0.0163211 -0.0609356 -0.00248833 0 0 0 -0.000707827 6.70757e-10 -0.011742 -1.4998e-16 -9.54461e-11 -2.48802e-15 0 0 0 0 0 0 0 0 0 0 0 0 0 0 0 0 22 0.0008 0 
1200 7 0.000800284 -0.0609356 -0.00141429 0 0 0 -0.00187392 2.33562e-11 0.00491592 -1.1668e-17 9.32157e-13 3.06019e-17 0 0 0 0 0 0 0 0 0 0 0 0 0 0 0 0 53 0.0008 0 
3512 5 0.00360715 -0.0609357 -0.00134455 0 0 0 0.000732081 0.000197407 0.000225967 2.10977e-06 3.36098e-07 1.2277e-06 1 0 0 0 1 0 0 0 0 0 0 0 0 0 0 0 54 0.0008 0 
6702 2 0.00641794 -0.0609356 -0.00127278 0 0 0 0.000884927 9.49295e-06 0.000142442 -5.03093e-08 -4.97245e-07 1.53977e-07 0 1 0 0 0 0 0 0 0 0 0 0 0 0 0 0 14 0.0008 0 
4185 5 0.00925222 -0.0609356 -0.00118067 0 0 0 0.0024543 -5.48524e-09 -0.00282485 -1.19955e-13 -4.26512e-09 -5.09201e-13 0 0 0 0 0 0 0 0 0 0 0 0 0 0 0 0 57 0.0008 0 
9160 14 0.012042 -0.0609355 -0.00118035 0 0 0 -0.00192417 0.00111475 -0.00213229 4.47815e-06 -8.69717e-06 -7.44924e-06 0 0 1 0 0 0 0 1 0 0 0 0 0 1 0 0 24 0.0008 0 
3983 3 0.0136367 -0.0609356 -0.00103334 0 0 0 0.00110076 -7.47178e-07 -0.00718852 -5.0553e-10 5.63776e-08 5.67343e-11 0 0 0 0 0 0 0 0 0 0 0 0 0 0 0 0 14 0.0008 0 
12872 6 0.0157621 -0.0609356 -0.000988013 0 0 0 -0.00480911 -0.000279088 -0.0128786 5.0194e-06 2.89016e-07 2.00298e-06 0 0 0 0 0 0 0 0 0 0 0 0 0 0 0 0 10 0.0008 0 
11531 3 0.0185463 -0.0609356 -0.00152079 0 0 0 -0.0105636 2.82956e-12 -0.00166707 1.95666e-19 0 3.00844e-19 0 0 0 0 0 0 0 0 0 0 0 0 0 0 0 0 12 0.0008 0 
1871 2 0.000800507 -0.0609356 0.000211792 0 0 0 0.000242839 -2.41987e-07 0.00590489 -1.63721e-14 3.49706e-10 -4.00682e-13 0 0 0 0 0 0 0 0 0 0 0 0 0 0 0 0 67 0.0008 0 
414 7 0.00220238 -0.0609356 -0.00057904 0 0 0 0.000706106 -0.000355155 0.00162228 -8.81455e-06 6.627e-06 -1.54038e-05 0 0 0 1 1 0 0 0 0 0 0 0 0 0 0 0 35 0.0008 0 
101 5 0.0036053 -0.0609356 0.000256101 0 0 0 0.00192157 -3.75726e-05 -8.7432e-05 -2.62491e-07 -5.94913e-07 3.5953e-07 0 0 0 0 1 0 0 0 0 0 0 0 0 0 0 0 59 0.0008 0 
553 2 0.00502526 -0.0609356 -0.000482522 0 0 0 0.000377954 -2.33768e-05 -4.3915e-06 1.68285e-07 2.42617e-09 -9.04966e-07 0 1 0 0 0 0 0 0 0 0 0 0 0 0 0 0 34 0.0008 0 
1002 3 0.0064061 -0.0609356 0.000326979 0 0 0 5.49485e-05 -3.4912e-05 7.96351e-05 -9.6795e-08 2.21347e-07 -1.40203e-06 0 1 1 0 0 0 0 0 0 0 0 0 0 0 0 0 38 0.0008 0 
72 4 0.0078049 -0.0609356 -0.00047288 0 0 0 0.00113597 -1.01166e-09 -0.000256619 -3.19022e-16 -9.46122e-12 7.20646e-17 0 0 0 0 0 0 0 0 0 0 0 0 0 0 0 0 34 0.0008 0 
4095 1 0.00923164 -0.0609356 0.000423123 0 0 0 -0.00217548 -1.16793e-07 -0.00682213 7.2195e-14 1.91398e-09 2.2643e-13 0 0 0 0 0 0 0 0 0 0 0 0 0 0 0 0 42 0.0008 0 
8603 2 0.0106301 -0.0609356 -0.000365845 0 0 0 0.000446687 7.16098e-05 -0.00195781 -2.19161e-08 2.2481e-06 -1.6785e-07 0 0 0 0 0 0 0 0 0 0 0 0 0 0 0 0 25 0.0008 0 
9639 4 0.0120344 -0.0609356 0.000419305 0 0 0 0.00107073 0.000185923 -0.000628821 1.39734e-06 4.47444e-06 -1.21392e-05 0 0 0 1 0 0 0 0 0 0 0 0 0 1 0 0 21 0.0008 0 
7431 2 0.0146711 -0.0609356 0.000188713 0 0 0 0.0013158 0.000180374 -0.00626552 -5.67398e-07 4.38405e-07 -3.82149e-07 0 1 0 0 0 0 0 0 0 0 0 0 0 0 0 0 27 0.0008 0 
5950 1 0.0172446 -0.0609356 -0.000383673 0 0 0 -0.00447569 -0.00155197 -0.00513759 1.14475e-05 1.35007e-05 3.63269e-06 0 0 0 0 0 0 0 0 0 0 0 0 0 0 0 0 20 0.0008 0 
690 7 0.00219933 -0.0609356 0.00102058 0 0 0 0.000343176 -3.79487e-05 0.00171994 -1.0352e-06 1.43017e-07 -2.93915e-06 0 0 0 0 0 0 1 0 0 0 0 0 0 0 0 0 49 0.0008 0 
585 3 0.00501499 -0.0609356 0.00111734 0 0 0 0.000152885 -0.000118842 0.000145084 5.51879e-07 7.05882e-08 -9.54503e-08 0 1 2 0 0 0 0 0 0 0 0 0 0 0 0 0 67 0.0008 0 
4165 3 0.00779281 -0.0609356 0.00112747 0 0 0 0.000587748 -1.31337e-10 -0.000191108 -2.13906e-17 -3.60886e-14 6.95273e-18 0 0 0 0 0 0 0 0 0 0 0 0 0 0 0 0 21 0.0008 0 
1367 1 0.0106287 -0.0609356 0.00123474 0 0 0 0.00181407 -0.000124513 -0.00138608 1.21661e-06 -3.99205e-07 -2.12795e-06 1 0 0 0 0 0 0 0 0 0 0 0 0 0 0 0 83 0.0008 0 
3427 4 0.013431 -0.0609357 0.00119983 0 0 0 0.00419649 0.000362673 -0.0021581 -2.55976e-05 8.63953e-06 -6.23933e-06 0 0 0 1 0 0 0 0 0 0 0 0 0 0 0 0 33 0.0008 0 
1887 11 0.0161006 -0.0609356 0.000907114 0 0 0 -3.08967e-05 7.67916e-05 -0.00270618 5.31068e-07 -1.41755e-06 8.42106e-07 0 1 0 0 0 0 0 0 0 0 1 0 0 0 0 0 28 0.0008 0 
11571 10 0.0176703 -0.0609356 0.00121636 0 0 0 -0.000153774 -0.000154564 0.000385779 -1.4165e-07 -2.66479e-06 -1.68734e-06 0 0 0 0 0 0 0 0 0 2 1 0 0 0 0 0 15 0.0008 0 
206 1 0.000801414 -0.0609356 0.00181602 0 0 0 0.00111865 -0.000171411 0.00121468 1.62395e-09 1.92138e-07 4.58332e-09 0 0 0 0 0 0 0 0 0 0 0 0 0 0 0 0 91 0.0008 0 
317 1 0.00359588 -0.0609356 0.00185604 0 0 0 0.000557847 2.26185e-05 0.000407648 -5.29789e-06 2.75851e-07 2.82557e-06 1 0 1 0 1 0 0 0 0 0 0 0 0 0 0 0 71 0.0008 0 
1470 6 0.00640547 -0.0609356 0.00192674 0 0 0 0.000650799 4.0037e-05 7.74482e-05 8.85385e-07 3.19148e-07 1.81716e-07 0 0 1 0 0 1 0 0 0 0 0 0 0 0 0 0 64 0.0008 0 
4938 7 0.00923087 -0.0609356 0.00203029 0 0 0 -0.00117763 -3.00213e-06 -0.00543072 -8.3873e-10 7.29693e-08 3.01717e-10 0 0 0 0 0 0 0 0 0 0 0 0 0 0 0 0 91 0.0008 0 
7185 2 0.0120363 -0.0609356 0.00201881 0 0 0 0.00137232 -0.00112608 0.000558641 1.74555e-05 5.48076e-06 -2.31466e-05 0 1 0 1 0 0 0 0 0 0 0 0 0 0 0 0 51 0.0008 0 
1366 5 0.0148534 -0.0609356 0.00193209 0 0 0 0.00211525 -6.37631e-05 -0.00472902 1.25565e-05 -9.21032e-07 8.46522e-07 0 0 0 1 0 0 0 0 0 0 0 0 0 0 0 0 22 0.0008 0 
4164 1 0.0163812 -0.0609356 0.0024845 0 0 0 -0.00547723 5.83581e-13 -0.0044695 -6.12019e-19 -5.3155e-15 -6.10175e-19 0 0 0 0 0 0 0 0 0 0 0 0 0 0 0 0 24 0.0008 0 
1972 6 0.00079999 -0.0609356 0.00341692 0 0 0 0.000189653 0.000112625 0.00252914 -1.67015e-06 -6.493e-07 -1.34591e-06 0 0 0 0 0 1 0 0 0 0 0 0 0 0 0 0 124 0.0008 0 
280 2 0.00219019 -0.0609356 0.00262023 0 0 0 0.00104791 -0.000213934 0.0010954 -1.08143e-06 2.4883e-07 6.69447e-06 1 1 0 0 0 0 1 0 0 0 0 0 0 0 0 0 91 0.0008 0 
1705 8 0.00358981 -0.0609356 0.00345635 0 0 0 0.000177703 -2.02765e-05 0.000423299 -1.79254e-06 -3.43097e-07 -4.92478e-07 0 0 0 0 0 0 0 2 0 0 0 0 0 0 0 0 156 0.0008 0 
2069 4 0.00500879 -0.0609356 0.00271723 0 0 0 -0.00042485 2.95311e-05 -5.98311e-06 2.47118e-06 -8.61342e-07 1.1844e-06 0 0 1 1 0 0 0 1 0 0 0 0 0 0 0 0 112 0.0008 0 
154 3 0.00640367 -0.0609356 0.00352649 0 0 0 5.38982e-05 -2.0225e-05 0.000175558 -1.39692e-07 -6.10236e-07 5.45376e-07 0 0 2 0 0 1 0 0 0 0 0 0 0 0 0 0 90 0.0008 0 
1920 3 0.00779078 -0.0609356 0.00272753 0 0 0 0.00112384 -1.1088e-06 -0.000556079 7.07301e-09 -3.70207e-08 -3.17348e-09 0 0 0 0 0 0 0 0 0 0 0 0 0 0 0 0 40 0.0008 0 
1036 2 0.0106293 -0.0609356 0.00283459 0 0 0 -0.000553164 0.000139718 -0.00178029 -1.20063e-07 1.54156e-06 5.39332e-06 1 0 0 0 0 0 0 0 0 0 0 0 0 0 0 0 39 0.0008 0 
4532 9 0.0120266 -0.0609357 0.00361824 0 0 0 0.00143424 -6.23442e-05 -0.00261492 2.1531e-05 1.25125e-05 2.44385e-05 0 1 0 0 0 0 0 0 1 0 0 0 0 0 0 0 53 0.0008 0 
1118 3 0.013485 -0.0609356 0.00279959 0 0 0 0.00171699 1.98332e-06 -0.00567483 -1.64163e-13 4.82209e-09 -7.8483e-12 0 0 0 0 0 0 0 0 0 0 0 0 0 0 0 0 66 0.0008 0 
10907 2 0.0149076 -0.0609356 0.00353213 0 0 0 0.00099073 -6.72087e-07 -0.00393971 2.85934e-11 3.6279e-08 9.27931e-12 0 0 0 0 0 0 0 0 0 0 0 0 0 0 0 0 20 0.0008 0 
3630 1 0.018019 -0.0609356 0.00277811 0 0 0 0.0018304 -9.33469e-12 -0.00170286 -6.84041e-18 8.03298e-14 6.28587e-18 0 0 0 0 0 0 0 0 0 0 0 0 0 0 0 0 22 0.0008 0 
1894 5 0.00218382 -0.0609357 0.00422001 0 0 0 0.000513269 7.09642e-05 0.00060057 2.1337e-07 1.23668e-06 3.43168e-06 0 1 0 0 2 1 0 1 0 0 0 0 0 0 0 0 157 0.0008 0 
531 10 0.0050129 -0.0609356 0.00431712 0 0 0 -1.28745e-05 -2.67516e-05 -9.67836e-06 -1.0146e-06 -5.93614e-07 -4.35338e-08 0 0 1 1 0 0 0 0 0 2 0 0 0 0 0 0 155 0.0008 0 
3087 1 0.00778825 -0.0609356 0.00432803 0 0 0 0.000513659 3.64827e-05 -0.000163672 6.49058e-07 1.95236e-07 3.57333e-07 1 0 1 0 0 0 0 0 0 0 0 0 0 0 0 0 103 0.0008 0 
18 2 0.00926039 -0.0609356 0.00366271 0 0 0 -0.00906985 4.96227e-05 -0.0149446 -1.49742e-06 -1.50215e-06 2.10412e-06 0 0 0 0 0 0 0 0 0 0 0 0 0 0 0 0 59 0.0008 0 
6544 1 0.010674 -0.0609355 0.00447162 0 0 0 -0.00415557 0.00145881 -0.0105253 -4.48028e-05 -7.35698e-06 3.96675e-05 0 0 0 0 0 0 0 0 1 0 0 0 0 0 0 0 56 0.0008 0 
1890 2 0.0135374 -0.0609356 0.00439896 0 0 0 -0.00673538 -1.48701e-06 -0.00514203 2.95511e-12 -6.41626e-09 6.73197e-12 0 0 0 0 0 0 0 0 0 0 0 0 0 0 0 0 64 0.0008 0 
1749 6 0.0164034 -0.0609356 0.00410029 0 0 0 -0.00018417 4.26508e-05 -0.00116197 -2.89096e-07 8.39914e-07 -3.0106e-08 0 0 0 0 0 1 0 0 0 0 0 0 0 0 0 0 34 0.0008 0 
11044 4 0.0179785 -0.0609356 0.00438128 0 0 0 0.000293945 -6.26312e-06 -0.00197925 9.42222e-07 -1.17259e-06 1.15935e-07 0 0 0 0 0 1 0 0 0 0 0 0 0 0 0 0 25 0.0008 0 
16216 9 0.00815534 -0.058702 0.00380706 0 0 0 1.97133 0.293845 6.2801 0 -1.05196e-05 0 0 0 0 0 0 0 0 0 0 0 0 0 0 0 0 0 0 0.0008 0 
733 3 0.000799941 -0.0609356 0.00502282 0 0 0 1.9011e-05 -2.30548e-05 -8.62625e-05 -4.43824e-07 -1.18527e-06 -1.33106e-06 0 0 1 0 1 0 0 0 0 0 0 0 0 0 0 0 153 0.0008 0 
2352 2 0.00359807 -0.0609356 0.00506419 0 0 0 -0.000513785 3.04967e-05 -0.00109839 -6.94652e-07 -3.20635e-07 9.35996e-07 0 0 0 0 0 0 0 0 0 1 0 0 0 0 0 0 138 0.0008 0 
1045 8 0.00640261 -0.0609356 0.00512845 0 0 0 -0.000340203 9.32351e-06 -0.00149493 6.91919e-07 8.33663e-07 -1.29047e-06 0 0 0 0 0 0 0 1 0 0 0 0 0 0 0 0 97 0.0008 0 
4248 10 0.00927627 -0.0609356 0.00528768 0 0 0 -0.00389842 1.27947e-05 -0.0123865 7.36628e-07 1.24547e-08 6.56004e-08 0 0 0 0 0 0 0 0 0 1 0 0 0 0 0 0 106 0.0008 0 
9210 2 0.0121524 -0.0609357 0.00521345 0 0 0 -0.000851625 -1.23156e-05 -0.00426641 -9.9042e-11 4.32636e-06 1.54671e-08 0 0 0 0 0 0 0 0 0 0 0 0 0 0 0 0 38 0.0008 0 
6574 6 0.0151557 -0.0609356 0.00511314 0 0 0 -0.00186428 8.38978e-07 -0.00387601 1.02847e-07 -1.57762e-08 -1.946e-07 0 0 0 0 0 1 0 0 0 0 0 0 0 0 0 0 56 0.0008 0 
7843 6 0.0169479 -0.0609357 0.00561208 0 0 0 -0.00153993 0.00033636 -0.00203756 -7.113e-07 1.35537e-06 -1.25592e-06 0 0 0 0 0 2 0 0 0 0 0 0 0 0 0 0 37 0.0008 0 
2641 8 0.000799843 -0.060755 0.00661247 0 0 0 4.02376e-05 5.44303e-07 -9.58732e-05 1.28373e-06 4.51912e-07 -7.89978e-07 0 0 1 0 0 0 0 2 0 0 0 0 0 0 0 0 149 0.0008 0 
210 4 0.0021879 -0.0609033 0.00581961 0 0 0 0.000684418 4.60074e-05 0.00038256 3.78739e-07 1.77246e-07 -4.69711e-07 0 0 0 0 1 0 0 0 0 0 0 0 0 0 0 0 114 0.0008 0 
3869 8 0.00359738 -0.0607472 0.00665451 0 0 0 -8.01655e-05 -0.00013621 -0.000600211 1.93811e-06 3.17466e-07 3.30841e-06 0 0 0 0 0 0 0 3 0 0 0 0 0 0 0 0 124 0.0008 0 
2116 2 0.00500979 -0.0608853 0.00591609 0 0 0 0.000258271 -4.27148e-05 5.1445e-06 -6.59703e-07 -9.54053e-08 -3.31629e-07 0 1 0 0 0 0 0 1 0 1 0 0 0 0 0 0 156 0.0008 0 
6076 6 0.00642552 -0.0607358 0.00671563 0 0 0 0.000465747 2.4313e-05 -0.00136213 5.86685e-07 -8.68405e-07 1.48338e-06 0 0 0 0 0 0 0 1 0 0 0 0 0 0 0 0 63 0.0008 0 
12 4 0.00781048 -0.0608832 0.00592685 0 0 0 0.00126167 0.000114522 5.90504e-05 6.43226e-07 -1.79248e-07 2.42873e-07 1 0 0 1 0 0 0 0 0 1 0 0 0 0 0 0 83 0.0008 0 
3998 3 0.0108047 -0.060855 0.00607755 0 0 0 -0.00486084 -0.00169176 -0.00908457 7.75165e-11 -2.01015e-07 -1.36762e-06 0 0 0 0 0 0 0 0 0 0 0 0 0 0 0 0 69 0.0008 0 
9650 1 0.0124206 -0.0607243 0.00677686 0 0 0 -0.00272579 -0.000942575 -0.00442708 6.93022e-08 3.45308e-07 -1.65321e-06 1 0 0 0 0 0 0 0 0 0 0 0 0 0 0 0 21 0.0008 0 
5900 8 0.0138172 -0.0608719 0.00598732 0 0 0 -0.00631788 -0.00196857 -0.0105285 -2.808e-07 -1.8276e-07 -1.03058e-06 0 0 0 0 0 1 0 0 0 0 0 0 0 0 0 0 42 0.0008 0 
11656 4 0.0157499 -0.060747 0.00665561 0 0 0 0.00089081 0.000203688 0.000913391 -3.55023e-06 -2.19812e-07 1.56653e-06 0 0 0 0 0 1 0 0 0 0 0 0 0 0 0 0 38 0.0008 0 
2966 5 0.0184458 -0.0608385 0.0061655 0 0 0 -0.00112279 -0.000350883 -0.00102723 9.22036e-08 -5.66935e-06 -2.92935e-06 0 0 0 0 2 1 0 0 0 0 0 0 0 0 0 0 37 0.0008 0 
3865 4 0.00218673 -0.0606086 0.00739616 0 0 0 8.33253e-05 -4.94941e-05 -0.000104193 1.03208e-06 6.22834e-07 5.4472e-07 0 0 0 1 0 0 0 2 0 0 0 0 0 0 0 0 117 0.0008 0 
9441 6 0.00503227 -0.0605912 0.00748862 0 0 0 0.000410046 -0.000250433 -4.29649e-05 -2.36598e-06 -2.18308e-06 -1.84157e-06 0 1 0 0 0 1 0 0 0 0 0 0 0 0 0 0 68 0.0008 0 
3081 3 0.0079241 -0.06059 0.00749549 0 0 0 -0.00423216 -9.33424e-06 0.000707068 -2.31873e-07 1.8244e-07 4.85686e-07 0 0 1 1 0 0 0 0 0 0 0 0 0 0 0 0 72 0.0008 0 
1541 1 0.00942341 -0.0607062 0.00687392 0 0 0 -0.00656615 -0.00196057 -0.0104929 -1.43755e-12 -2.55899e-07 -1.35675e-06 0 0 0 0 0 0 0 0 0 0 0 0 0 0 0 0 49 0.0008 0 
12874 9 0.0110819 -0.0605633 0.00763816 0 0 0 -0.00325418 -0.0009039 -0.0049931 3.98071e-07 -2.30212e-07 -2.91493e-06 1 0 0 0 0 0 0 0 1 0 0 0 0 0 0 0 16 0.0008 0 
3491 3 0.0143718 -0.060596 0.00746318 0 0 0 -0.00344481 -0.00212575 -0.0113713 5.44496e-13 -2.68821e-07 -1.35417e-06 0 0 0 0 0 0 0 0 0 0 0 0 0 0 0 0 41 0.0008 0 
6493 9 0.0171248 -0.0605853 0.00752052 0 0 0 0.0020749 0.00166119 0.00888657 -7.14126e-18 -2.53692e-07 -1.35713e-06 0 0 0 0 0 0 0 0 0 0 0 0 0 0 0 0 27 0.0008 0 
12903 1 0.00242229 -0.0583667 0.00724064 0 0 0 0.493491 0.332781 6.26168 0 -1.05196e-05 0 0 0 0 0 0 0 0 0 0 0 0 0 0 0 0 0 17 0.0008 0 
5921 1 0.00850942 -0.0495993 0.00765971 0 0 0 -0.6732 0.677599 4.61261 0 -1.05196e-05 0 0 0 0 0 0 0 0 0 0 0 0 0 0 0 0 0 36 0.0008 0 
5113 5 0.000801358 -0.0604611 0.008185 0 0 0 0.000413914 0.000201282 0.000122443 1.5722e-06 5.04842e-07 2.23181e-06 0 0 0 0 1 0 0 1 0 0 0 0 0 0 0 0 93 0.0008 0 
1165 1 0.00361474 -0.0604532 0.00822708 0 0 0 -0.00187124 -0.000114217 -0.000584348 -3.23267e-07 7.20347e-07 2.05573e-06 0 0 0 0 0 0 0 1 0 0 0 0 0 0 0 0 132 0.0008 0 
4050 3 0.00650439 -0.0604421 0.00828656 0 0 0 -0.00491737 -0.000197441 -0.00114818 1.5601e-09 -2.2808e-08 -1.39168e-06 0 0 0 0 0 0 0 0 0 0 0 0 0 0 0 0 18 0.0008 0 
3877 5 0.00965803 -0.060414 0.00843686 0 0 0 -0.00929474 -0.00150335 -0.0081445 -5.81818e-11 -5.93646e-07 -1.29197e-06 0 0 0 0 0 0 0 0 0 0 0 0 0 0 0 0 48 0.0008 0 
13214 1 0.0129843 -0.0604492 0.00824878 0 0 0 -0.000830633 -0.000996008 -0.00516277 9.16014e-10 6.93899e-07 -1.53713e-06 0 0 0 0 0 0 0 0 0 0 0 0 0 0 0 0 7 0.0008 0 
6053 1 0.0157315 -0.0604088 0.00846492 0 0 0 0.0224357 -0.00610261 -0.032646 4.85185e-18 -2.53692e-07 -1.35713e-06 0 0 0 0 0 0 0 0 0 0 0 0 0 0 0 0 43 0.0008 0 
4325 3 0.00220149 -0.0603146 0.00896877 0 0 0 -0.00290581 5.67096e-05 0.000157918 -8.74406e-07 4.9757e-07 -1.20569e-06 0 0 1 1 0 0 0 0 0 0 0 0 0 0 0 0 76 0.0008 0 
8682 5 0.00510029 -0.0602976 0.00905981 0 0 0 0.0032452 1.18572e-05 0.000134646 -2.94597e-07 -1.07027e-07 -1.21846e-06 0 0 0 0 1 1 0 0 0 0 0 0 0 0 0 0 31 0.0008 0 
5875 2 0.00818296 -0.0602998 0.00904735 0 0 0 -0.00416446 -7.02585e-05 0.000953024 8.54051e-07 1.68954e-06 -4.2367e-07 0 1 1 0 0 0 0 0 0 0 0 0 0 0 0 0 33 0.0008 0 
8267 8 0.0114668 -0.060278 0.00916459 0 0 0 -0.0148372 -0.000317366 -0.00198471 9.53233e-08 -5.01103e-07 3.3982e-06 0 0 0 0 0 0 0 0 1 0 0 0 0 0 0 0 24 0.0008 0 
10425 1 0.000800078 -0.0601671 0.00975754 0 0 0 -0.00208469 -0.000203063 0.000255356 -3.08264e-06 -3.54477e-06 6.1827e-06 1 0 0 0 1 0 0 0 0 0 0 0 0 0 0 0 37 0.0008 0 
2858 2 0.00379774 -0.0601269 0.00997296 0 0 0 -0.00457643 -0.00199306 -0.0107377 3.86565e-06 1.73055e-06 1.17449e-06 0 1 0 0 1 0 0 0 0 0 0 0 0 0 0 0 59 0.0008 0 
13823 5 0.00676475 -0.060152 0.00983856 0 0 0 -0.00988313 1.22251e-05 0.00017181 5.04896e-10 -4.9401e-07 -1.30463e-06 0 0 0 0 0 0 0 0 0 0 0 0 0 0 0 0 0 0.0008 0 
2150 5 0.00998818 -0.0601248 0.00998387 0 0 0 -0.0309164 0.000179267 0.000949339 1.59699e-07 -3.67403e-07 -1.31768e-06 0 0 0 0 0 0 0 0 0 0 0 0 0 0 0 0 39 0.0008 0 
6057 3 0.0138151 -0.0601843 0.00966554 0 0 0 0.0274442 -0.00351114 -0.018783 5.76422e-14 -2.53786e-07 -1.35711e-06 0 0 0 0 0 0 0 0 0 0 0 0 0 0 0 0 32 0.0008 0 
5016 1 0.00230481 -0.0600212 0.0105382 0 0 0 -0.000331858 -5.61758e-05 0.000247277 -3.22181e-06 -9.58184e-07 -1.07671e-06 2 0 0 0 0 0 0 0 0 0 0 0 0 0 0 0 36 0.0008 0 
11158 7 0.00533174 -0.0600014 0.0106443 0 0 0 -0.0168884 0.000555128 0.00296967 4.39868e-18 -2.53692e-07 -1.35713e-06 0 0 0 0 0 0 0 0 0 0 0 0 0 0 0 0 10 0.0008 0 