ITEM: TIMESTEP
5100000
ITEM: NUMBER OF ATOMS
619
ITEM: BOX BOUNDS ff ff ff
-0.01 0.45
-0.15 0.15
-0.08 0.1
ITEM: ATOMS id type x y z ix iy iz vx vy vz fx fy fz c_cc_1 c_cc_2 c_cc_3 c_cc_4 c_cc_5 c_cc_6 c_cc_7 c_cc_8 c_cc_9 c_cc_10 c_cc_11 c_cc_12 c_cc_13 c_cc_14 c_cc_15 c_cc_16 f_fppacc radius 
430 4 0.0150861 -0.0566203 -0.00931694 0 0 0 0.861463 -2.51584 9.28126 0 -0.000164368 0 0 0 0 0 0 0 0 0 0 0 0 0 0 0 0 0 1 0.002 
102 1 0.00363488 -0.0085986 0.0477223 0 0 0 0.354628 -3.69722 -3.10265 0 -0.000164368 0 0 0 0 0 0 0 0 0 0 0 0 0 0 0 0 0 7 0.002 
629 8 0.0117994 -0.0306068 0.0490587 0 0 0 -7.35742 33.3874 22.5294 0 -0.000164368 0 0 0 0 0 0 0 0 0 0 0 0 0 0 0 0 0 0 0.002 
454 2 0.00485592 0.0343243 -0.0203665 0 0 0 0.210665 0.616189 2.78617 0 -0.000164368 0 0 0 0 0 0 0 0 0 0 0 0 0 0 0 0 0 9 0.002 
519 1 0.00306521 0.0296177 -0.0220278 0 0 0 -1.58965 -5.85629 -10.0429 0 -0.000164368 0 0 0 0 0 0 0 0 0 0 0 0 0 0 0 0 0 0 0.002 
191 2 0.016754 0.0359907 0.0263724 0 0 0 7.29919 -9.60679 5.01962 -0.1261 0.306452 -0.425702 0 0 0 0 0 0 0 0 0 0 0 0 0 0 0 0 4 0.002 
627 2 0.0128229 0.00399282 0.053132 0 0 0 4.79596 -2.44339 -5.77192 0 -0.000164368 0 0 0 0 0 0 0 0 0 0 0 0 0 0 0 0 0 0 0.002 
41 1 0.0151321 0.052852 -0.0355 0 0 0 -1.56563e-30 4.0476e-20 2.80429e-12 5.59641e-31 1.35525e-20 0 0 0 0 0 0 0 0 0 0 0 0 0 0 0 0 0 1 0.002 
375 4 0.00352989 0.0621309 -0.0273669 0 0 0 0.868539 1.71598 -1.46687 0 -0.000164368 0 0 0 0 0 0 0 0 0 0 0 0 0 0 0 0 0 3 0.002 
618 7 0.00314115 0.0648978 -0.0237079 0 0 0 -13.6793 -3.91192 4.04384 0 -0.000164368 0 0 0 0 0 0 0 0 0 0 0 0 0 0 0 0 0 0 0.002 
628 2 0.00558815 0.068518 -0.026039 0 0 0 2.43273 -4.06927 -0.619453 0 -0.000164368 0 0 0 0 0 0 0 0 0 0 0 0 0 0 0 0 0 0 0.002 
195 7 0.0163626 0.0595832 -0.0206521 0 0 0 3.09042 -2.89229 7.3478 0 -0.000164368 0 0 0 0 0 0 0 0 0 0 0 0 0 0 0 0 0 5 0.002 
280 6 0.00560969 0.04067 -0.00649539 0 0 0 -2.14828 -6.35739 4.17576 0 -0.000164368 0 0 0 0 0 0 0 0 0 0 0 0 0 0 0 0 0 5 0.002 
410 6 0.0178266 0.0676099 0.0156531 0 0 0 7.49298 1.35747 7.86555 0 -0.000164368 0 0 0 0 0 0 0 0 0 0 0 0 0 0 0 0 0 2 0.002 
208 9 0.0179888 0.0494026 0.0119388 0 0 0 0.268841 -0.0168894 -6.22493 0 -0.000164368 0 0 0 0 0 0 0 0 0 0 0 0 0 0 0 0 0 12 0.002 
334 2 0.0151063 0.0384439 0.0237316 0 0 0 4.57269 -2.69137 -1.16866 0.1261 -0.306781 0.425702 0 0 0 0 0 0 0 0 0 0 0 0 0 0 0 0 6 0.002 
531 1 0.00603359 0.0382339 0.0210087 0 0 0 0.367992 -0.425493 -0.26551 0 -0.000164368 0 0 0 0 0 0 0 0 0 0 0 0 0 0 0 0 0 4 0.002 
134 2 0.0038259 0.0555577 0.0217252 0 0 0 1.21131 -3.5373 0.708605 0 -0.000164368 0 0 0 0 0 0 0 0 0 0 0 0 0 0 0 0 0 0 0.002 
103 5 0.00325205 0.0668438 0.0221412 0 0 0 0.881413 0.627501 -0.660031 0 -0.000164368 0 0 0 0 0 0 0 0 0 0 0 0 0 0 0 0 0 5 0.002 
272 2 0.0159857 0.0689141 0.0219766 0 0 0 -0.992166 0.402249 -0.130767 0 -0.000164368 0 0 0 0 0 0 0 0 0 0 0 0 0 0 0 0 0 2 0.002 
617 9 0.0070068 0.0739077 0.0247149 0 0 0 0.267139 2.1937 -0.11767 0 -0.000164368 0 0 0 0 0 0 0 0 0 0 0 0 0 0 0 0 0 0 0.002 
516 2 0.00582237 0.0562762 0.0325095 0 0 0 -1.87416 -0.737219 -0.465568 0 -0.000164368 0 0 0 0 0 0 0 0 0 0 0 0 0 0 0 0 0 0 0.002 
599 6 0.00478699 0.0472566 0.0255258 0 0 0 1.21119 -0.682922 -0.223951 0 -0.000164368 0 0 0 0 0 0 0 0 0 0 0 0 0 0 0 0 0 0 0.002 
16 3 0.0116212 0.0621195 0.0301417 0 0 0 1.68058 -1.33443 0.867429 0 -0.000164368 0 0 0 0 0 0 0 0 0 0 0 0 0 0 0 0 0 11 0.002 
604 8 0.0181024 0.0671589 0.0286503 0 0 0 -0.704101 -0.290342 0.448943 0 -0.000164368 0 0 0 0 0 0 0 0 0 0 0 0 0 0 0 0 0 0 0.002 
536 2 0.00712869 0.0724371 0.0297172 0 0 0 -0.201794 0.0324432 -0.928736 0 -0.000164368 0 0 0 0 0 0 0 0 0 0 0 0 0 0 0 0 0 3 0.002 
630 2 0.0134524 0.0471411 0.0314414 0 0 0 7.43508 -6.58655 -5.20361 0 -0.000164368 0 0 0 0 0 0 0 0 0 0 0 0 0 0 0 0 0 0 0.002 
237 10 0.0166749 0.0522424 0.0297355 0 0 0 1.13158 -4.29692 -1.38547 0 -0.000164368 0 0 0 0 0 0 0 0 0 0 0 0 0 0 0 0 0 8 0.002 
368 5 0.0138511 0.0395826 0.0317867 0 0 0 4.74119 1.12661 -2.79793 0 -0.000164368 0 0 0 0 0 0 0 0 0 0 0 0 0 0 0 0 0 1 0.002 
317 11 0.0101853 0.0421331 0.0336696 0 0 0 0.155537 -2.62685 1.65469 0 -0.000164368 0 0 0 0 0 0 0 0 0 0 0 0 0 0 0 0 0 6 0.002 
4 6 0.0163508 0.0583156 0.0191819 0 0 0 -12.5178 8.84459 -11.1678 0 -0.000164368 0 0 0 0 0 0 0 0 0 0 0 0 0 0 0 0 0 4 0.002 
556 7 0.00467759 0.107454 -0.0328771 0 0 0 0.231738 -0.139045 0.0275759 0 -0.000164368 0 0 0 0 0 0 0 0 0 0 0 0 0 0 0 0 0 0 0.002 
623 3 0.0160502 0.107361 -0.0327895 0 0 0 -0.0852029 -0.139167 0.0632403 0 -0.000164368 0 0 0 0 0 0 0 0 0 0 0 0 0 0 0 0 0 0 0.002 
211 2 0.00938407 0.107143 -0.026987 0 0 0 0.835218 -0.943278 0.911983 0 -0.000164368 0 0 0 0 0 0 0 0 0 0 0 0 0 0 0 0 0 6 0.002 
593 1 0.00819102 0.089352 -0.0257197 0 0 0 -1.34235 2.38282 0.205473 0 -0.000164368 0 0 0 0 0 0 0 0 0 0 0 0 0 0 0 0 0 0 0.002 
338 6 0.00354537 0.0965521 -0.0251803 0 0 0 0.0466188 -0.683643 0.327901 0 -0.000164368 0 0 0 0 0 0 0 0 0 0 0 0 0 0 0 0 0 1 0.002 
490 2 0.0128896 0.10584 -0.0250535 0 0 0 -0.336155 -0.718528 0.485565 -0.715044 0.108986 -0.174341 0 2 0 0 0 0 0 0 0 0 0 0 0 0 0 0 2 0.002 
332 2 0.00380005 0.107948 -0.0241649 0 0 0 -0.0702856 -0.0299143 0.59756 0 -0.000164368 0 0 0 0 0 0 0 0 0 0 0 0 0 0 0 0 0 9 0.002 
521 6 0.00379125 0.104894 -0.0212204 0 0 0 -0.793941 0.270287 1.5482 0 -0.000164368 0 0 0 0 0 0 0 0 0 0 0 0 0 0 0 0 0 2 0.002 
442 7 0.0148156 0.107555 -0.0220963 0 0 0 -1.6867 1.18428 1.56524 -0.239359 0.258182 0.48139 0 1 0 0 0 0 1 0 0 0 0 0 0 0 0 0 5 0.002 
182 2 0.0116118 0.0853623 -0.0183287 0 0 0 1.66166 0.66807 2.02084 0 -0.000164368 0 0 0 0 0 0 0 0 0 0 0 0 0 0 0 0 0 3 0.002 
294 1 0.0113928 0.104846 -0.0192274 0 0 0 -0.587557 -0.42656 0.780305 0 -0.000164368 0 0 0 0 0 0 0 0 0 0 0 0 0 0 0 0 0 6 0.002 
308 1 0.00772983 0.102049 -0.0172155 0 0 0 -0.0552178 0.481593 -1.83137 0 -0.000164368 0 0 0 0 0 0 0 0 0 0 0 0 0 0 0 0 0 10 0.002 
96 2 0.00517885 0.107352 -0.0168331 0 0 0 0.71134 -0.263049 0.445069 0 -0.000164368 0 0 0 0 0 0 0 0 0 0 0 0 0 0 0 0 0 6 0.002 
245 1 0.00543284 0.0780179 -0.0113124 0 0 0 0.680391 3.0163 3.67403 0 -0.000164368 0 0 0 0 0 0 0 0 0 0 0 0 0 0 0 0 0 7 0.002 
504 1 0.0105078 0.0808852 -0.0137816 0 0 0 0.799242 -0.933925 2.2581 0 -0.000164368 0 0 0 0 0 0 0 0 0 0 0 0 0 0 0 0 0 4 0.002 
547 4 0.00492217 0.0869148 -0.0142032 0 0 0 -0.555815 0.308205 0.774754 0 -0.000164368 0 0 0 0 0 0 0 0 0 0 0 0 0 0 0 0 0 1 0.002 
414 7 0.00295573 0.0834228 -0.0119885 0 0 0 0.36926 -0.486728 0.793982 0.0911897 0.0081388 0.0262981 0 0 0 0 0 0 0 0 0 0 0 0 0 0 0 0 3 0.002 
580 5 0.00504795 0.0842248 -0.00819365 0 0 0 0.545217 -1.72338 1.91127 0 -0.000164368 0 0 0 0 0 0 0 0 0 0 0 0 0 0 0 0 0 2 0.002 
420 3 0.00639644 0.102948 -0.00816832 0 0 0 0.28875 -0.430569 1.47348 0 -0.000164368 0 0 0 0 0 0 0 0 0 0 0 0 0 0 0 0 0 1 0.002 
534 13 0.00964615 0.103005 -0.00357081 0 0 0 0.00418453 0.659594 -0.71966 0 -0.000164368 0 0 0 0 0 0 0 0 0 0 0 0 0 0 0 0 0 1 0.002 
73 3 0.014205 0.0774081 0.000176599 0 0 0 0.230365 -0.977358 -1.89016 0 -0.000164368 0 0 0 0 0 0 0 0 0 0 0 0 0 0 0 0 0 4 0.002 
572 3 0.012376 0.0804909 0.00457759 0 0 0 4.74343 0.924422 7.26456 0 -0.000164368 0 0 0 0 0 0 0 0 0 0 0 0 0 0 0 0 0 1 0.002 
548 4 0.0171736 0.0868556 0.00168792 0 0 0 -0.310619 0.939624 -1.18936 0.0113896 -0.000395851 -0.00304673 0 0 0 1 0 0 0 0 0 0 0 0 0 0 0 0 1 0.002 
290 2 0.00798208 0.0882064 0.00131361 0 0 0 0.497951 -1.00087 0.168665 0 -0.000164368 0 0 0 0 0 0 0 0 0 0 0 0 0 0 0 0 0 12 0.002 
498 4 0.00786925 0.0845448 0.0048266 0 0 0 -1.39648 0.0689497 -0.199826 0 -0.000164368 0 0 0 0 0 0 0 0 0 0 0 0 0 0 0 0 0 2 0.002 
72 3 0.0141813 0.0865222 0.00427938 0 0 0 -0.915495 0.614249 -1.51591 -0.0113896 6.7115e-05 0.00304673 0 0 0 1 0 0 0 0 0 0 0 0 0 0 0 0 6 0.002 
564 8 0.00532549 0.0976437 0.0059529 0 0 0 0.243593 -0.637665 0.422471 0 -0.000164368 0 0 0 0 0 0 0 0 0 0 0 0 0 0 0 0 0 1 0.002 
316 2 0.00348173 0.0778431 0.00822877 0 0 0 0.518804 -0.268333 -1.04105 0 -0.000164368 0 0 0 0 0 0 0 0 0 0 0 0 0 0 0 0 0 7 0.002 
465 4 0.0161537 0.0924261 0.00788521 0 0 0 1.06798 -0.33254 -0.416075 0 -0.000164368 0 0 0 0 0 0 0 0 0 0 0 0 0 0 0 0 0 6 0.002 
597 6 0.00736436 0.0945592 0.0093982 0 0 0 -0.5028 -0.328442 0.440692 0 -0.000164368 0 0 0 0 0 0 0 0 0 0 0 0 0 0 0 0 0 1 0.002 
482 4 0.0186619 0.104478 -0.0167721 0 0 0 -0.876433 -1.40413 0.900361 0 -0.000164368 0 0 0 0 0 0 0 0 0 0 0 0 0 0 0 0 0 0 0.002 
405 3 0.0166546 0.106599 -0.0252831 0 0 0 -3.22204 -3.0147 3.09885 0.954404 -0.367661 -0.307049 0 1 0 0 0 0 1 0 0 0 0 0 0 0 0 0 6 0.002 
540 4 0.0153732 0.0771532 0.0103178 0 0 0 0.609338 -0.757017 -1.91111 0 -0.000164368 0 0 0 0 0 0 0 0 0 0 0 0 0 0 0 0 0 5 0.002 
8 5 0.00510851 0.0809423 0.0112947 0 0 0 0.31129 -0.90783 -0.890898 0 -0.000164368 0 0 0 0 0 0 0 0 0 0 0 0 0 0 0 0 0 3 0.002 
533 4 0.00516515 0.0974756 0.0135598 0 0 0 0.149151 0.192123 -0.0108972 0 -0.000164368 0 0 0 0 0 0 0 0 0 0 0 0 0 0 0 0 0 5 0.002 
365 10 0.0177805 0.0971724 0.0137878 0 0 0 -1.31831 -1.09904 1.32502 0 -0.000164368 0 0 0 0 0 0 0 0 0 0 0 0 0 0 0 0 0 2 0.002 
288 1 0.00300492 0.0780734 0.0185307 0 0 0 0.118093 0.175736 -0.812711 0 -0.000164368 0 0 0 0 0 0 0 0 0 0 0 0 0 0 0 0 0 2 0.002 
393 11 0.0101154 0.0826037 0.0176647 0 0 0 1.08103 0.67358 -2.28891 0 -0.000164368 0 0 0 0 0 0 0 0 0 0 0 0 0 0 0 0 0 8 0.002 
77 12 0.00300078 0.0850442 0.0175829 0 0 0 -0.270557 0.0840637 -0.542086 0 -0.000164368 0 0 0 0 0 0 0 0 0 0 0 0 0 0 0 0 0 7 0.002 
602 6 0.0157399 0.0862515 0.0166905 0 0 0 -0.412513 -0.000349318 -0.257279 0 -0.000164368 0 0 0 0 0 0 0 0 0 0 0 0 0 0 0 0 0 1 0.002 
315 1 0.0106332 0.0908037 0.0174625 0 0 0 0.772484 -0.983872 -0.315344 0 -0.000164368 0 0 0 0 0 0 0 0 0 0 0 0 0 0 0 0 0 3 0.002 
343 2 0.00619034 0.0923074 0.0181342 0 0 0 0.480182 0.473918 -0.0609062 0 -0.000164368 0 0 0 0 0 0 0 0 0 0 0 0 0 0 0 0 0 1 0.002 
323 7 0.013768 0.0936808 0.0168159 0 0 0 -1.21237 0.652028 -0.126261 0 -0.000164368 0 0 0 0 0 0 0 0 0 0 0 0 0 0 0 0 0 4 0.002 
416 5 0.0150266 0.0979844 0.017993 0 0 0 2.33223 -0.955899 0.534031 0 -0.000164368 0 0 0 0 0 0 0 0 0 0 0 0 0 0 0 0 0 2 0.002 
515 5 0.00812446 0.0879781 0.02099 0 0 0 -0.457524 -1.2072 0.289212 0 -0.000164368 0 0 0 0 0 0 0 0 0 0 0 0 0 0 0 0 0 4 0.002 
70 6 0.00357427 0.0898585 0.0210271 0 0 0 0.0539096 0.44508 -0.201721 0 -0.000164368 0 0 0 0 0 0 0 0 0 0 0 0 0 0 0 0 0 6 0.002 
619 6 0.00386239 0.100028 0.0208078 0 0 0 0.0643284 -0.381792 -0.0530301 0.00612037 -0.00750603 -0.0117972 0 0 0 0 0 1 0 0 0 0 0 0 0 0 0 0 1 0.002 
262 3 0.00620553 0.10443 0.0214457 0 0 0 -0.534028 -0.224009 0.411378 0 -0.000164368 0 0 0 0 0 0 0 0 0 0 0 0 0 0 0 0 0 3 0.002 
557 5 0.0156637 0.0869248 0.0213143 0 0 0 0.881908 0.738141 -0.876354 0 -0.000164368 0 0 0 0 0 0 0 0 0 0 0 0 0 0 0 0 0 0 0.002 
144 9 0.0174253 0.0911554 0.0217719 0 0 0 0.389576 0.660154 -0.0908869 0 -0.000164368 0 0 0 0 0 0 0 0 0 0 0 0 0 0 0 0 0 9 0.002 
305 5 0.00718792 0.0918507 0.0231941 0 0 0 0.262275 0.103576 -0.173992 0 -0.000164368 0 0 0 0 0 0 0 0 0 0 0 0 0 0 0 0 0 8 0.002 
578 2 0.0108338 0.0932521 0.0222403 0 0 0 0.515922 -0.14751 -0.0394661 0 -0.000164368 0 0 0 0 0 0 0 0 0 0 0 0 0 0 0 0 0 0 0.002 
242 6 0.0120435 0.0971516 0.0219717 0 0 0 0.499594 0.101582 0.0807418 0 -0.000164368 0 0 0 0 0 0 0 0 0 0 0 0 0 0 0 0 0 8 0.002 
230 6 0.0148255 0.100232 0.0229158 0 0 0 -0.477167 0.133271 -0.540368 0.0159118 0.0380453 -0.0408506 0 0 0 0 0 1 0 0 0 0 0 0 0 0 0 0 7 0.002 
20 3 0.016577 0.10699 0.0236192 0 0 0 -0.179613 0.743024 1.33391 0 -0.000164368 0 0 0 0 0 0 0 0 0 0 0 0 0 0 0 0 0 7 0.002 
309 1 0.00552564 0.0858482 0.0238334 0 0 0 0.0502126 1.43045 -1.24714 -0.00877293 0.0228245 -0.0253597 1 0 0 0 0 0 0 0 0 0 0 0 0 0 0 0 8 0.002 
112 6 0.0110761 0.0858575 0.0248358 0 0 0 0.814925 -0.984386 1.2295 0 -0.000164368 0 0 0 0 0 0 0 0 0 0 0 0 0 0 0 0 0 6 0.002 
428 8 0.00325636 0.0894464 0.0252606 0 0 0 -0.610817 1.66003 -0.160105 0 -0.000164368 0 0 0 0 0 0 0 0 0 0 0 0 0 0 0 0 0 2 0.002 
417 1 0.0150312 0.0921624 0.0249425 0 0 0 0.378841 0.955552 0.135276 0 -0.000164368 0 0 0 0 0 0 0 0 0 0 0 0 0 0 0 0 0 6 0.002 
295 2 0.00341033 0.0979243 0.0241788 0 0 0 0.0397816 0.0408767 -0.154687 -0.00612037 0.00717729 0.0117972 0 0 0 0 0 1 0 0 0 0 0 0 0 0 0 0 2 0.002 
231 7 0.0082437 0.096509 0.0245054 0 0 0 -0.15661 -0.149008 0.611738 0 -0.000164368 0 0 0 0 0 0 0 0 0 0 0 0 0 0 0 0 0 5 0.002 
306 3 0.0143248 0.0974852 0.0257061 0 0 0 0.0709358 0.520355 0.148619 -0.0159118 -0.0383741 0.0408506 0 0 0 0 0 1 0 0 0 0 0 0 0 0 0 0 4 0.002 
390 4 0.00941304 0.100431 0.0246825 0 0 0 0.249632 0.0340769 0.273841 0 -0.000164368 0 0 0 0 0 0 0 0 0 0 0 0 0 0 0 0 0 3 0.002 
475 2 0.00818146 0.105862 0.0258703 0 0 0 0.516054 -0.0976199 0.827561 0 -0.000164368 0 0 0 0 0 0 0 0 0 0 0 0 0 0 0 0 0 0 0.002 
329 7 0.00871948 0.0766658 0.0270612 0 0 0 0.834357 1.84644 4.42768 0 -0.000164368 0 0 0 0 0 0 0 0 0 0 0 0 0 0 0 0 0 4 0.002 
108 2 0.00533645 0.0829782 0.0265624 0 0 0 0.919578 1.23362 -1.31948 0.00877293 -0.0231532 0.0253597 1 0 0 0 0 0 0 0 0 0 0 0 0 0 0 0 13 0.002 
348 6 0.0152642 0.0835433 0.0259707 0 0 0 -0.0830974 0.716283 -0.0673957 0 -0.000164368 0 0 0 0 0 0 0 0 0 0 0 0 0 0 0 0 0 4 0.002 
34 3 0.0105354 0.090075 0.0269648 0 0 0 0.421758 0.328467 -0.128496 0 -0.000164368 0 0 0 0 0 0 0 0 0 0 0 0 0 0 0 0 0 5 0.002 
193 8 0.00665399 0.0931036 0.027605 0 0 0 0.0492204 0.218403 0.0644188 0 -0.000164368 0 0 0 0 0 0 0 0 0 0 0 0 0 0 0 0 0 11 0.002 
566 3 0.00306694 0.0947345 0.0265797 0 0 0 0.0304085 0.100833 0.0538185 0 -0.000164368 0 0 0 0 0 0 0 0 0 0 0 0 0 0 0 0 0 0 0.002 
595 6 0.0160461 0.0947223 0.0280312 0 0 0 0.0832672 0.552551 1.01578 0 -0.000164368 0 0 0 0 0 0 0 0 0 0 0 0 0 0 0 0 0 0 0.002 
391 4 0.00543628 0.100361 0.0266899 0 0 0 -0.209886 -0.142414 0.201825 0 -0.000164368 0 0 0 0 0 0 0 0 0 0 0 0 0 0 0 0 0 6 0.002 
149 7 0.0138578 0.101235 0.0277817 0 0 0 -0.35625 0.954816 0.426109 0 -0.000164368 0 0 0 0 0 0 0 0 0 0 0 0 0 0 0 0 0 19 0.002 
588 16 0.0172063 0.103846 0.0271701 0 0 0 0.647762 -0.377568 0.479883 -0.0189312 -0.065445 -0.0694289 0 0 0 0 0 0 0 0 0 0 0 0 0 0 0 1 3 0.002 
161 8 0.00356674 0.106056 0.0269635 0 0 0 0.0832087 -0.0731299 0.00675636 0 -0.000164368 0 0 0 0 0 0 0 0 0 0 0 0 0 0 0 0 0 8 0.002 
606 4 0.013828 0.0755458 0.0300967 0 0 0 -0.197464 -0.251576 -0.139439 0 -0.000164368 0 0 0 0 0 0 0 0 0 0 0 0 0 0 0 0 0 0 0.002 
156 4 0.0134854 0.0812399 0.0293859 0 0 0 0.100208 0.20528 -0.0705711 0 -0.000164368 0 0 0 0 0 0 0 0 0 0 0 0 0 0 0 0 0 4 0.002 
362 1 0.0182162 0.0829857 0.0288903 0 0 0 0.00490257 0.498309 -0.0959082 0 -0.000164368 0 0 0 0 0 0 0 0 0 0 0 0 0 0 0 0 0 3 0.002 
468 8 0.00331693 0.0858849 0.0291962 0 0 0 -0.451666 0.534428 -0.240354 0 -0.000164368 0 0 0 0 0 0 0 0 0 0 0 0 0 0 0 0 0 6 0.002 
381 2 0.0118909 0.0850525 0.0290101 0 0 0 0.320118 0.365592 -0.0670269 0 -0.000164368 0 0 0 0 0 0 0 0 0 0 0 0 0 0 0 0 0 8 0.002 
377 4 0.00659499 0.0885783 0.02923 0 0 0 0.321259 0.205979 -0.0969488 0 -0.000164368 0 0 0 0 0 0 0 0 0 0 0 0 0 0 0 0 0 6 0.002 
324 5 0.00317081 0.0921757 0.0296605 0 0 0 0.0161578 0.0779741 -0.0635095 0 -0.000164368 0 0 0 0 0 0 0 0 0 0 0 0 0 0 0 0 0 4 0.002 
178 10 0.00943844 0.0952849 0.0295539 0 0 0 0.0553302 0.49143 -0.18905 0 -0.000164368 0 0 0 0 0 0 0 0 0 0 0 0 0 0 0 0 0 5 0.002 
357 7 0.00528656 0.0969824 0.0296753 0 0 0 0.247644 0.0816088 -0.0685969 0.000842615 0.000814912 -0.00102782 0 0 0 0 0 0 1 0 0 0 0 0 0 0 0 0 6 0.002 
297 3 0.0183652 0.0775029 0.0318491 0 0 0 0.372696 -0.121092 -0.288856 0 -0.000164368 0 0 0 0 0 0 0 0 0 0 0 0 0 0 0 0 0 11 0.002 
453 3 0.00596469 0.0819609 0.0320755 0 0 0 -0.0843204 0.759431 -0.487098 0.000562043 -0.00264568 -0.00173125 0 0 1 0 0 0 0 0 0 0 0 0 0 0 0 0 2 0.002 
431 5 0.0131263 0.0892334 0.0302662 0 0 0 0.561095 0.498961 -0.083787 0 -0.000164368 0 0 0 0 0 0 0 0 0 0 0 0 0 0 0 0 0 5 0.002 
383 6 0.0168551 0.086895 0.0325594 0 0 0 -0.119049 -0.00507904 0.167897 -0.020171 0.0258931 -0.00324381 0 0 0 0 0 1 0 0 0 0 0 0 0 0 0 0 2 0.002 
395 6 0.00684349 0.0997661 0.0321046 0 0 0 0.201662 0.0562057 0.119154 0 -0.000164368 0 0 0 0 0 0 0 0 0 0 0 0 0 0 0 0 0 0 0.002 
389 5 0.0107492 0.0994919 0.0311156 0 0 0 0.236449 0.751103 -0.254772 0 -0.000164368 0 0 0 0 0 0 0 0 0 0 0 0 0 0 0 0 0 5 0.002 
514 8 0.0177182 0.105545 0.0306583 0 0 0 0.229872 -0.16413 1.18925 0.0189312 0.0651162 0.0694289 0 0 0 0 0 0 0 0 0 0 0 0 0 0 0 1 1 0.002 
480 3 0.0107147 0.0784894 0.0324734 0 0 0 -0.0709862 0.405089 -0.238037 0 -0.000164368 0 0 0 0 0 0 0 0 0 0 0 0 0 0 0 0 0 7 0.002 
479 9 0.00986474 0.0831381 0.0329825 0 0 0 -0.107868 0.621386 -0.00758963 0 -0.000164368 0 0 0 0 0 0 0 0 0 0 0 0 0 0 0 0 0 4 0.002 
221 16 0.0151181 0.0822875 0.0329306 0 0 0 -0.00383706 0.242312 -0.0246994 0 -0.000164368 0 0 0 0 0 0 0 0 0 0 0 0 0 0 0 0 0 3 0.002 
200 9 0.00630224 0.0858363 0.0329805 0 0 0 0.248236 0.599205 0.0601995 5.31812e-05 0.00223596 0.00174422 0 0 1 0 0 0 0 0 1 0 0 0 0 0 0 0 11 0.002 
224 5 0.0126677 0.0859926 0.0329948 0 0 0 0.19082 0.392412 -0.0285396 0 -0.000164368 0 0 0 0 0 0 0 0 0 0 0 0 0 0 0 0 0 9 0.002 
300 1 0.00299501 0.0880421 0.0325693 0 0 0 0.035787 0.307917 0.0392788 0.00184514 0.000971195 0.000283465 0 0 0 0 0 0 0 0 1 0 0 0 0 0 0 0 5 0.002 
460 2 0.00971645 0.0889788 0.032441 0 0 0 0.37846 0.888396 -0.164494 0 -0.000164368 0 0 0 0 0 0 0 0 0 0 0 0 0 0 0 0 0 7 0.002 
229 6 0.00578474 0.0909235 0.0328289 0 0 0 0.203605 0.218765 0.0604265 0.000811701 -0.00613571 -0.00327636 0 0 0 0 0 1 0 0 0 0 0 0 0 0 0 0 12 0.002 
603 7 0.0159721 0.0909605 0.0327427 0 0 0 -0.206714 0.146499 0.138 0 -0.000164368 0 0 0 0 0 0 0 0 0 0 0 0 0 0 0 0 0 1 0.002 
311 2 0.00997288 0.0933289 0.0330115 0 0 0 0.290115 0.600592 -0.0676507 -0.000388285 -0.00625274 -0.0122015 0 0 0 0 0 0 0 0 0 0 0 0 0 0 0 0 6 0.002 
322 2 0.00486954 0.0948036 0.0330026 0 0 0 0.203828 0.202571 -0.0593989 -0.00154042 0.00225334 0.00732402 0 1 0 0 0 1 1 0 0 0 0 0 0 0 0 0 11 0.002 
289 3 0.0131593 0.0963982 0.0329082 0 0 0 0.599576 0.791965 -0.0805149 0 -0.000164368 0 0 0 0 0 0 0 0 0 0 0 0 0 0 0 0 0 3 0.002 
543 1 0.00306158 0.0983624 0.0329562 0 0 0 -0.0604694 0.13248 0.0376427 -0.000162561 0.00220684 -0.00101468 1 1 0 0 0 0 0 0 0 0 0 0 0 0 0 0 2 0.002 
477 2 0.00364479 0.102314 0.0327744 0 0 0 -0.0495468 0.16698 -0.0313759 -0.000311354 -0.000817777 0.000191703 1 0 0 0 0 0 0 0 0 0 0 0 0 0 0 0 4 0.002 
350 8 0.0061092 0.107097 0.0325124 0 0 0 -0.408056 0.344402 -0.0670539 0 -0.000164368 0 0 0 0 0 0 0 0 0 0 0 0 0 0 0 0 0 1 0.002 
433 9 0.0185091 0.0880662 0.0257331 0 0 0 -0.603597 0.710321 0.127959 0 -0.000164368 0 0 0 0 0 0 0 0 0 0 0 0 0 0 0 0 0 0 0.002 
495 8 0.0186585 0.0895829 0.0166685 0 0 0 -0.319811 0.291055 0.074217 0 -0.000164368 0 0 0 0 0 0 0 0 0 0 0 0 0 0 0 0 0 5 0.002 
140 4 0.00336668 0.0757195 0.0245934 0 0 0 0.8632 3.15372 3.85708 0 -0.000164368 0 0 0 0 0 0 0 0 0 0 0 0 0 0 0 0 0 4 0.002 
188 6 0.0114889 0.102795 0.0102424 0 0 0 0.131569 -4.99108 4.17451 0 -0.000164368 0 0 0 0 0 0 0 0 0 0 0 0 0 0 0 0 0 10 0.002 
146 9 0.0474155 -0.0383521 -0.0151276 0 0 0 -7.66759e-05 -30.2552 76.7041 -6.18229e-08 2.57038 1.01386 0 0 0 0 0 0 0 0 0 0 0 0 0 0 0 0 0 0.002 
21 8 0.0320673 -0.0512385 0.0261308 0 0 0 2.72071 8.60081 18.4748 0 -0.000164368 0 0 0 0 0 0 0 0 0 0 0 0 0 0 0 0 0 8 0.002 
446 9 0.0474561 -0.0489584 0.0133727 0 0 0 -1.53427 6.19726 28.3653 0 -0.000164368 0 0 0 0 0 0 0 0 0 0 0 0 0 0 0 0 0 3 0.002 
235 3 0.0217685 -0.000513559 0.0576869 0 0 0 0.49247 15.5897 0.616478 0 -0.000164368 0 0 0 0 0 0 0 0 0 0 0 0 0 0 0 0 0 4 0.002 
522 2 0.0274675 0.00928837 -0.0555105 0 0 0 35.1565 -76.0593 -62.9558 0 -0.000164368 0 0 0 0 0 0 0 0 0 0 0 0 0 0 0 0 0 6 0.002 
257 6 0.02551 0.0341131 -0.0453873 0 0 0 1.84068 -18.2638 -8.18638 0 -0.000164368 0 0 0 0 0 0 0 0 0 0 0 0 0 0 0 0 0 2 0.002 
427 6 0.0445863 0.0264364 0.0514435 0 0 0 -0.857332 38.94 -22.1659 -0.0298317 -0.0322114 0.0322779 0 0 0 0 0 0 0 0 0 0 0 0 0 0 0 0 2 0.002 
385 7 0.0432078 0.0745769 0.000939975 0 0 0 2.70844 9.6005 -18.8428 0 -0.000164368 0 0 0 0 0 0 0 0 0 0 0 0 0 0 0 0 0 4 0.002 
270 1 0.0202948 0.0512101 -0.0355 0 0 0 -3.39697e-213 4.06731e-20 5.61335e-12 3.92905e-213 -1.35525e-20 3.55271e-15 0 0 0 0 0 0 0 0 0 0 0 0 0 0 0 0 0 0.002 
79 1 0.0426879 0.0514904 -0.0355094 0 0 0 4.25491e-16 2.28786e-15 -2.76336e-13 0 -2.22045e-16 0 1 0 0 0 0 0 0 0 0 0 0 0 0 0 0 0 14 0.002 
127 3 0.0250784 0.0534205 -0.0355 0 0 0 -1.50425e-212 4.08092e-20 5.66701e-13 1.19135e-212 0 0 0 0 0 0 0 0 0 0 0 0 0 0 0 0 0 0 2 0.002 
45 4 0.0455379 0.0535742 -0.0354906 0 0 0 7.04244e-16 -2.03532e-15 -2.86284e-13 -1.11022e-16 5.55112e-17 0 1 0 0 0 0 0 0 0 0 0 0 0 0 0 0 0 16 0.002 
276 4 0.0334432 0.0547355 -0.0355 0 0 0 -1.31763e-269 -8.09281e-20 -6.72686e-12 9.52605e-270 0 0 0 0 0 0 0 0 0 0 0 0 0 0 0 0 0 0 0 0.002 
48 3 0.0234945 0.0573341 -0.0355 0 0 0 2.22544e-308 -8.12999e-20 -5.61327e-12 1.1379e-306 0 3.55271e-15 0 0 0 0 0 0 0 0 0 0 0 0 0 0 0 0 0 0.002 
52 2 0.0282399 0.0584481 -0.0355 0 0 0 0 -6.08036e-20 -3.93778e-12 -0 0 0 0 0 0 0 0 0 0 0 0 0 0 0 0 0 0 0 0 0.002 
351 1 0.0418674 0.0567037 -0.0355 0 0 0 -8.23822e-91 -4.05707e-20 -5.61328e-12 4.52279e-91 1.35525e-20 -3.55271e-15 0 0 0 0 0 0 0 0 0 0 0 0 0 0 0 0 0 0.002 
39 3 0.0456806 0.0647314 -0.0355 0 0 0 2.51484e-37 6.09199e-20 2.80432e-12 -8.40077e-38 -1.35525e-20 0 0 0 0 0 0 0 0 0 0 0 0 0 0 0 0 0 0 0.002 
167 2 0.0420563 0.0636678 -0.0316578 0 0 0 -0.852377 -0.984083 -2.12012 0 -0.000164368 0 0 0 0 0 0 0 0 0 0 0 0 0 0 0 0 0 3 0.002 
448 2 0.0196063 0.0641312 -0.0189955 0 0 0 -3.59656 -2.92344 4.02113 0 -0.000164368 0 0 0 0 0 0 0 0 0 0 0 0 0 0 0 0 0 1 0.002 
269 2 0.0287297 0.0643624 -0.0293383 0 0 0 -1.77521 9.11139 -29.8928 0 -0.000164368 0 0 0 0 0 0 0 0 0 0 0 0 0 0 0 0 0 6 0.002 
125 10 0.0297205 0.0640006 -0.00413561 0 0 0 1.41171 -4.94746 12.9313 0 -0.000164368 0 0 0 0 0 0 0 0 0 0 0 0 0 0 0 0 0 8 0.002 
443 1 0.0427334 0.0646922 0.00699945 0 0 0 -0.701253 -0.498058 -1.10894 0 -0.000164368 0 0 0 0 0 0 0 0 0 0 0 0 0 0 0 0 0 5 0.002 
456 8 0.0352065 0.0609958 0.00930482 0 0 0 0.100975 -0.774531 -0.512741 0 -0.000164368 0 0 0 0 0 0 0 0 0 0 0 0 0 0 0 0 0 0 0.002 
582 7 0.0210323 0.074604 -0.0286416 0 0 0 -1.415 -2.26012 0.877293 0 -0.000164368 0 0 0 0 0 0 0 0 0 0 0 0 0 0 0 0 0 0 0.002 
299 1 0.0441336 0.0741587 0.00961049 0 0 0 -12.4392 6.25172 -3.63171 0 -0.000164368 0 0 0 0 0 0 0 0 0 0 0 0 0 0 0 0 0 4 0.002 
394 6 0.039158 0.0743219 0.0329059 0 0 0 -0.0687434 -0.177533 -0.0153022 0 -0.000164368 0 0 0 0 0 0 0 0 0 0 0 0 0 0 0 0 0 2 0.002 
407 4 0.034403 0.0733642 0.0326545 0 0 0 -0.130934 -0.111332 0.031505 0 -0.000164368 0 0 0 0 0 0 0 0 0 0 0 0 0 0 0 0 0 4 0.002 
5 3 0.0351935 0.0617831 0.0136923 0 0 0 -0.559204 -0.48787 -0.928276 0 -0.000164368 0 0 0 0 0 0 0 0 0 0 0 0 0 0 0 0 0 1 0.002 
621 4 0.0397914 0.0711009 0.0156051 0 0 0 -0.181914 -0.0155121 -0.459922 0 -0.000164368 0 0 0 0 0 0 0 0 0 0 0 0 0 0 0 0 0 0 0.002 
450 2 0.0470705 0.0547949 0.0160574 0 0 0 0.336768 0.0614794 -1.82032 0 -0.000164368 0 0 0 0 0 0 0 0 0 0 0 0 0 0 0 0 0 2 0.002 
359 3 0.0462299 0.0743653 0.0178042 0 0 0 -1.09736 -0.0833095 -0.0044473 0.0180287 -0.0212996 -0.0280011 0 0 1 0 0 0 0 0 0 0 0 0 0 0 0 0 4 0.002 
467 1 0.0446726 0.0661317 0.0209989 0 0 0 -0.0404011 -0.539961 -0.382571 0 -0.000164368 0 0 0 0 0 0 0 0 0 0 0 0 0 0 0 0 0 1 0.002 
121 2 0.0246792 0.0691438 0.0202311 0 0 0 -0.507109 1.67057 -0.955432 0 -0.000164368 0 0 0 0 0 0 0 0 0 0 0 0 0 0 0 0 0 6 0.002 
555 5 0.0422094 0.0721453 0.0202868 0 0 0 -0.0142341 -0.0580486 -0.636091 0 -0.000164368 0 0 0 0 0 0 0 0 0 0 0 0 0 0 0 0 0 2 0.002 
494 7 0.0346298 0.0530464 0.0222634 0 0 0 0.7886 0.450739 -1.63593 0 -0.000164368 0 0 0 0 0 0 0 0 0 0 0 0 0 0 0 0 0 1 0.002 
610 7 0.0237542 0.0630288 0.0113961 0 0 0 1.82508 16.5322 -22.0647 0 -0.000164368 0 0 0 0 0 0 0 0 0 0 0 0 0 0 0 0 0 0 0.002 
546 1 0.0443524 0.0597049 0.0226483 0 0 0 -0.0492683 -0.746585 0.0274764 0 -0.000164368 0 0 0 0 0 0 0 0 0 0 0 0 0 0 0 0 0 4 0.002 
553 7 0.0339423 0.0661784 0.0213205 0 0 0 0.271162 0.146482 -0.636929 0 -0.000164368 0 0 0 0 0 0 0 0 0 0 0 0 0 0 0 0 0 1 0.002 
370 4 0.0392071 0.0658756 0.0225078 0 0 0 -0.259024 -0.625896 -0.627431 0 -0.000164368 0 0 0 0 0 0 0 0 0 0 0 0 0 0 0 0 0 7 0.002 
203 3 0.0194861 0.0718085 0.0222892 0 0 0 -0.31157 -0.481773 -0.450402 0 -0.000164368 0 0 0 0 0 0 0 0 0 0 0 0 0 0 0 0 0 6 0.002 
159 2 0.0317121 0.0695103 0.0328001 0 0 0 0.081943 -0.582175 -0.0861163 0 -0.000164368 0 0 0 0 0 0 0 0 0 0 0 0 0 0 0 0 0 1 0.002 
451 1 0.0249338 0.068312 0.02517 0 0 0 -1.02753 -0.196382 -0.185043 0 -0.000164368 0 0 0 0 0 0 0 0 0 0 0 0 0 0 0 0 0 3 0.002 
64 4 0.0469592 0.069956 0.0240237 0 0 0 -0.0435666 -0.530194 -0.13535 0 -0.000164368 0 0 0 0 0 0 0 0 0 0 0 0 0 0 0 0 0 8 0.002 
199 4 0.0313398 0.0697557 0.0258436 0 0 0 1.93245 -1.94145 0.395407 0 -0.000164368 0 0 0 0 0 0 0 0 0 0 0 0 0 0 0 0 0 10 0.002 
583 1 0.0371691 0.0705309 0.0252447 0 0 0 -0.237237 -0.367038 -0.0904648 0 -0.000164368 0 0 0 0 0 0 0 0 0 0 0 0 0 0 0 0 0 0 0.002 
526 2 0.0444549 0.0734716 0.0250606 0 0 0 0.0215299 -0.345618 -0.29635 0 -0.000164368 0 0 0 0 0 0 0 0 0 0 0 0 0 0 0 0 0 3 0.002 
217 2 0.0447686 0.0683069 0.0277823 0 0 0 -0.0438773 -0.52398 -0.0942815 0 -0.000164368 0 0 0 0 0 0 0 0 0 0 0 0 0 0 0 0 0 7 0.002 
507 6 0.0332546 0.0528832 0.0293085 0 0 0 0.24825 -1.31245 -0.620894 0 -0.000164368 0 0 0 0 0 0 0 0 0 0 0 0 0 0 0 0 0 0 0.002 
481 2 0.0356596 0.0612393 0.0293601 0 0 0 -0.040768 -0.486932 0.439605 0 -0.000164368 0 0 0 0 0 0 0 0 0 0 0 0 0 0 0 0 0 2 0.002 
218 4 0.0290799 0.0655877 0.0299507 0 0 0 0.878475 0.0471727 0.0286481 0 -0.000164368 0 0 0 0 0 0 0 0 0 0 0 0 0 0 0 0 0 8 0.002 
84 8 0.0236001 0.0721248 0.0287664 0 0 0 -0.12029 -0.53696 0.0347168 0 -0.000164368 0 0 0 0 0 0 0 0 0 0 0 0 0 0 0 0 0 2 0.002 
404 6 0.0375494 0.0743121 0.0280203 0 0 0 -0.254696 -0.352997 -0.0903965 0 -0.000164368 0 0 0 0 0 0 0 0 0 0 0 0 0 0 0 0 0 4 0.002 
145 6 0.0307071 0.0564034 0.031128 0 0 0 -0.336529 -0.262363 -0.592048 0 -0.000164368 0 0 0 0 0 0 0 0 0 0 0 0 0 0 0 0 0 8 0.002 
485 2 0.0342387 0.0649095 0.03195 0 0 0 -0.341063 -0.78225 0.206832 0 -0.000164368 0 0 0 0 0 0 0 0 0 0 0 0 0 0 0 0 0 1 0.002 
396 3 0.0412372 0.0702901 0.0316333 0 0 0 -0.180941 -0.143288 -0.128015 0 -0.000164368 0 0 0 0 0 0 0 0 0 0 0 0 0 0 0 0 0 3 0.002 
440 5 0.0290182 0.0735899 0.0316841 0 0 0 0.000175014 -0.498169 -0.191798 0 -0.000164368 0 0 0 0 0 0 0 0 0 0 0 0 0 0 0 0 0 1 0.002 
141 5 0.0451178 0.0739147 0.0324894 0 0 0 -0.0329211 -0.231838 0.00900636 1.11317e-05 -0.000314888 7.96822e-05 0 0 0 0 1 0 0 0 0 0 0 0 0 0 0 0 11 0.002 
12 9 0.0471722 0.0616843 0.0328095 0 0 0 -0.114161 -0.33657 0.000479688 0 -0.000164368 0 0 0 0 0 0 0 0 0 0 0 0 0 0 0 0 0 6 0.002 
584 8 0.0236667 0.0701414 0.0326849 0 0 0 0.0340486 -0.196512 -0.0285342 0 -0.000164368 0 0 0 0 0 0 0 0 0 0 0 0 0 0 0 0 0 1 0.002 
283 10 0.0272893 0.068222 0.0329394 0 0 0 -0.0741176 -0.615201 -0.0261044 0 -0.000164368 0 0 0 0 0 0 0 0 0 0 0 0 0 0 0 0 0 0 0.002 
625 3 0.0369294 0.0843211 -0.0323236 0 0 0 3.48406 -0.198239 0.98618 0 -0.000164368 0 0 0 0 0 0 0 0 0 0 0 0 0 0 0 0 0 0 0.002 
261 1 0.0302344 0.0859619 -0.0326901 0 0 0 2.78162 -2.38171 -2.83288 0 -0.000164368 0 0 0 0 0 0 0 0 0 0 0 0 0 0 0 0 0 4 0.002 
472 3 0.0380655 0.106504 -0.0319782 0 0 0 -0.15829 7.37495 2.93512 0 -0.000164368 0 0 0 0 0 0 0 0 0 0 0 0 0 0 0 0 0 3 0.002 
58 1 0.0454219 0.0854778 -0.0308824 0 0 0 -0.554553 -1.0888 0.377636 0 -0.000164368 0 0 0 0 0 0 0 0 0 0 0 0 0 0 0 0 0 4 0.002 
268 5 0.0401587 0.0935755 -0.0306415 0 0 0 -1.39561 -0.0559853 1.2536 0 -0.000164368 0 0 0 0 0 0 0 0 0 0 0 0 0 0 0 0 0 3 0.002 
194 2 0.0424736 0.0862554 0.00151668 0 0 0 -13.6681 26.1026 -17.2388 0 -0.000164368 0 0 0 0 0 0 0 0 0 0 0 0 0 0 0 0 0 9 0.002 
464 6 0.0313966 0.0763654 -0.0288714 0 0 0 -0.0146416 -2.14853 -1.10392 0 -0.000164368 0 0 0 0 0 0 0 0 0 0 0 0 0 0 0 0 0 1 0.002 
55 4 0.0268545 0.089437 -0.0310424 0 0 0 -1.52198 0.906858 -4.92622 0 -0.000164368 0 0 0 0 0 0 0 0 0 0 0 0 0 0 0 0 0 7 0.002 
620 1 0.0251958 0.0942416 -0.0280731 0 0 0 1.36764 -0.414431 1.57701 0 -0.000164368 0 0 0 0 0 0 0 0 0 0 0 0 0 0 0 0 0 0 0.002 
470 8 0.0309945 0.100797 -0.0270774 0 0 0 1.06347 -3.81038 1.40676 0 -0.000164368 0 0 0 0 0 0 0 0 0 0 0 0 0 0 0 0 0 4 0.002 
2 6 0.0346975 0.102335 -0.0287077 0 0 0 -3.83331 0.834405 -1.80978 0 -0.000164368 0 0 0 0 0 0 0 0 0 0 0 0 0 0 0 0 0 3 0.002 
273 3 0.035636 0.079321 0.00938969 0 0 0 -0.431114 -0.453248 0.228774 0 -0.000164368 0 0 0 0 0 0 0 0 0 0 0 0 0 0 0 0 0 4 0.002 
9 6 0.0364431 0.0780558 -0.0261735 0 0 0 -0.595855 -2.68707 -1.26619 0 -0.000164368 0 0 0 0 0 0 0 0 0 0 0 0 0 0 0 0 0 7 0.002 
615 3 0.0339805 0.0863718 -0.0265614 0 0 0 0.249991 -0.021616 0.253077 0 -0.000164368 0 0 0 0 0 0 0 0 0 0 0 0 0 0 0 0 0 0 0.002 
510 9 0.0223527 0.0911216 -0.0254835 0 0 0 -1.00228 -0.230456 0.599988 0 -0.000164368 0 0 0 0 0 0 0 0 0 0 0 0 0 0 0 0 0 6 0.002 
613 2 0.0203291 0.0793486 -0.0230803 0 0 0 -1.16008 -2.26661 1.89939 0 -0.000164368 0 0 0 0 0 0 0 0 0 0 0 0 0 0 0 0 0 1 0.002 
181 6 0.0460224 0.0854562 -0.0205001 0 0 0 -0.400239 2.03983 0.559268 0 -0.000164368 0 0 0 0 0 0 0 0 0 0 0 0 0 0 0 0 0 4 0.002 
576 2 0.0446869 0.105512 -0.0205974 0 0 0 -5.1138 -4.47816 1.50461 0 -0.000164368 0 0 0 0 0 0 0 0 0 0 0 0 0 0 0 0 0 1 0.002 
123 8 0.0460796 0.0929932 -0.0152043 0 0 0 -1.96648 4.70776 7.00017 0 -0.000164368 0 0 0 0 0 0 0 0 0 0 0 0 0 0 0 0 0 10 0.002 
95 5 0.041823 0.0773164 0.00519875 0 0 0 -1.45372 6.23963 -2.83463 0 -0.000164368 0 0 0 0 0 0 0 0 0 0 0 0 0 0 0 0 0 7 0.002 
512 7 0.0247562 0.0977497 -0.0150653 0 0 0 2.15461 -2.64585 -0.720133 0 -0.000164368 0 0 0 0 0 0 0 0 0 0 0 0 0 0 0 0 0 1 0.002 
567 7 0.0403564 0.099989 -0.0162254 0 0 0 3.59805 -0.0922832 -3.49228 0 -0.000164368 0 0 0 0 0 0 0 0 0 0 0 0 0 0 0 0 0 0 0.002 
425 1 0.0209232 0.090772 -0.0107676 0 0 0 0.108648 -0.372604 1.64527 0 -0.000164368 0 0 0 0 0 0 0 0 0 0 0 0 0 0 0 0 0 9 0.002 
216 2 0.0342432 0.105672 -0.0101099 0 0 0 0.376383 6.25943 0.069925 0 -0.000164368 0 0 0 0 0 0 0 0 0 0 0 0 0 0 0 0 0 8 0.002 
449 4 0.0426357 0.0860572 -0.00426312 0 0 0 -0.52029 -2.25598 0.746971 0 -0.000164368 0 0 0 0 0 0 0 0 0 0 0 0 0 0 0 0 0 3 0.002 