ITEM: TIMESTEP
11900000
ITEM: NUMBER OF ATOMS
1454
ITEM: BOX BOUNDS ff ff ff
-0.01 0.45
-0.15 0.15
-0.08 0.1
ITEM: ATOMS id type x y z ix iy iz vx vy vz fx fy fz c_cc_1 c_cc_2 c_cc_3 c_cc_4 c_cc_5 c_cc_6 c_cc_7 c_cc_8 c_cc_9 c_cc_10 c_cc_11 c_cc_12 c_cc_13 c_cc_14 c_cc_15 c_cc_16 f_fppacc radius 
872 1 0.00525216 -0.0485433 0.00475457 0 0 0 -0.108051 -1.25366 -1.53588 0 -0.000164368 0 0 0 0 0 0 0 0 0 0 0 0 0 0 0 0 0 31 0.002 
821 3 0.0129446 -0.0480751 0.0318067 0 0 0 1.83614 4.89905 7.05383 0 -0.000164368 0 0 0 0 0 0 0 0 0 0 0 0 0 0 0 0 0 49 0.002 
830 7 0.0172994 -0.00546178 -0.0554782 0 0 0 1.52282 -20.8997 -2.79159 0 -0.000164368 0 0 0 0 0 0 0 0 0 0 0 0 0 0 0 0 0 64 0.002 
1480 1 0.0100505 0.0310256 -0.0457769 0 0 0 0.247486 -17.5725 -10.2121 0 -0.000164368 0 0 0 0 0 0 0 0 0 0 0 0 0 0 0 0 0 0 0.002 
823 9 0.00731988 0.0361562 -0.0294277 0 0 0 0.249207 -1.19005 0.144753 0 -0.000164368 0 0 0 0 0 0 0 0 0 0 0 0 0 0 0 0 0 44 0.002 
1056 1 0.00476764 0.033858 0.014436 0 0 0 0.530083 -3.93133 0.580886 0 -0.000164368 0 0 0 0 0 0 0 0 0 0 0 0 0 0 0 0 0 20 0.002 
1323 9 0.00567924 0.032886 0.0320364 0 0 0 0.634568 -1.66158 0.204448 0 -0.000164368 0 0 0 0 0 0 0 0 0 0 0 0 0 0 0 0 0 14 0.002 
1472 8 0.00798238 0.00992711 0.0567272 0 0 0 0.0970434 -1.39851 -1.72487 0 -0.000164368 0 0 0 0 0 0 0 0 0 0 0 0 0 0 0 0 0 0 0.002 
956 1 0.0148976 0.057129 0.00634208 0 0 0 -0.587277 -0.346803 -0.762982 0 -0.000164368 0 0 0 0 0 0 0 0 0 0 0 0 0 0 0 0 0 25 0.002 
41 1 0.0151124 0.052844 -0.0355002 0 0 0 4.10282e-16 -1.61536e-15 1.11863e-12 0 0 3.55271e-15 1 0 0 0 0 0 0 0 0 0 0 0 0 0 0 0 25 0.002 
480 3 0.0160939 0.0564684 -0.0354998 0 0 0 -4.13246e-16 1.63873e-15 1.11864e-12 0 0 -3.55271e-15 1 0 0 0 0 0 0 0 0 0 0 0 0 0 0 0 65 0.002 
1143 7 0.00335091 0.0568845 -0.0314966 0 0 0 -0.340495 0.179918 -1.63835 0 -0.000164368 0 0 0 0 0 0 0 0 0 0 0 0 0 0 0 0 0 23 0.002 
515 5 0.00448963 0.0525525 -0.0258227 0 0 0 1.61887 -6.04656 0.742956 0 -0.000164368 0 0 0 0 0 0 0 0 0 0 0 0 0 0 0 0 0 59 0.002 
559 5 0.00929277 0.054104 -0.0214221 0 0 0 1.20036 -5.55637 4.14207 0 -0.000164368 0 0 0 0 0 0 0 0 0 0 0 0 0 0 0 0 0 21 0.002 
230 6 0.00349429 0.0439873 -0.0222065 0 0 0 1.16762 -0.600451 -3.0582 0 -0.000164368 0 0 0 0 0 0 0 0 0 0 0 0 0 0 0 0 0 68 0.002 
1360 1 0.0167775 0.0625767 -0.0200318 0 0 0 -2.29388 -3.71295 4.06017 0 -0.000164368 0 0 0 0 0 0 0 0 0 0 0 0 0 0 0 0 0 7 0.002 
721 5 0.0096215 0.0638567 -0.00150858 0 0 0 -0.408755 -0.504473 -1.17837 0 -0.000164368 0 0 0 0 0 0 0 0 0 0 0 0 0 0 0 0 0 45 0.002 
635 4 0.00573725 0.0507207 -0.000624532 0 0 0 -1.06493 -0.944665 -2.75235 0 -0.000164368 0 0 0 0 0 0 0 0 0 0 0 0 0 0 0 0 0 62 0.002 
1373 5 0.0132101 0.0492285 -0.0122014 0 0 0 1.29081 -0.642352 1.61456 0 -0.000164368 0 0 0 0 0 0 0 0 0 0 0 0 0 0 0 0 0 6 0.002 
1193 8 0.003065 0.0465747 0.00968 0 0 0 0.385174 5.07279 -16.4148 0 -0.000164368 0 0 0 0 0 0 0 0 0 0 0 0 0 0 0 0 0 42 0.002 
995 2 0.00355817 0.0671716 0.0124522 0 0 0 0.391946 -0.568013 -0.908997 0 -0.000164368 0 0 0 0 0 0 0 0 0 0 0 0 0 0 0 0 0 29 0.002 
638 6 0.00392275 0.0733817 0.0129065 0 0 0 -0.522667 -1.17839 0.86594 0 -0.000164368 0 0 0 0 0 0 0 0 0 0 0 0 0 0 0 0 0 38 0.002 
495 8 0.00345593 0.0714335 0.0164608 0 0 0 -0.612438 -1.3019 0.879841 0 -0.000164368 0 0 0 0 0 0 0 0 0 0 0 0 0 0 0 0 0 49 0.002 
945 9 0.0161678 0.0742202 0.0329628 0 0 0 -0.0137315 -0.215569 -0.0226654 0 -0.000164368 0 0 0 0 0 0 0 0 0 0 0 0 0 0 0 0 0 27 0.002 
1025 4 0.0101593 0.0546404 0.0148542 0 0 0 -4.01381 2.47722 -4.74318 0 -0.000164368 0 0 0 0 0 0 0 0 0 0 0 0 0 0 0 0 0 44 0.002 
399 3 0.00964528 0.0745512 0.0186586 0 0 0 -0.876192 -0.135459 -0.670138 0 -0.000164368 0 0 0 0 0 0 0 0 0 0 0 0 0 0 0 0 0 63 0.002 
870 2 0.00751908 0.0466086 0.020749 0 0 0 -0.884887 -0.448899 -0.534555 0 -0.000164368 0 0 0 0 0 0 0 0 0 0 0 0 0 0 0 0 0 21 0.002 
433 9 0.00349287 0.0730585 0.0206911 0 0 0 -0.743678 -0.734204 0.665812 0 -0.000164368 0 0 0 0 0 0 0 0 0 0 0 0 0 0 0 0 0 69 0.002 
1312 4 0.00554898 0.0598081 0.0159803 0 0 0 0.257835 10.4194 -13.5994 0 -0.000164368 0 0 0 0 0 0 0 0 0 0 0 0 0 0 0 0 0 18 0.002 
914 8 0.00655181 0.0628732 0.0212136 0 0 0 -2.29604 1.6939 -0.411784 0 -0.000164368 0 0 0 0 0 0 0 0 0 0 0 0 0 0 0 0 0 24 0.002 
1023 1 0.00416729 0.0674974 0.0221365 0 0 0 0.417176 -0.514064 -0.0467191 0 -0.000164368 0 0 0 0 0 0 0 0 0 0 0 0 0 0 0 0 0 53 0.002 
1073 6 0.0159885 0.0743576 0.0214353 0 0 0 -2.78128 5.77884 -2.48255 0 -0.000164368 0 0 0 0 0 0 0 0 0 0 0 0 0 0 0 0 0 51 0.002 
337 8 0.00974438 0.0683825 0.0248045 0 0 0 -0.927128 0.91124 -0.924939 0 -0.000164368 0 0 0 0 0 0 0 0 0 0 0 0 0 0 0 0 0 54 0.002 
961 1 0.00321312 0.0707662 0.0255391 0 0 0 -0.0760463 -0.38056 0.0767404 0 -0.000164368 0 0 0 0 0 0 0 0 0 0 0 0 0 0 0 0 0 28 0.002 
984 3 0.00582094 0.0734655 0.0239905 0 0 0 0.029615 -0.269772 0.139905 0 -0.000164368 0 0 0 0 0 0 0 0 0 0 0 0 0 0 0 0 0 48 0.002 
887 1 0.0103011 0.0729983 0.0235583 0 0 0 0.125699 -0.35511 -0.0588128 0 -0.000164368 0 0 0 0 0 0 0 0 0 0 0 0 0 0 0 0 0 47 0.002 
974 2 0.0031806 0.0654517 0.0260919 0 0 0 -0.300915 -0.36002 0.00838419 0 -0.000164368 0 0 0 0 0 0 0 0 0 0 0 0 0 0 0 0 0 46 0.002 
1088 8 0.0157589 0.0655673 0.0278518 0 0 0 -0.344794 0.548586 -0.183541 0 -0.000164368 0 0 0 0 0 0 0 0 0 0 0 0 0 0 0 0 0 24 0.002 
1256 2 0.00677858 0.0664 0.0276875 0 0 0 -0.168696 -0.388778 0.263393 0 -0.000164368 0 0 0 0 0 0 0 0 0 0 0 0 0 0 0 0 0 26 0.002 
879 4 0.00654054 0.0745393 0.0279089 0 0 0 0.0663919 -0.178883 0.51072 0 -0.000164368 0 0 0 0 0 0 0 0 0 0 0 0 0 0 0 0 0 49 0.002 
731 2 0.0141199 0.0599843 0.0278902 0 0 0 -0.859498 0.0156526 -1.11575 0 -0.000164368 0 0 0 0 0 0 0 0 0 0 0 0 0 0 0 0 0 41 0.002 
1352 5 0.00480492 0.0627632 0.0289412 0 0 0 0.201357 -0.187568 0.00339904 0 -0.000164368 0 0 0 0 0 0 0 0 0 0 0 0 0 0 0 0 0 14 0.002 
973 12 0.0125592 0.0693886 0.0287686 0 0 0 0.108171 -0.236192 -0.251763 0 -0.000164368 0 0 0 0 0 0 0 0 0 0 0 0 0 0 0 0 0 49 0.002 
1292 9 0.00308505 0.0716129 0.0295236 0 0 0 0.0125975 -0.160354 -0.0535021 0 -0.000164368 0 0 0 0 0 0 0 0 0 0 0 0 0 0 0 0 0 13 0.002 
471 5 0.00833013 0.070221 0.0296809 0 0 0 0.0294924 -0.227623 -0.059531 0 -0.000164368 0 0 0 0 0 0 0 0 0 0 0 0 0 0 0 0 0 71 0.002 
1349 14 0.0137316 0.0506626 0.0324851 0 0 0 -0.490706 -0.835084 0.430756 0 -0.000164368 0 0 0 0 0 0 0 0 0 0 0 0 0 0 0 0 0 14 0.002 
1344 1 0.00328391 0.0571146 0.030724 0 0 0 -1.35847 -0.400813 -0.00678657 0 -0.000164368 0 0 0 0 0 0 0 0 0 0 0 0 0 0 0 0 0 9 0.002 
1327 4 0.00375301 0.0662326 0.030822 0 0 0 0.180318 -0.224092 -0.119495 0 -0.000164368 0 0 0 0 0 0 0 0 0 0 0 0 0 0 0 0 0 18 0.002 
493 5 0.014371 0.0669987 0.0321937 0 0 0 0.137848 -0.24083 0.108916 0 -0.000164368 0 0 0 0 0 0 0 0 0 0 0 0 0 0 0 0 0 69 0.002 
930 3 0.0176572 0.0702035 0.0323092 0 0 0 0.422755 -0.125815 -0.0812036 0 -0.000164368 0 0 0 0 0 0 0 0 0 0 0 0 0 0 0 0 0 63 0.002 
765 1 0.0113635 0.0713714 0.0322387 0 0 0 0.193127 -0.32547 -0.0399879 0 -0.000164368 0 0 0 0 0 0 0 0 0 0 0 0 0 0 0 0 0 55 0.002 
156 4 0.00558319 0.0522731 0.032446 0 0 0 0.51477 -0.624443 -0.11782 0 -0.000164368 0 0 0 0 0 0 0 0 0 0 0 0 0 0 0 0 0 48 0.002 
1268 9 0.00858631 0.0573201 0.0329609 0 0 0 -0.470039 -0.272054 0.639009 0 -0.000164368 0 0 0 0 0 0 0 0 0 0 0 0 0 0 0 0 0 19 0.002 
536 2 0.00390222 0.0628332 0.0329936 0 0 0 0.0159856 -0.179186 -0.0385932 0 -0.000164368 0 0 0 0 0 0 0 0 0 0 0 0 0 0 0 0 0 52 0.002 
519 1 0.0118502 0.0631402 0.0329699 0 0 0 -0.897798 -0.0717369 0.24823 0 -0.000164368 0 0 0 0 0 0 0 0 0 0 0 0 0 0 0 0 0 56 0.002 
1131 5 0.00996311 0.0675261 0.0327231 0 0 0 -0.0739249 -0.318664 0.0604482 0 -0.000164368 0 0 0 0 0 0 0 0 0 0 0 0 0 0 0 0 0 32 0.002 
790 3 0.00618258 0.0689561 0.0329802 0 0 0 0.0775799 -0.277954 -0.00481979 0 -0.000164368 0 0 0 0 0 0 0 0 0 0 0 0 0 0 0 0 0 54 0.002 
12 9 0.00329387 0.0744792 0.0328252 0 0 0 0.0541495 -0.168155 0.0188668 0 -0.000164368 0 0 0 0 0 0 0 0 0 0 0 0 0 0 0 0 0 61 0.002 
621 4 0.00720032 0.0733517 0.0326203 0 0 0 0.0505898 -0.234802 -0.0212973 0 -0.000164368 0 0 0 0 0 0 0 0 0 0 0 0 0 0 0 0 0 56 0.002 
289 3 0.0183761 0.0962485 -0.0306936 0 0 0 1.50248 -2.81937 4.28366 0 -0.000164368 0 0 0 0 0 0 0 0 0 0 0 0 0 0 0 0 0 52 0.002 
1031 3 0.00897847 0.106384 -0.0322298 0 0 0 0.218231 -0.606138 -0.766412 0 -0.000164368 0 0 0 0 0 0 0 0 0 0 0 0 0 0 0 0 0 34 0.002 
1228 8 0.0148096 0.107706 -0.0315876 0 0 0 0.522415 -2.17105 2.12914 0 -0.000164368 0 0 0 0 0 0 0 0 0 0 0 0 0 0 0 0 0 20 0.002 
632 6 0.00795175 0.0823768 -0.0330729 0 0 0 -0.109634 0.461512 2.90842 -0.00162489 -0.088762 -0.177225 0 0 0 0 0 0 0 0 0 0 0 0 0 0 0 0 70 0.002 
1431 6 0.00743363 0.100914 -0.0304031 0 0 0 0.997596 -1.63693 0.304049 0 -0.000164368 0 0 0 0 0 0 0 0 0 0 0 0 0 0 0 0 0 3 0.002 
590 2 0.0180484 0.104912 -0.0280874 0 0 0 0.428889 0.625766 2.13611 0.0216315 0.0116286 0.00490197 0 1 0 0 0 0 0 0 0 0 0 0 0 0 0 0 51 0.002 
116 1 0.00615681 0.0975425 -0.0275012 0 0 0 1.60998 0.499153 -0.542095 0 -0.000164368 0 0 0 0 0 0 0 0 0 0 0 0 0 0 0 0 0 61 0.002 
228 11 0.00342422 0.106573 -0.0292342 0 0 0 -2.42376 -0.782558 -1.14585 0 -0.000164368 0 0 0 0 0 0 0 0 0 0 0 0 0 0 0 0 0 18 0.002 
438 2 0.0144825 0.107543 -0.0270347 0 0 0 -1.29363 1.33042 0.276922 0 -0.000164368 0 0 0 0 0 0 0 0 0 0 0 0 0 0 0 0 0 54 0.002 
322 2 0.00976255 0.107244 -0.0257578 0 0 0 -0.500309 -0.532068 -0.782562 -0.0344306 0.0303972 -0.0300379 0 1 0 0 0 0 0 0 0 0 0 0 0 0 0 0 71 0.002 
1427 4 0.007141 0.0839096 -0.0258065 0 0 0 1.74995 1.99931 -3.21531 0 -0.000164368 0 0 0 0 0 0 0 0 0 0 0 0 0 0 0 0 0 0 0.002 
1483 5 0.0107094 0.0936498 -0.0325571 0 0 0 15.2007 -1.2735 10.75 0 -0.000164368 0 0 0 0 0 0 0 0 0 0 0 0 0 0 0 0 0 0 0.002 
1066 1 0.00482244 0.105349 -0.0235995 0 0 0 -0.262523 -0.458245 0.429799 0 -0.000164368 0 0 0 0 0 0 0 0 0 0 0 0 0 0 0 0 0 34 0.002 
451 1 0.0126716 0.106747 -0.0231285 0 0 0 -0.389281 0.798717 -0.457323 0.0344306 -0.0307259 0.0300379 0 1 0 0 0 0 0 0 0 0 0 0 0 0 0 0 53 0.002 
266 1 0.0173472 0.10781 -0.0237682 0 0 0 0.563056 0.820745 0.813956 0 -0.000164368 0 0 0 0 0 0 0 0 0 0 0 0 0 0 0 0 0 17 0.002 
1302 3 0.012254 0.0973889 -0.0198777 0 0 0 -0.883537 0.630487 4.90493 0.0471369 -0.1902 0.0567212 0 0 1 0 0 0 0 0 0 0 0 0 0 0 0 0 13 0.002 
841 3 0.0160337 0.10003 -0.0213447 0 0 0 1.33543 -0.626399 1.39612 0 -0.000164368 0 0 0 0 0 0 0 0 0 0 0 0 0 0 0 0 0 35 0.002 
237 10 0.00685392 0.101106 -0.0209934 0 0 0 -1.58035 0.169525 -0.68068 0 -0.000164368 0 0 0 0 0 0 0 0 0 0 0 0 0 0 0 0 0 69 0.002 
918 5 0.00831881 0.0985592 -0.017738 0 0 0 -0.882785 0.0336306 1.00364 0 -0.000164368 0 0 0 0 0 0 0 0 0 0 0 0 0 0 0 0 0 31 0.002 
1011 6 0.0112539 0.101172 -0.0197611 0 0 0 -1.14199 -0.0442896 -0.652091 -0.0471369 0.189871 -0.0567212 0 0 1 0 0 0 0 0 0 0 0 0 0 0 0 0 33 0.002 
1378 4 0.0172043 0.101825 -0.0178332 0 0 0 0.984737 -0.357096 2.41012 0 -0.000164368 0 0 0 0 0 0 0 0 0 0 0 0 0 0 0 0 0 19 0.002 
881 1 0.00376477 0.105103 -0.0177113 0 0 0 -0.182138 -1.32358 0.437208 0 -0.000164368 0 0 0 0 0 0 0 0 0 0 0 0 0 0 0 0 0 44 0.002 
954 5 0.00824052 0.106575 -0.019757 0 0 0 0.290598 0.298241 0.142316 0 -0.000164368 0 0 0 0 0 0 0 0 0 0 0 0 0 0 0 0 0 44 0.002 
579 8 0.0162419 0.106795 -0.0176602 0 0 0 0.121129 -0.186841 0.363545 0 -0.000164368 0 0 0 0 0 0 0 0 0 0 0 0 0 0 0 0 0 63 0.002 
576 2 0.00836993 0.0912858 -0.0157945 0 0 0 -0.175105 -1.25248 0.23169 0 -0.000164368 0 0 0 0 0 0 0 0 0 0 0 0 0 0 0 0 0 39 0.002 
1471 6 0.00407246 0.0944743 -0.0164792 0 0 0 0.0957494 -2.8196 1.56036 0 -0.000164368 0 0 0 0 0 0 0 0 0 0 0 0 0 0 0 0 0 0 0.002 
698 6 0.0081418 0.103339 -0.016997 0 0 0 -0.961623 -0.0487054 0.507971 0 -0.000164368 0 0 0 0 0 0 0 0 0 0 0 0 0 0 0 0 0 52 0.002 
533 4 0.0127063 0.10424 -0.0154263 0 0 0 -0.195241 0.242889 0.279706 0 -0.000164368 0 0 0 0 0 0 0 0 0 0 0 0 0 0 0 0 0 69 0.002 
1062 4 0.0123603 0.107919 -0.0170569 0 0 0 0.21315 0.126592 0.563905 0 -0.000164368 0 0 0 0 0 0 0 0 0 0 0 0 0 0 0 0 0 38 0.002 
816 7 0.0172546 0.0801506 -0.0163348 0 0 0 3.03903 2.38316 -4.99084 0 -0.000164368 0 0 0 0 0 0 0 0 0 0 0 0 0 0 0 0 0 10 0.002 
692 7 0.00662911 0.0952767 -0.0134112 0 0 0 0.536014 -0.00680429 1.20254 -0.0866397 -0.0369998 -0.0590684 0 0 0 0 0 0 1 0 0 0 0 0 0 0 0 0 55 0.002 
345 6 0.00786697 0.0992865 -0.0132023 0 0 0 0.25905 -0.147787 0.630138 -0.0129078 -0.0116959 -0.00252555 0 0 0 0 0 1 0 0 0 0 0 0 0 0 0 0 52 0.002 
104 1 0.0176613 0.10381 -0.0142159 0 0 0 0.52291 1.25095 2.62179 0 -0.000164368 0 0 0 0 0 0 0 0 0 0 0 0 0 0 0 0 0 43 0.002 
772 4 0.00967145 0.107323 -0.0140782 0 0 0 -0.176075 -0.0891293 0.279935 0 -0.000164368 0 0 0 0 0 0 0 0 0 0 0 0 0 0 0 0 0 46 0.002 
262 3 0.00995222 0.0961924 -0.011504 0 0 0 0.445207 -0.290874 0.661928 0.0866397 0.0366711 0.0590684 0 0 0 0 0 0 1 0 0 0 0 0 0 0 0 0 51 0.002 
469 3 0.00325284 0.0985953 -0.0122174 0 0 0 0.0641701 -0.597023 0.511264 0 -0.000164368 0 0 0 0 0 0 0 0 0 0 0 0 0 0 0 0 0 45 0.002 
861 8 0.00353223 0.102971 -0.0124052 0 0 0 0.285516 -0.289883 0.873556 0 -0.000164368 0 0 0 0 0 0 0 0 0 0 0 0 0 0 0 0 0 58 0.002 
1460 2 0.0108667 0.101807 -0.0125665 0 0 0 0.44162 0.0296383 0.465493 0.0129078 0.0113672 0.00252555 0 0 0 0 0 1 0 0 0 0 0 0 0 0 0 0 3 0.002 
84 8 0.00723504 0.103593 -0.010968 0 0 0 0.111349 0.0729863 0.49784 0 -0.000164368 0 0 0 0 0 0 0 0 0 0 0 0 0 0 0 0 0 67 0.002 
538 1 0.0139282 0.107119 -0.0121243 0 0 0 -0.00132763 0.142812 0.785614 0 -0.000164368 0 0 0 0 0 0 0 0 0 0 0 0 0 0 0 0 0 43 0.002 
938 2 0.0180279 0.107494 -0.0124258 0 0 0 0.10986 -0.11701 0.0905944 0 -0.000164368 0 0 0 0 0 0 0 0 0 0 0 0 0 0 0 0 0 22 0.002 
985 4 0.00675624 0.107967 -0.0112039 0 0 0 -5.6443e-05 -0.00407012 0.335497 0.0217 0.00306723 -0.00623023 0 0 0 1 0 0 0 0 0 0 0 0 0 0 0 0 39 0.002 
663 7 0.00631564 0.0949649 -0.00933411 0 0 0 -0.0975459 -0.630727 0.38312 0 -0.000164368 0 0 0 0 0 0 0 0 0 0 0 0 0 0 0 0 0 44 0.002 
988 10 0.00480107 0.100939 -0.00905683 0 0 0 0.163327 -0.337511 0.595013 0 -0.000164368 0 0 0 0 0 0 0 0 0 0 0 0 0 0 0 0 0 27 0.002 
778 4 0.0140711 0.100492 -0.0102607 0 0 0 -0.209672 -0.709342 0.825594 0 -0.000164368 0 0 0 0 0 0 0 0 0 0 0 0 0 0 0 0 0 47 0.002 
403 8 0.0172647 0.102758 -0.00942655 0 0 0 -0.144223 -0.542663 0.360759 0 -0.000164368 0 0 0 0 0 0 0 0 0 0 0 0 0 0 0 0 0 53 0.002 
940 2 0.0115181 0.104032 -0.00924274 0 0 0 -0.062994 -0.0804369 0.422915 0 -0.000164368 0 0 0 0 0 0 0 0 0 0 0 0 0 0 0 0 0 36 0.002 
309 1 0.00299137 0.107348 -0.0100887 0 0 0 -0.00712594 0.0190433 0.266953 -0.00851394 -0.00120821 0.00198026 0 0 0 1 0 0 0 0 0 0 0 0 0 0 0 0 69 0.002 
871 2 0.016386 0.107295 -0.0085278 0 0 0 0.025775 -0.131816 0.228797 -0.0327373 0.00445124 -0.00804331 0 1 0 0 0 0 0 0 0 0 0 0 0 0 0 0 21 0.002 
827 2 0.0105727 0.107918 -0.00994447 0 0 0 -0.122233 -0.0773822 0.376677 0 -0.000164368 0 0 0 0 0 0 0 0 0 0 0 0 0 0 0 0 0 42 0.002 
1127 2 0.0141349 0.0929837 -0.00774127 0 0 0 -0.746006 -0.609883 -0.854609 0 -0.000164368 0 0 0 0 0 0 0 0 0 0 0 0 0 0 0 0 0 37 0.002 
1478 2 0.0112487 0.0979109 -0.00633972 0 0 0 -0.824118 -0.583598 0.3738 0 -0.000164368 0 0 0 0 0 0 0 0 0 0 0 0 0 0 0 0 0 0 0.002 
182 2 0.0177653 0.0980844 -0.0066558 0 0 0 -0.420248 0.60301 -0.667616 0 -0.000164368 0 0 0 0 0 0 0 0 0 0 0 0 0 0 0 0 0 64 0.002 
359 3 0.00864573 0.10091 -0.00775451 0 0 0 -0.150029 -0.491468 -0.25281 0.00409099 0.00224813 0.00478324 0 0 1 0 0 0 0 0 0 0 0 0 0 0 0 0 53 0.002 
252 6 0.00786047 0.107837 -0.00695989 0 0 0 -0.0668327 0.0583147 0.54518 0 -0.000164368 0 0 0 0 0 0 0 0 0 0 0 0 0 0 0 0 0 42 0.002 
1328 5 0.00346871 0.107848 -0.00598444 0 0 0 -0.247072 -0.0942812 0.305438 0.000251333 -0.000379 0.00161203 0 0 0 0 1 0 0 0 0 0 0 0 0 0 0 0 15 0.002 
583 1 0.0163676 0.0944381 -0.00461286 0 0 0 -1.26456 0.531861 -0.234757 0 -0.000164368 0 0 0 0 0 0 0 0 0 0 0 0 0 0 0 0 0 66 0.002 
249 4 0.0186606 0.101409 -0.0034391 0 0 0 -0.152763 0.301388 1.56682 0 -0.000164368 0 0 0 0 0 0 0 0 0 0 0 0 0 0 0 0 0 47 0.002 
176 2 0.00305963 0.103716 -0.00586269 0 0 0 0.0345546 -0.211223 0.229275 0 -0.000164368 0 0 0 0 0 0 0 0 0 0 0 0 0 0 0 0 0 59 0.002 
836 4 0.0151424 0.103741 -0.00399638 0 0 0 0.116285 0.543282 0.0521565 0 -0.000164368 0 0 0 0 0 0 0 0 0 0 0 0 0 0 0 0 0 51 0.002 
998 5 0.0121929 0.107427 -0.00589818 0 0 0 0.14265 0.156022 0.42527 0 -0.000164368 0 0 0 0 0 0 0 0 0 0 0 0 0 0 0 0 0 28 0.002 
545 9 0.0122591 0.091407 -0.00272171 0 0 0 -0.163958 -0.324992 0.406283 0 -0.000164368 0 0 0 0 0 0 0 0 0 0 0 0 0 0 0 0 0 60 0.002 
1326 1 0.0031645 0.096121 -0.00189896 0 0 0 0.179491 1.0275 -0.153413 0 -0.000164368 0 0 0 0 0 0 0 0 0 0 0 0 0 0 0 0 0 11 0.002 
942 2 0.00681458 0.0949218 -0.00345233 0 0 0 0.136568 -0.818375 -0.100916 0 -0.000164368 0 0 0 0 0 0 0 0 0 0 0 0 0 0 0 0 0 35 0.002 
1199 14 0.0144736 0.100326 -0.0017801 0 0 0 0.371474 0.408412 0.452558 0 -0.000164368 0 0 0 0 0 0 0 0 0 0 0 0 0 0 0 0 0 27 0.002 
1481 4 0.00997543 0.10119 -0.00399895 0 0 0 0.0126511 0.555597 -0.143529 -0.00409099 -0.00257687 -0.00478324 0 0 1 0 0 0 0 0 0 0 0 0 0 0 0 0 2 0.002 
1362 8 0.00672877 0.103387 -0.00248931 0 0 0 -0.238375 0.219878 0.0409172 0 -0.000164368 0 0 0 0 0 0 0 0 0 0 0 0 0 0 0 0 0 8 0.002 
927 3 0.00400106 0.107069 -0.00209787 0 0 0 -0.135689 0.0723984 0.412891 -0.000251333 5.02634e-05 -0.00161203 0 0 0 0 1 0 0 0 0 0 0 0 0 0 0 0 42 0.002 
1444 3 0.00919282 0.107222 -0.00315223 0 0 0 0.103802 -0.0587868 0.50755 0 -0.000164368 0 0 0 0 0 0 0 0 0 0 0 0 0 0 0 0 0 1 0.002 
741 5 0.0148798 0.107806 -0.002274 0 0 0 0.224182 0.301713 0.206248 0 -0.000164368 0 0 0 0 0 0 0 0 0 0 0 0 0 0 0 0 0 51 0.002 
1428 1 0.00372565 0.0845224 -0.000340156 0 0 0 0.456074 -0.712691 0.258324 0 -0.000164368 0 0 0 0 0 0 0 0 0 0 0 0 0 0 0 0 0 1 0.002 
1470 6 0.00793695 0.0908852 -0.0011288 0 0 0 0.149824 -0.369718 0.273337 0.171297 0.0151331 -0.149604 0 0 0 0 0 1 0 0 0 0 0 0 0 0 0 0 1 0.002 
465 4 0.00942051 0.0976329 -0.00114161 0 0 0 -0.0188983 0.0324387 0.0511346 0 -0.000164368 0 0 0 0 0 0 0 0 0 0 0 0 0 0 0 0 0 55 0.002 
960 3 0.00463825 0.0998955 0.00050875 0 0 0 -0.449761 0.655497 0.195252 0 -0.000164368 0 0 0 0 0 0 0 0 0 0 0 0 0 0 0 0 0 47 0.002 
1371 4 0.00298599 0.103361 -0.000663328 0 0 0 0.147169 0.174497 0.165466 0.0096772 -0.00274311 0.001296 0 0 0 0 0 0 0 0 0 0 0 0 0 0 0 0 3 0.002 
677 9 0.0123407 0.104145 -0.00115291 0 0 0 0.113277 0.131748 0.0963224 0 -0.000164368 0 0 0 0 0 0 0 0 0 0 0 0 0 0 0 0 0 83 0.002 
828 2 0.0105419 0.107434 0.000607809 0 0 0 0.200837 0.239341 0.322607 0 -0.000164368 0 0 0 0 0 0 0 0 0 0 0 0 0 0 0 0 0 50 0.002 
167 2 0.0178287 0.106087 -0.000187175 0 0 0 0.0987241 0.224088 0.421143 0 -0.000164368 0 0 0 0 0 0 0 0 0 0 0 0 0 0 0 0 0 45 0.002 
748 7 0.00653755 0.107994 0.0008553 0 0 0 0.169109 0.00499984 0.285341 0.000101165 -0.000169453 -0.000149096 0 0 0 0 0 0 1 0 0 0 0 0 0 0 0 0 55 0.002 
991 8 0.00481249 0.092283 0.000772896 0 0 0 1.25893 -0.131202 0.0120679 -0.171297 -0.0154619 0.149604 0 0 0 0 0 1 0 0 0 0 0 0 0 0 0 0 33 0.002 
1129 5 0.0161153 0.0981877 0.00128673 0 0 0 -0.522977 0.0193633 0.184334 0 -0.000164368 0 0 0 0 0 0 0 0 0 0 0 0 0 0 0 0 0 35 0.002 
387 10 0.00969208 0.102803 0.00159584 0 0 0 0.0146657 0.0622288 0.0937208 0 -0.000164368 0 0 0 0 0 0 0 0 0 0 0 0 0 0 0 0 0 35 0.002 
1158 12 0.0136061 0.102111 0.00279762 0 0 0 0.225686 0.24711 0.0953482 0 -0.000164368 0 0 0 0 0 0 0 0 0 0 0 0 0 0 0 0 0 31 0.002 
1255 3 0.00305363 0.107996 0.00281204 0 0 0 0.043044 -0.020522 0.140762 0.000334065 9.90932e-05 -0.000661068 0 0 1 0 0 0 1 0 0 0 0 0 0 0 0 0 22 0.002 
829 1 0.00713969 0.0885128 0.00299771 0 0 0 -0.622689 1.53637 -1.73734 0 -0.000164368 0 0 0 0 0 0 0 0 0 0 0 0 0 0 0 0 0 51 0.002 
1459 3 0.0157982 0.0874506 0.00492373 0 0 0 -0.382378 -0.55075 0.644319 0 -0.000164368 0 0 0 0 0 0 0 0 0 0 0 0 0 0 0 0 0 0 0.002 
570 1 0.0160094 0.0944699 0.00411921 0 0 0 0.239205 0.126728 -0.503183 0 -0.000164368 0 0 0 0 0 0 0 0 0 0 0 0 0 0 0 0 0 48 0.002 
306 3 0.00363397 0.0974487 0.00405035 0 0 0 -0.0757914 -0.339106 0.451823 0 -0.000164368 0 0 0 0 0 0 0 0 0 0 0 0 0 0 0 0 0 68 0.002 
1469 6 0.0084347 0.09929 0.00337529 0 0 0 -0.902198 1.86606 -0.392536 0 -0.000164368 0 0 0 0 0 0 0 0 0 0 0 0 0 0 0 0 0 2 0.002 
625 3 0.00301939 0.103654 0.00339418 0 0 0 0.0172019 -0.0296548 0.298681 0.000879802 0.000771201 -0.00236894 0 0 1 0 0 0 0 0 0 0 0 0 0 0 0 0 46 0.002 
481 2 0.00716998 0.106796 0.00461991 0 0 0 0.154323 0.0104418 0.312982 0 -0.000164368 0 0 0 0 0 0 0 0 0 0 0 0 0 0 0 0 0 31 0.002 
712 2 0.0154377 0.105662 0.00332988 0 0 0 0.183931 -0.0403126 0.163175 0 -0.000164368 0 0 0 0 0 0 0 0 0 0 0 0 0 0 0 0 0 51 0.002 
300 1 0.0122923 0.10797 0.00504376 0 0 0 -0.0293391 -0.062085 0.00895519 0 -0.000164368 0 0 0 0 0 0 0 0 0 0 0 0 0 0 0 0 0 59 0.002 
364 3 0.00315869 0.0842768 0.00570772 0 0 0 0.51513 0.743435 -0.953947 0 -0.000164368 0 0 0 0 0 0 0 0 0 0 0 0 0 0 0 0 0 60 0.002 
1016 8 0.00583331 0.0885034 0.00688006 0 0 0 0.334932 0.55578 -0.916725 0 -0.000164368 0 0 0 0 0 0 0 0 0 0 0 0 0 0 0 0 0 40 0.002 
328 5 0.0157252 0.09728 0.0070644 0 0 0 0.356394 -0.00400014 -0.252711 -0.000990455 -0.00184748 -0.00124557 0 0 0 0 1 0 0 0 0 0 0 0 0 0 0 0 22 0.002 
1065 3 0.00928189 0.098665 0.00740288 0 0 0 -0.187029 0.442394 -0.393206 0 -0.000164368 0 0 0 0 0 0 0 0 0 0 0 0 0 0 0 0 0 34 0.002 
188 6 0.00298469 0.101036 0.00641294 0 0 0 0.0796177 -0.284319 0.0390338 0.0197151 -0.00536417 -0.00700409 0 0 1 0 0 0 0 0 0 0 0 0 0 0 0 0 67 0.002 
1222 3 0.0128929 0.100809 0.00748475 0 0 0 0.39429 0.0267173 0.539893 0 -0.000164368 0 0 0 0 0 0 0 0 0 0 0 0 0 0 0 0 0 24 0.002 
668 7 0.0174665 0.10085 0.0075024 0 0 0 0.31576 -0.0681619 0.286406 0.000990455 0.00151875 0.00124557 0 0 0 0 1 0 0 0 0 0 0 0 0 0 0 0 51 0.002 
751 3 0.011149 0.104255 0.00620818 0 0 0 -0.0298557 -0.116714 0.244854 0 -0.000164368 0 0 0 0 0 0 0 0 0 0 0 0 0 0 0 0 0 46 0.002 
462 8 0.00300972 0.106631 0.0065693 0 0 0 0.0317879 -0.016907 0.131739 -0.00057604 -0.000257121 0.000587842 0 0 1 0 0 0 0 1 0 0 0 0 0 0 0 0 49 0.002 
707 2 0.0160807 0.10793 0.00657107 0 0 0 -0.0225029 0.0434869 0.152639 -0.00115029 0.0108404 -0.0135084 0 1 0 0 0 0 0 0 0 0 0 0 0 0 0 0 75 0.002 
1094 10 0.0050379 0.0790071 0.00773029 0 0 0 1.94885 1.54745 -0.39599 0 -0.000164368 0 0 0 0 0 0 0 0 0 0 0 0 0 0 0 0 0 39 0.002 
1103 1 0.00694355 0.100959 0.00990045 0 0 0 -0.0982664 0.246844 0.148684 0.00721584 -0.00945566 -0.0103727 1 0 0 0 0 0 0 0 0 0 0 0 0 0 0 0 41 0.002 
723 5 0.00313689 0.103768 0.00935913 0 0 0 0.0331024 -0.0432984 0.0895974 0.000137632 -0.000316867 0.000212716 0 0 0 0 1 0 0 1 0 0 0 0 0 0 0 0 50 0.002 
655 1 0.00751175 0.104404 0.00791814 0 0 0 -0.146952 0.161648 0.130326 -0.00586311 -0.0212443 0.00612625 2 0 0 0 0 0 0 0 0 0 0 0 0 0 0 0 51 0.002 
1126 4 0.0148415 0.104851 0.00877373 0 0 0 0.0406589 0.0897004 0.115929 0.00299982 -0.00638893 0.0109313 0 1 0 1 0 0 0 0 0 0 0 0 0 0 0 0 35 0.002 
5 3 0.00936884 0.107909 0.00824988 0 0 0 -0.0498715 0.00800534 0.0974784 0.00748431 0.0200996 -0.00816279 1 0 0 0 0 0 0 0 0 0 0 0 0 0 0 0 17 0.002 
695 2 0.01023 0.0756858 0.00537636 0 0 0 -2.80512 3.44925 -3.98422 0 -0.000164368 0 0 0 0 0 0 0 0 0 0 0 0 0 0 0 0 0 49 0.002 
742 3 0.00811864 0.0836212 0.0114005 0 0 0 -0.507123 0.233545 -0.33604 0 -0.000164368 0 0 0 0 0 0 0 0 0 0 0 0 0 0 0 0 0 49 0.002 
1234 4 0.0033263 0.0928984 0.0107932 0 0 0 0.122368 0.343311 -0.266565 0 -0.000164368 0 0 0 0 0 0 0 0 0 0 0 0 0 0 0 0 0 21 0.002 
1166 1 0.0112744 0.0993769 0.0113791 0 0 0 0.0329617 0.122993 0.103849 0 -0.000164368 0 0 0 0 0 0 0 0 0 0 0 0 0 0 0 0 0 19 0.002 
253 2 0.0148103 0.102289 0.0118284 0 0 0 0.238388 0.0193778 0.149881 -0.00184953 -0.00494459 0.00257711 0 1 0 0 0 0 0 0 0 0 0 0 0 0 0 0 44 0.002 
613 2 0.00630533 0.104449 0.0117269 0 0 0 -0.0310326 0.0341561 0.145897 -0.0126458 0.00713153 0.00782715 0 2 0 0 0 0 0 0 0 0 0 0 0 0 0 0 16 0.002 
203 3 0.0101523 0.103286 0.010809 0 0 0 0.0603821 0.238544 0.0788633 0 -0.000164368 0 0 0 0 0 0 0 0 0 0 0 0 0 0 0 0 0 49 0.002 
833 6 0.00393868 0.107792 0.0111465 0 0 0 -0.0618124 -0.00659099 0.0240996 0 -0.000164368 0 0 0 0 0 0 0 0 0 0 0 0 0 0 0 0 0 35 0.002 
1142 2 0.016623 0.107652 0.0110667 0 0 0 0.125897 0.050494 0.0676936 -0.000464028 -8.66255e-05 -0.00158986 0 1 0 0 0 0 0 0 0 0 0 0 0 0 0 0 31 0.002 
123 8 0.0125632 0.107952 0.0107346 0 0 0 0.0903185 -0.0384167 -0.00240466 0 -0.000164368 0 0 0 0 0 0 0 0 0 0 0 0 0 0 0 0 0 64 0.002 
492 4 0.0183623 0.080584 0.0133625 0 0 0 -0.00845581 -0.140295 -0.464878 0 -0.000164368 0 0 0 0 0 0 0 0 0 0 0 0 0 0 0 0 0 49 0.002 
753 6 0.00814903 0.0866475 0.0143108 0 0 0 0.0685041 0.307727 -0.112308 0 -0.000164368 0 0 0 0 0 0 0 0 0 0 0 0 0 0 0 0 0 81 0.002 
1310 1 0.00309287 0.0962162 0.0131004 0 0 0 0.0567405 0.313486 0.169533 0 -0.000164368 0 0 0 0 0 0 0 0 0 0 0 0 0 0 0 0 0 11 0.002 
1426 5 0.00715906 0.0968572 0.0125368 0 0 0 -0.10175 0.0637484 -0.0157002 0 -0.000164368 0 0 0 0 0 0 0 0 0 0 0 0 0 0 0 0 0 2 0.002 
486 2 0.00708274 0.100714 0.0139069 0 0 0 0.0121579 0.0786447 0.257992 0.000591008 -0.000529043 -9.59131e-05 0 1 0 0 0 0 0 0 0 0 0 0 0 0 0 0 47 0.002 
423 3 0.0182185 0.100389 0.0135675 0 0 0 0.0119823 0.0703659 0.0148045 0 -0.000164368 0 0 0 0 0 0 0 0 0 0 0 0 0 0 0 0 0 57 0.002 
1356 1 0.00340393 0.101895 0.0128815 0 0 0 0.0126492 -0.0487834 0.104146 -0.000377533 -0.000153602 -0.000619612 2 1 0 0 0 0 0 0 0 0 0 0 0 0 0 0 10 0.002 
1388 1 0.00994233 0.0802326 0.0150804 0 0 0 -0.349961 0.270202 -0.423693 0 -0.000164368 0 0 0 0 0 0 0 0 0 0 0 0 0 0 0 0 0 5 0.002 
639 9 0.012852 0.0838811 0.0148171 0 0 0 0.144704 -0.141794 -0.202189 0 -0.000164368 0 0 0 0 0 0 0 0 0 0 0 0 0 0 0 0 0 57 0.002 
766 7 0.00354562 0.0854712 0.0161376 0 0 0 -0.0243274 -0.0116175 -0.156529 0 -0.000164368 0 0 0 0 0 0 0 0 0 0 0 0 0 0 0 0 0 54 0.002 
886 5 0.018708 0.084301 0.0154141 0 0 0 0.161501 -0.201969 -0.0224168 0 -0.000164368 0 0 0 0 0 0 0 0 0 0 0 0 0 0 0 0 0 33 0.002 
1221 1 0.00902797 0.0908621 0.0149826 0 0 0 0.0631225 -0.133 -0.103793 0 -0.000164368 0 0 0 0 0 0 0 0 0 0 0 0 0 0 0 0 0 13 0.002 
1219 5 0.012635 0.089065 0.0146921 0 0 0 0.127815 -0.0988345 -0.179512 0 -0.000164368 0 0 0 0 0 0 0 0 0 0 0 0 0 0 0 0 0 18 0.002 
1015 7 0.0134147 0.0945898 0.0165229 0 0 0 0.0304989 -0.150831 -0.0406758 0 -0.000164368 0 0 0 0 0 0 0 0 0 0 0 0 0 0 0 0 0 35 0.002 
1346 3 0.0183824 0.0963938 0.0145656 0 0 0 0.048095 0.0130369 -0.0535806 0 -0.000164368 0 0 0 0 0 0 0 0 0 0 0 0 0 0 0 0 0 5 0.002 
531 1 0.0103142 0.0986851 0.0152643 0 0 0 -0.180767 -0.0710176 0.101916 0 -0.000164368 0 0 0 0 0 0 0 0 0 0 0 0 0 0 0 0 0 79 0.002 
1033 2 0.0144213 0.098554 0.0153723 0 0 0 -0.186949 0.0404838 0.0796906 0 -0.000164368 0 0 0 0 0 0 0 0 0 0 0 0 0 0 0 0 0 44 0.002 
933 1 0.0125258 0.102357 0.0154835 0 0 0 -0.0414545 0.0212838 0.0397953 0 -0.000164368 0 0 0 0 0 0 0 0 0 0 0 0 0 0 0 0 0 45 0.002 
835 12 0.0163644 0.104554 0.0148505 0 0 0 0.127427 0.212122 0.100889 0 -0.000164368 0 0 0 0 0 0 0 0 0 0 0 0 0 0 0 0 0 50 0.002 
308 1 0.00300489 0.106175 0.0148387 0 0 0 0.00762764 -0.0542829 0.0311861 0 -0.000164368 0 0 0 0 0 0 0 0 0 0 0 0 0 0 0 0 0 68 0.002 
967 2 0.00726596 0.107006 0.0146354 0 0 0 0.0777035 0.0218397 0.0959363 0.00380874 0.00264705 0.00458214 0 0 0 0 0 0 0 0 0 0 0 0 0 0 0 0 37 0.002 
636 8 0.0117669 0.106856 0.015359 0 0 0 0.0309434 -0.0796472 0.0710968 -0.000189724 -0.000365223 -0.000220581 0 0 0 0 0 0 0 1 0 0 0 0 0 0 0 0 39 0.002 
154 5 0.0185321 0.108001 0.0145598 0 0 0 0.105918 0.00124686 0.0763043 0.000196827 -0.000294146 -6.75613e-05 0 1 0 0 1 0 0 0 0 0 0 0 0 0 0 0 23 0.002 
1389 4 0.0176866 0.0768219 0.0183645 0 0 0 -0.175518 -0.161446 -0.513939 0 -0.000164368 0 0 0 0 0 0 0 0 0 0 0 0 0 0 0 0 0 3 0.002 
1021 3 0.0143183 0.0791257 0.0181842 0 0 0 -0.0650194 0.292266 -0.40517 0 -0.000164368 0 0 0 0 0 0 0 0 0 0 0 0 0 0 0 0 0 40 0.002 
781 2 0.0162647 0.0838098 0.0185727 0 0 0 -0.0765409 -0.0653324 -0.175119 0 -0.000164368 0 0 0 0 0 0 0 0 0 0 0 0 0 0 0 0 0 48 0.002 
557 5 0.0138071 0.0869063 0.0178932 0 0 0 -0.0876398 -0.0321138 -0.129234 0 -0.000164368 0 0 0 0 0 0 0 0 0 0 0 0 0 0 0 0 0 54 0.002 
1417 5 0.00417054 0.0898465 0.0173031 0 0 0 0.0115583 -0.190293 -0.107921 0 -0.000164368 0 0 0 0 0 0 0 0 0 0 0 0 0 0 0 0 0 2 0.002 
917 8 0.0111667 0.0913218 0.0186299 0 0 0 -0.0210744 -0.141709 -0.0590378 -0.000320241 -4.3805e-05 -0.000403095 0 0 0 0 0 0 0 2 0 0 0 0 0 0 0 0 49 0.002 
1156 1 0.0168727 0.0926054 0.0170972 0 0 0 0.013381 -0.157267 -0.0108055 0 -0.000164368 0 0 0 0 0 0 0 0 0 0 0 0 0 0 0 0 0 22 0.002 
1252 4 0.00325756 0.0942784 0.016982 0 0 0 0.0218539 -0.136721 0.00440118 6.98485e-06 -0.000276394 -0.000283814 0 0 0 1 0 0 0 0 0 0 0 0 0 0 0 0 12 0.002 
516 2 0.00861439 0.0953264 0.0168774 0 0 0 0.0537556 -0.160276 -0.076356 0 -0.000164368 0 0 0 0 0 0 0 0 0 0 0 0 0 0 0 0 0 64 0.002 
1107 3 0.00963312 0.106165 0.032665 0 0 0 0.000749179 -0.113024 0.105098 0 -0.000164368 0 0 0 0 0 0 0 0 0 0 0 0 0 0 0 0 0 17 0.002 
782 1 0.0184715 0.100076 0.0177043 0 0 0 0.0381212 -0.0424385 0.058571 0 -0.000164368 0 0 0 0 0 0 0 0 0 0 0 0 0 0 0 0 0 37 0.002 
562 3 0.00300112 0.101875 0.0168572 0 0 0 0.000538136 -0.0838625 0.121657 -0.000704224 -5.56753e-05 -0.00143643 1 0 1 0 0 0 0 0 0 0 0 0 0 0 0 0 46 0.002 
1299 5 0.00885014 0.101895 0.0173854 0 0 0 0.0446149 0.1075 0.099557 0.00100643 -0.000103923 -0.000747204 0 0 0 0 0 0 0 0 0 0 0 0 0 0 0 0 23 0.002 
586 9 0.0153313 0.103026 0.0184014 0 0 0 0.0701363 0.0442153 0.0127038 0.000112524 -0.000154252 0.000250766 0 0 0 0 0 0 0 0 1 0 0 0 0 0 0 0 63 0.002 
434 14 0.00593102 0.10478 0.0177878 0 0 0 -0.0784637 0.0837693 0.112035 0.00463178 -0.00120039 -0.00271967 0 0 0 0 0 0 0 0 0 0 0 0 0 1 0 0 69 0.002 
496 2 0.011514 0.104644 0.0187086 0 0 0 0.0275913 -0.0114792 0.169391 0 -0.000164368 0 0 0 0 0 0 0 0 0 0 0 0 0 0 0 0 0 42 0.002 
1236 1 0.00309628 0.107496 0.0186293 0 0 0 0.0107512 -0.0780779 0.038036 0 -0.000164368 0 0 0 0 0 0 0 0 0 0 0 0 0 0 0 0 0 11 0.002 
1399 3 0.00870642 0.107606 0.0185568 0 0 0 0.082217 -0.0213967 0.0769679 0 -0.000164368 0 0 0 0 0 0 0 0 0 0 0 0 0 0 0 0 0 8 0.002 
1100 2 0.0145516 0.107434 0.0181695 0 0 0 0.0110702 -0.0252975 0.082191 0.000189724 3.64866e-05 0.000220581 0 0 0 0 0 0 0 1 0 0 0 0 0 0 0 0 38 0.002 
957 4 0.0185392 0.106893 0.0183977 0 0 0 0.0116555 -0.0172642 0.0909541 2.23089e-05 -0.000146052 0.000558637 0 0 0 1 1 0 0 0 0 0 0 0 0 0 0 0 55 0.002 