ITEM: TIMESTEP
2050000
ITEM: NUMBER OF ATOMS
249
ITEM: BOX BOUNDS ff ff ff
-0.01 0.45
-0.15 0.15
-0.08 0.1
ITEM: ATOMS id type x y z ix iy iz vx vy vz fx fy fz c_cc_1 c_cc_2 c_cc_3 c_cc_4 c_cc_5 c_cc_6 c_cc_7 c_cc_8 c_cc_9 c_cc_10 c_cc_11 c_cc_12 c_cc_13 c_cc_14 c_cc_15 c_cc_16 f_fppacc radius 
140 4 0.0154111 -0.048758 -0.0312128 0 0 0 10.5915 -16.7331 30.8944 -0.177253 0.323058 0.309032 0 0 0 0 0 0 0 0 0 0 0 0 0 0 0 0 0 0.002 
246 5 0.00442513 -0.0527134 0.0193846 0 0 0 1.00474 6.56138 15.7382 0 -0.000164368 0 0 0 0 0 0 0 0 0 0 0 0 0 0 0 0 0 0 0.002 
206 6 0.00419723 -0.00293468 0.0564591 0 0 0 0.240898 -0.2653 -0.661764 0 -0.000164368 0 0 0 0 0 0 0 0 0 0 0 0 0 0 0 0 0 0 0.002 
36 12 0.0156404 0.00263381 -0.0570822 0 0 0 0.748872 -7.00774 0.128045 0 -0.000164368 0 0 0 0 0 0 0 0 0 0 0 0 0 0 0 0 0 2 0.002 
33 2 0.0153176 0.0240884 -0.0558587 0 0 0 1.66884e-07 -3.59016e-14 7.20803e-14 -8.46766e-18 0 0 0 0 0 0 0 0 0 0 0 0 0 0 0 0 0 0 0 0.002 
230 6 0.0163002 0.0302035 -0.0486565 0 0 0 0.588596 -1.48075 -2.45505 0 -0.000164368 0 0 0 0 0 0 0 0 0 0 0 0 0 0 0 0 0 0 0.002 
84 8 0.0059215 0.0127859 0.0482397 0 0 0 0.287913 7.17683 5.00355 0 -0.000164368 0 0 0 0 0 0 0 0 0 0 0 0 0 0 0 0 0 0 0.002 
41 1 0.0151393 0.0528437 -0.0355 0 0 0 0 2.23436e-20 -3.36604e-12 -0 0 0 0 0 0 0 0 0 0 0 0 0 0 0 0 0 0 0 0 0.002 
196 4 0.0160027 0.0645529 -0.0272576 0 0 0 -4.16104 4.30262 3.14767 0 -0.000164368 0 0 0 0 0 0 0 0 0 0 0 0 0 0 0 0 0 1 0.002 
249 4 0.00961653 0.0682154 -0.0287417 0 0 0 3.17871 -5.11864 12.4929 0 -0.000164368 0 0 0 0 0 0 0 0 0 0 0 0 0 0 0 0 0 0 0.002 
138 4 0.00635097 0.0623618 -0.0224225 0 0 0 -0.127513 -0.982474 -2.49383 0 -0.000164368 0 0 0 0 0 0 0 0 0 0 0 0 0 0 0 0 0 1 0.002 
1 6 0.0129745 0.0591883 -0.0179592 0 0 0 -0.624473 0.0640475 -5.47832 0 -0.000164368 0 0 0 0 0 0 0 0 0 0 0 0 0 0 0 0 0 1 0.002 
220 2 0.0078764 0.0749802 0.00196505 0 0 0 -0.361006 -1.56437 0.522444 0 -0.000164368 0 0 0 0 0 0 0 0 0 0 0 0 0 0 0 0 0 0 0.002 
240 1 0.004418 0.0434733 0.0058869 0 0 0 0.373711 -0.39266 -0.134309 0 -0.000164368 0 0 0 0 0 0 0 0 0 0 0 0 0 0 0 0 0 0 0.002 
170 9 0.00677933 0.0664444 0.012909 0 0 0 -0.617034 -3.00009 -2.2548 0 -0.000164368 0 0 0 0 0 0 0 0 0 0 0 0 0 0 0 0 0 1 0.002 
23 3 0.00892108 0.0698551 0.0149724 0 0 0 1.1802 -1.97867 -1.90282 0 -0.000164368 0 0 0 0 0 0 0 0 0 0 0 0 0 0 0 0 0 0 0.002 
152 5 0.0158177 0.0709685 0.0221832 0 0 0 1.01384 -2.2764 -0.545714 0 -0.000164368 0 0 0 0 0 0 0 0 0 0 0 0 0 0 0 0 0 1 0.002 
68 9 0.0121763 0.0730974 0.0230122 0 0 0 -0.123062 -2.29066 -1.29153 0 -0.000164368 0 0 0 0 0 0 0 0 0 0 0 0 0 0 0 0 0 2 0.002 
219 1 0.0161675 0.0590169 0.0241068 0 0 0 -3.43393 -4.34534 -0.738257 0 -0.000164368 0 0 0 0 0 0 0 0 0 0 0 0 0 0 0 0 0 1 0.002 
159 2 0.0089851 0.0496278 0.0276755 0 0 0 -1.11631 -2.49821 -0.567683 0 -0.000164368 0 0 0 0 0 0 0 0 0 0 0 0 0 0 0 0 0 0 0.002 
44 5 0.00383604 0.0746385 0.02732 0 0 0 0.978597 0.294802 3.37845 0 -0.000164368 0 0 0 0 0 0 0 0 0 0 0 0 0 0 0 0 0 0 0.002 
243 5 0.0168629 0.0511819 0.0285239 0 0 0 3.9218 4.41924 -5.39337 0 -0.000164368 0 0 0 0 0 0 0 0 0 0 0 0 0 0 0 0 0 0 0.002 
92 2 0.011179 0.0662708 0.0284347 0 0 0 0.684896 -0.740636 -0.911363 0 -0.000164368 0 0 0 0 0 0 0 0 0 0 0 0 0 0 0 0 0 1 0.002 
200 9 0.00897287 0.0585572 0.0322191 0 0 0 -1.92695 -0.930655 0.411482 0 -0.000164368 0 0 0 0 0 0 0 0 0 0 0 0 0 0 0 0 0 0 0.002 
239 11 0.0165839 0.0576999 0.0311973 0 0 0 -0.714759 -1.77303 -0.133761 0 -0.000164368 0 0 0 0 0 0 0 0 0 0 0 0 0 0 0 0 0 0 0.002 
45 4 0.00686937 0.0670495 0.0314463 0 0 0 -0.210228 -1.51237 -0.340345 0 -0.000164368 0 0 0 0 0 0 0 0 0 0 0 0 0 0 0 0 0 0 0.002 
191 2 0.0137274 0.0737647 0.0311657 0 0 0 -2.77616 -0.684919 -0.541152 0 -0.000164368 0 0 0 0 0 0 0 0 0 0 0 0 0 0 0 0 0 0 0.002 
188 6 0.0176812 0.0649123 0.0328433 0 0 0 1.24452 -1.01511 0.132142 0 -0.000164368 0 0 0 0 0 0 0 0 0 0 0 0 0 0 0 0 0 1 0.002 
181 6 0.00317935 0.0684561 0.0330027 0 0 0 0.402548 -1.6106 5.60072 0.0242575 0.283511 -0.409542 0 0 0 0 0 0 0 0 0 0 0 0 0 0 0 0 1 0.002 
171 3 0.0113423 0.0783315 -0.0310281 0 0 0 -1.15116 -2.0909 0.290997 0 -0.000164368 0 0 0 0 0 0 0 0 0 0 0 0 0 0 0 0 0 0 0.002 
125 10 0.0154298 0.101625 -0.0294485 0 0 0 -2.60444 8.5535 4.40785 0 -0.000164368 0 0 0 0 0 0 0 0 0 0 0 0 0 0 0 0 0 3 0.002 
217 2 0.0046985 0.108042 -0.029569 0 0 0 0.74724 0.399705 0.477701 0.0177378 -0.194076 -0.0439992 0 0 0 0 0 0 0 0 0 0 0 0 0 0 0 0 0 0.002 
207 2 0.00285118 0.0872331 -0.0273577 0 0 0 7.10682 8.74589 -28.6436 -0.518968 -0.189484 0.177454 0 0 0 0 0 0 0 0 0 0 0 0 0 0 0 0 0 0.002 
10 6 0.0131179 0.0886224 -0.0256475 0 0 0 4.77341 6.36828 3.76906 0 -0.000164368 0 0 0 0 0 0 0 0 0 0 0 0 0 0 0 0 0 0 0.002 
232 7 0.00846894 0.0900949 -0.0221548 0 0 0 -0.232966 1.99518 -2.99333 0 -0.000164368 0 0 0 0 0 0 0 0 0 0 0 0 0 0 0 0 0 0 0.002 
244 1 0.0102974 0.0857344 -0.0109254 0 0 0 1.24955 -1.34523 -0.232203 0 -0.000164368 0 0 0 0 0 0 0 0 0 0 0 0 0 0 0 0 0 0 0.002 
216 2 0.00311801 0.1047 -0.00955567 0 0 0 0.246032 -0.596104 1.3133 0 -0.000164368 0 0 0 0 0 0 0 0 0 0 0 0 0 0 0 0 0 0 0.002 
194 2 0.0108933 0.104176 -0.0091654 0 0 0 0.964155 -1.16252 0.125839 0 -0.000164368 0 0 0 0 0 0 0 0 0 0 0 0 0 0 0 0 0 0 0.002 
95 5 0.0164135 0.105029 -0.00339361 0 0 0 0.498682 -0.116065 0.863656 0 -0.000164368 0 0 0 0 0 0 0 0 0 0 0 0 0 0 0 0 0 0 0.002 
147 9 0.015013 0.0872163 -7.26362e-05 0 0 0 2.27856 -0.722435 1.59694 0 -0.000164368 0 0 0 0 0 0 0 0 0 0 0 0 0 0 0 0 0 0 0.002 
164 4 0.0121594 0.0834506 0.00357135 0 0 0 -2.02265 0.0169777 -0.356911 0 -0.000164368 0 0 0 0 0 0 0 0 0 0 0 0 0 0 0 0 0 0 0.002 
225 4 0.00536212 0.10406 0.00317696 0 0 0 2.22037 2.78608 -0.601709 0 -0.000164368 0 0 0 0 0 0 0 0 0 0 0 0 0 0 0 0 0 0 0.002 
64 4 0.00387534 0.088082 0.00550858 0 0 0 0.850996 -2.11764 3.86901 0 -0.000164368 0 0 0 0 0 0 0 0 0 0 0 0 0 0 0 0 0 0 0.002 
110 1 0.00637611 0.0922649 0.0158436 0 0 0 -0.306979 -1.2257 1.74515 0 -0.000164368 0 0 0 0 0 0 0 0 0 0 0 0 0 0 0 0 0 1 0.002 
193 8 0.0118058 0.107029 0.0148905 0 0 0 -1.04063 -0.694642 -1.74017 0 -0.000164368 0 0 0 0 0 0 0 0 0 0 0 0 0 0 0 0 0 1 0.002 
190 2 0.00554396 0.0810494 0.0182287 0 0 0 -1.6064 -0.671068 1.62693 0 -0.000164368 0 0 0 0 0 0 0 0 0 0 0 0 0 0 0 0 0 0 0.002 
186 11 0.00391629 0.101731 0.0187754 0 0 0 0.11651 -0.422138 -0.225415 0 -0.000164368 0 0 0 0 0 0 0 0 0 0 0 0 0 0 0 0 0 3 0.002 
228 11 0.00785212 0.097812 0.0210796 0 0 0 -1.01206 3.39909 -4.20521 0 -0.000164368 0 0 0 0 0 0 0 0 0 0 0 0 0 0 0 0 0 0 0.002 
208 9 0.00776853 0.10749 0.0190453 0 0 0 1.64802 -0.640955 3.92018 0 -0.000164368 0 0 0 0 0 0 0 0 0 0 0 0 0 0 0 0 0 0 0.002 
173 3 0.0170703 0.0860323 0.0243633 0 0 0 0.468179 -0.207349 -0.0365922 0 -0.000164368 0 0 0 0 0 0 0 0 0 0 0 0 0 0 0 0 0 1 0.002 
241 6 0.00480362 0.107637 0.0242517 0 0 0 0.613393 -0.180476 -0.212202 0 -0.000164368 0 0 0 0 0 0 0 0 0 0 0 0 0 0 0 0 0 0 0.002 
235 3 0.00572471 0.087132 0.0267633 0 0 0 0.200418 0.700688 -0.527301 0 -0.000164368 0 0 0 0 0 0 0 0 0 0 0 0 0 0 0 0 0 0 0.002 
116 1 0.00877115 0.0973457 0.0257517 0 0 0 1.32946 12.311 5.41329 0 -0.000164368 0 0 0 0 0 0 0 0 0 0 0 0 0 0 0 0 0 1 0.002 
165 4 0.0100464 0.1041 0.0264558 0 0 0 -0.490895 0.554445 -0.749787 0 -0.000164368 0 0 0 0 0 0 0 0 0 0 0 0 0 0 0 0 0 1 0.002 
242 6 0.0182522 0.0848534 0.0286333 0 0 0 -0.0958744 -0.907097 0.196827 0 -0.000164368 0 0 0 0 0 0 0 0 0 0 0 0 0 0 0 0 0 0 0.002 
151 8 0.00529567 0.0912391 0.0284833 0 0 0 -2.22728 2.26166 -3.64212 0 -0.000164368 0 0 0 0 0 0 0 0 0 0 0 0 0 0 0 0 0 1 0.002 
237 10 0.00579573 0.097401 0.0290933 0 0 0 0.158927 -0.850602 -0.951064 0 -0.000164368 0 0 0 0 0 0 0 0 0 0 0 0 0 0 0 0 0 0 0.002 
14 5 0.0127984 0.0969546 0.0280127 0 0 0 -0.715702 -0.16848 -1.47455 0 -0.000164368 0 0 0 0 0 0 0 0 0 0 0 0 0 0 0 0 0 0 0.002 
154 5 0.0076174 0.106249 0.0291575 0 0 0 0.603717 0.0569733 0.0722627 0 -0.000164368 0 0 0 0 0 0 0 0 0 0 0 0 0 0 0 0 0 1 0.002 
69 6 0.015331 0.107888 0.0299112 0 0 0 -0.266973 0.204434 0.0531103 0 -0.000164368 0 0 0 0 0 0 0 0 0 0 0 0 0 0 0 0 0 2 0.002 
20 3 0.00468642 0.0941993 0.0316964 0 0 0 0.238888 0.565885 0.944443 0 -0.000164368 0 0 0 0 0 0 0 0 0 0 0 0 0 0 0 0 0 0 0.002 
168 8 0.00491776 0.10435 0.032084 0 0 0 0.101841 0.057751 0.0957687 0 -0.000164368 0 0 0 0 0 0 0 0 0 0 0 0 0 0 0 0 0 0 0.002 
187 7 0.00694973 0.0868798 0.0327592 0 0 0 0.844622 0.566294 -1.03713 0 -0.000164368 0 0 0 0 0 0 0 0 0 0 0 0 0 0 0 0 0 0 0.002 
46 2 0.00828188 0.101204 0.0325423 0 0 0 -0.269468 -0.0174638 0.585486 0 -0.000164368 0 0 0 0 0 0 0 0 0 0 0 0 0 0 0 0 0 1 0.002 
63 6 0.0147638 0.103453 0.0329185 0 0 0 -0.308825 -0.292649 0.0983653 0 -0.000164368 0 0 0 0 0 0 0 0 0 0 0 0 0 0 0 0 0 1 0.002 
180 3 0.0107302 0.107647 0.032741 0 0 0 -0.226475 -0.240669 -0.373167 0 -0.000164368 0 0 0 0 0 0 0 0 0 0 0 0 0 0 0 0 0 0 0.002 
133 1 0.0185165 0.108001 0.0326187 0 0 0 -0.0662369 -0.037329 -0.103578 -0.000806052 0.00146037 0.000101125 0 0 0 0 0 0 0 0 0 0 0 0 0 0 0 0 0 0.002 
21 8 0.025804 -0.0248348 -0.052236 0 0 0 1.11416 -15.7294 8.22309 -4.96107e-06 0.155695 0.291213 0 0 0 0 0 0 0 0 0 0 0 0 0 0 0 0 0 0.002 
156 4 0.0263824 0.0173053 -0.033007 0 0 0 -2.02581 -8.23884 -15.4327 0 -0.000164368 0 0 0 0 0 0 0 0 0 0 0 0 0 0 0 0 0 0 0.002 
79 1 0.0425025 0.0513615 -0.0355 0 0 0 0 -5.98046e-20 3.37584e-12 0 0 0 0 0 0 0 0 0 0 0 0 0 0 0 0 0 0 0 0 0.002 
48 3 0.0234968 0.0573228 -0.0355 0 0 0 1.1755e-15 -4.24247e-15 -1.69046e-12 -1.38721e-14 5.69232e-15 0 0 0 0 0 0 0 0 0 0 0 0 0 0 0 0 0 0 0.002 
52 2 0.0282422 0.0584241 -0.0355 0 0 0 -8.60221e-301 2.03042e-20 -4.4798e-12 -1.45781e-300 0 0 0 0 0 0 0 0 0 0 0 0 0 0 0 0 0 0 0 0.002 
39 3 0.0454186 0.0646674 -0.0355 0 0 0 1.2868e-44 6.05789e-20 -4.96337e-15 -1.25555e-44 0 0 0 0 0 0 0 0 0 0 0 0 0 0 0 0 0 0 0 0.002 
169 3 0.0229936 0.0471204 -0.0245626 0 0 0 -3.13083 -9.04201 2.47328 0 -0.000164368 0 0 0 0 0 0 0 0 0 0 0 0 0 0 0 0 0 1 0.002 
231 7 0.0303725 0.0734226 -0.0225434 0 0 0 2.22647 0.733635 2.6307 0 -0.000164368 0 0 0 0 0 0 0 0 0 0 0 0 0 0 0 0 0 0 0.002 
55 4 0.024066 0.0634315 -0.0189235 0 0 0 -0.735012 -1.85602 -4.36986 0 -0.000164368 0 0 0 0 0 0 0 0 0 0 0 0 0 0 0 0 0 2 0.002 
229 6 0.0472259 0.0654016 -0.0191035 0 0 0 0.993598 1.25015 -2.58758 0 -0.000164368 0 0 0 0 0 0 0 0 0 0 0 0 0 0 0 0 0 1 0.002 
38 9 0.0317068 0.0749429 -0.0183473 0 0 0 -3.64534 2.93307 2.08432 0 -0.000164368 0 0 0 0 0 0 0 0 0 0 0 0 0 0 0 0 0 0 0.002 
226 5 0.0367008 0.053213 -0.0170862 0 0 0 -1.62997 -1.68918 -3.44194 0 -0.000164368 0 0 0 0 0 0 0 0 0 0 0 0 0 0 0 0 0 0 0.002 
224 5 0.0451234 0.067229 -0.00934649 0 0 0 0.772852 4.04516 -10.6295 0 -0.000164368 0 0 0 0 0 0 0 0 0 0 0 0 0 0 0 0 0 0 0.002 
251 6 0.0268907 0.0745781 -0.00690406 0 0 0 5.73247 7.58092 13.5364 0 -0.000164368 0 0 0 0 0 0 0 0 0 0 0 0 0 0 0 0 0 0 0.002 
146 9 0.0474156 0.0409751 -0.0045571 0 0 0 -2.06492e-05 -9.11421 -81.9502 -2.11239e-07 -2.74618 0.305421 0 0 0 0 0 0 0 0 0 0 0 0 0 0 0 0 0 0.002 
131 7 0.0254321 0.0477977 -0.00390223 0 0 0 2.25751 -8.86287 1.05661 0 -0.000164368 0 0 0 0 0 0 0 0 0 0 0 0 0 0 0 0 0 0 0.002 
176 2 0.0343758 0.0555866 0.00060111 0 0 0 1.51863 -4.16497 0.660079 0 -0.000164368 0 0 0 0 0 0 0 0 0 0 0 0 0 0 0 0 0 0 0.002 
126 2 0.0350064 0.0658702 0.00549729 0 0 0 0.0493977 -1.42613 -2.81309 0 -0.000164368 0 0 0 0 0 0 0 0 0 0 0 0 0 0 0 0 0 0 0.002 
238 13 0.0201885 0.0723066 0.0113251 0 0 0 0.106704 -1.15477 -0.676184 0 -0.000164368 0 0 0 0 0 0 0 0 0 0 0 0 0 0 0 0 0 0 0.002 
87 8 0.0401285 0.0594614 0.013314 0 0 0 0.377139 -0.946716 -0.550452 0 -0.000164368 0 0 0 0 0 0 0 0 0 0 0 0 0 0 0 0 0 0 0.002 
145 6 0.0418355 0.0556456 0.0193931 0 0 0 2.33906 -1.87049 -2.35286 0 -0.000164368 0 0 0 0 0 0 0 0 0 0 0 0 0 0 0 0 0 0 0.002 
134 2 0.0267442 0.0532635 0.0226581 0 0 0 -0.102536 -0.902571 -0.239285 0 -0.000164368 0 0 0 0 0 0 0 0 0 0 0 0 0 0 0 0 0 0 0.002 
204 7 0.0243023 0.073127 0.0234684 0 0 0 -1.15743 -0.511149 -2.65367 0 -0.000164368 0 0 0 0 0 0 0 0 0 0 0 0 0 0 0 0 0 0 0.002 
12 9 0.0312494 0.0507313 0.0236981 0 0 0 0.572603 -0.28456 -0.953271 0 -0.000164368 0 0 0 0 0 0 0 0 0 0 0 0 0 0 0 0 0 1 0.002 
213 4 0.0438336 0.0600873 0.0258327 0 0 0 1.45187 -3.67992 0.318147 0 -0.000164368 0 0 0 0 0 0 0 0 0 0 0 0 0 0 0 0 0 1 0.002 
16 3 0.0442767 0.0573671 0.029043 0 0 0 0.837988 -1.3784 -0.913194 0 -0.000164368 0 0 0 0 0 0 0 0 0 0 0 0 0 0 0 0 0 1 0.002 
166 1 0.0397178 0.0608337 0.0288986 0 0 0 -1.65713 -1.95258 -1.44307 0 -0.000164368 0 0 0 0 0 0 0 0 0 0 0 0 0 0 0 0 0 1 0.002 
139 6 0.0439553 0.0707956 0.0295738 0 0 0 -0.152222 -1.85556 -2.26795 0 -0.000164368 0 0 0 0 0 0 0 0 0 0 0 0 0 0 0 0 0 0 0.002 
149 7 0.0302411 0.0480341 0.0322782 0 0 0 -17.1172 27.7885 -35.3886 0 -0.000164368 0 0 0 0 0 0 0 0 0 0 0 0 0 0 0 0 0 0 0.002 
105 3 0.0360513 0.0503541 0.032233 0 0 0 0.224276 -1.4328 -0.0862454 0 -0.000164368 0 0 0 0 0 0 0 0 0 0 0 0 0 0 0 0 0 1 0.002 
82 10 0.0410234 0.0536189 0.032405 0 0 0 0.242393 -1.51301 0.177177 0 -0.000164368 0 0 0 0 0 0 0 0 0 0 0 0 0 0 0 0 0 1 0.002 
198 6 0.0205399 0.0619187 0.0306214 0 0 0 -1.24234 -4.25454 1.51862 0 -0.000164368 0 0 0 0 0 0 0 0 0 0 0 0 0 0 0 0 0 0 0.002 
6 3 0.0272342 0.0744857 0.0318 0 0 0 0.199993 -5.70782 -1.35789 0 -0.000164368 0 0 0 0 0 0 0 0 0 0 0 0 0 0 0 0 0 0 0.002 
205 3 0.0465162 0.0728963 0.0324411 0 0 0 -1.04134 0.633478 -1.05281 0 -0.000164368 0 0 0 0 0 0 0 0 0 0 0 0 0 0 0 0 0 0 0.002 
5 3 0.0473562 0.0596553 0.0328656 0 0 0 -0.549376 -1.11663 -0.235952 0 -0.000164368 0 0 0 0 0 0 0 0 0 0 0 0 0 0 0 0 0 0 0.002 
118 2 0.0376439 0.0686413 0.0327824 0 0 0 -0.427141 -0.721586 -0.475808 0 -0.000164368 0 0 0 0 0 0 0 0 0 0 0 0 0 0 0 0 0 1 0.002 
96 2 0.0438421 0.0928144 -0.0313581 0 0 0 -2.66324 5.87313 1.73503 0 -0.000164368 0 0 0 0 0 0 0 0 0 0 0 0 0 0 0 0 0 0 0.002 
222 8 0.0318821 0.0906348 -0.0248306 0 0 0 0.788501 -1.5557 1.34204 0 -0.000164368 0 0 0 0 0 0 0 0 0 0 0 0 0 0 0 0 0 0 0.002 
91 2 0.0312119 0.0798381 -0.0217643 0 0 0 -0.699721 -0.0867799 -1.25002 0 -0.000164368 0 0 0 0 0 0 0 0 0 0 0 0 0 0 0 0 0 0 0.002 
18 3 0.022519 0.0864964 -0.0214016 0 0 0 -0.270638 8.22244 3.7595 0 -0.000164368 0 0 0 0 0 0 0 0 0 0 0 0 0 0 0 0 0 0 0.002 
132 3 0.0435707 0.0864786 -0.0180475 0 0 0 5.17512 -1.7079 4.24625 0 -0.000164368 0 0 0 0 0 0 0 0 0 0 0 0 0 0 0 0 0 3 0.002 
123 8 0.0473601 0.101598 -0.019149 0 0 0 1.10697 -1.53557 -1.44482 0 -0.000164368 0 0 0 0 0 0 0 0 0 0 0 0 0 0 0 0 0 3 0.002 
73 3 0.0310849 0.106737 -0.0197052 0 0 0 7.69578 3.6692 11.2262 0 -0.000164368 0 0 0 0 0 0 0 0 0 0 0 0 0 0 0 0 0 1 0.002 
178 10 0.0195985 0.0904677 -0.0141585 0 0 0 9.96131 18.9361 -14.6154 0 -0.000164368 0 0 0 0 0 0 0 0 0 0 0 0 0 0 0 0 0 0 0.002 
86 6 0.0406822 0.107804 -0.00978356 0 0 0 -2.31612 6.62987 -4.71183 0 -0.000164368 0 0 0 0 0 0 0 0 0 0 0 0 0 0 0 0 0 1 0.002 
245 1 0.0288032 0.107007 -0.00601781 0 0 0 0.642188 0.290849 -0.526669 0 -0.000164368 0 0 0 0 0 0 0 0 0 0 0 0 0 0 0 0 0 0 0.002 
163 2 0.0316664 0.0967764 -0.00226888 0 0 0 5.18875 -3.38051 6.23732 0 -0.000164368 0 0 0 0 0 0 0 0 0 0 0 0 0 0 0 0 0 1 0.002 
175 5 0.0364027 0.0824973 0.00169952 0 0 0 -4.62199 8.60874 -6.59714 0 -0.000164368 0 0 0 0 0 0 0 0 0 0 0 0 0 0 0 0 0 1 0.002 
4 6 0.0417801 0.0889758 0.00256135 0 0 0 1.21153 0.0547633 1.45152 0 -0.000164368 0 0 0 0 0 0 0 0 0 0 0 0 0 0 0 0 0 0 0.002 
197 3 0.0277194 0.0926996 0.0022395 0 0 0 -2.24476 0.255479 2.227 0 -0.000164368 0 0 0 0 0 0 0 0 0 0 0 0 0 0 0 0 0 0 0.002 
29 5 0.0312138 0.0994441 0.00259272 0 0 0 1.81521 -2.10681 -0.137627 0 -0.000164368 0 0 0 0 0 0 0 0 0 0 0 0 0 0 0 0 0 1 0.002 
233 4 0.0318545 0.0866194 0.00428706 0 0 0 2.03353 -1.26472 1.79829 0 -0.000164368 0 0 0 0 0 0 0 0 0 0 0 0 0 0 0 0 0 0 0.002 
58 1 0.0322186 0.0799507 0.00613123 0 0 0 -1.60888 -1.40327 -0.247931 0 -0.000164368 0 0 0 0 0 0 0 0 0 0 0 0 0 0 0 0 0 0 0.002 
114 6 0.0262718 0.0871946 0.00587702 0 0 0 0.115583 -0.189496 2.6146 0 -0.000164368 0 0 0 0 0 0 0 0 0 0 0 0 0 0 0 0 0 1 0.002 
107 2 0.038089 0.108135 0.00615901 0 0 0 -2.39825 2.96047 -0.456436 -0.454311 -1.35627 0.503349 0 0 0 0 0 0 0 0 0 0 0 0 0 0 0 0 1 0.002 
179 1 0.0309202 0.107518 0.00833591 0 0 0 0.383379 -0.362477 2.43048 0 -0.000164368 0 0 0 0 0 0 0 0 0 0 0 0 0 0 0 0 0 0 0.002 
62 2 0.0283863 0.0794421 0.0130149 0 0 0 0.353408 -1.05157 -0.719169 0 -0.000164368 0 0 0 0 0 0 0 0 0 0 0 0 0 0 0 0 0 1 0.002 
141 5 0.0395242 0.0850479 0.0139666 0 0 0 -0.0523971 0.052404 0.658169 0 -0.000164368 0 0 0 0 0 0 0 0 0 0 0 0 0 0 0 0 0 1 0.002 
80 1 0.0317507 0.0910385 0.0128187 0 0 0 -0.476492 -1.28627 -1.60055 0 -0.000164368 0 0 0 0 0 0 0 0 0 0 0 0 0 0 0 0 0 2 0.002 
51 2 0.0221221 0.0979854 0.0123924 0 0 0 -0.729153 -4.08262 -0.255228 0 -0.000164368 0 0 0 0 0 0 0 0 0 0 0 0 0 0 0 0 0 0 0.002 
74 5 0.03187 0.0767082 0.0190615 0 0 0 -2.12064 -0.454122 -0.600115 0 -0.000164368 0 0 0 0 0 0 0 0 0 0 0 0 0 0 0 0 0 1 0.002 
72 3 0.0230777 0.0861997 0.019876 0 0 0 1.72557 -2.60006 1.59843 0 -0.000164368 0 0 0 0 0 0 0 0 0 0 0 0 0 0 0 0 0 0 0.002 
9 6 0.042124 0.105701 0.0209592 0 0 0 -0.259996 -1.45705 -0.181633 0 -0.000164368 0 0 0 0 0 0 0 0 0 0 0 0 0 0 0 0 0 3 0.002 
148 11 0.0191879 0.0927162 0.0255996 0 0 0 0.252111 0.454712 2.69873 0 -0.000164368 0 0 0 0 0 0 0 0 0 0 0 0 0 0 0 0 0 1 0.002 
108 2 0.0376077 0.0924391 0.0243167 0 0 0 -1.01954 -0.684848 -0.439441 0 -0.000164368 0 0 0 0 0 0 0 0 0 0 0 0 0 0 0 0 0 0 0.002 
78 1 0.0221666 0.10741 0.0243215 0 0 0 0.922525 -0.367349 0.945653 0 -0.000164368 0 0 0 0 0 0 0 0 0 0 0 0 0 0 0 0 0 1 0.002 
218 4 0.0464773 0.106284 0.0236301 0 0 0 -0.251701 -0.0482798 -0.417585 0 -0.000164368 0 0 0 0 0 0 0 0 0 0 0 0 0 0 0 0 0 1 0.002 
102 1 0.0417534 0.0756636 0.0277985 0 0 0 0.184546 -1.36047 -0.343349 0 -0.000164368 0 0 0 0 0 0 0 0 0 0 0 0 0 0 0 0 0 1 0.002 
236 3 0.0467731 0.0786317 0.0266983 0 0 0 0.290722 -0.757739 -0.782406 0 -0.000164368 0 0 0 0 0 0 0 0 0 0 0 0 0 0 0 0 0 0 0.002 
250 5 0.0456177 0.0881884 0.0257508 0 0 0 3.95692 -4.8417 -4.50665 0 -0.000164368 0 0 0 0 0 0 0 0 0 0 0 0 0 0 0 0 0 0 0.002 
26 9 0.0441535 0.102119 0.0271183 0 0 0 -0.0634793 -0.450502 0.512716 0 -0.000164368 0 0 0 0 0 0 0 0 0 0 0 0 0 0 0 0 0 0 0.002 
155 4 0.0239584 0.104664 0.0274319 0 0 0 -2.10399 -0.412123 0.696383 0 -0.000164368 0 0 0 0 0 0 0 0 0 0 0 0 0 0 0 0 0 1 0.002 
199 4 0.0312318 0.108012 0.0267608 0 0 0 0.887138 -1.62071 -4.69523 0.00277354 0.151626 -0.0146078 0 0 0 0 0 0 0 0 0 0 0 0 0 0 0 0 0 0.002 
161 8 0.0320432 0.0767051 0.0291415 0 0 0 0.125357 -3.23276 -0.158012 0 -0.000164368 0 0 0 0 0 0 0 0 0 0 0 0 0 0 0 0 0 1 0.002 
189 5 0.0370752 0.0776481 0.0296984 0 0 0 1.9381 -1.34972 -0.215545 0 -0.000164368 0 0 0 0 0 0 0 0 0 0 0 0 0 0 0 0 0 0 0.002 
143 7 0.0376255 0.084056 0.0301013 0 0 0 2.52408 -0.193062 -0.497682 0 -0.000164368 0 0 0 0 0 0 0 0 0 0 0 0 0 0 0 0 0 0 0.002 
60 4 0.0451956 0.082864 0.0285815 0 0 0 0.428915 -0.0855153 -1.26317 0 -0.000164368 0 0 0 0 0 0 0 0 0 0 0 0 0 0 0 0 0 1 0.002 
172 5 0.0345408 0.0897324 0.0302257 0 0 0 -1.30346 -2.97432 -2.62789 0 -0.000164368 0 0 0 0 0 0 0 0 0 0 0 0 0 0 0 0 0 0 0.002 
128 4 0.0283213 0.0920461 0.0298153 0 0 0 -0.94507 -0.576853 -0.529088 0 -0.000164368 0 0 0 0 0 0 0 0 0 0 0 0 0 0 0 0 0 2 0.002 
127 3 0.046428 0.0971278 0.0292194 0 0 0 0.835153 -0.289171 -0.750015 -0.0521892 -0.062688 0.0734191 0 0 1 0 0 0 0 0 0 0 0 0 0 0 0 0 2 0.002 
76 2 0.0251746 0.101733 0.0300416 0 0 0 -3.02954 0.467614 2.13262 -0.0134422 -0.00755516 -0.186507 0 1 0 0 0 0 0 0 0 0 0 0 0 0 0 0 1 0.002 
100 2 0.0427691 0.106827 0.0297589 0 0 0 0.551518 -0.177393 0.0593805 0 -0.000164368 0 0 0 0 0 0 0 0 0 0 0 0 0 0 0 0 0 2 0.002 
8 5 0.0262687 0.107922 0.029088 0 0 0 -1.01952 0.00389748 -0.365883 0 -0.000164368 0 0 0 0 0 0 0 0 0 0 0 0 0 0 0 0 0 0 0.002 
221 16 0.0443585 0.0793365 0.0317734 0 0 0 0.189839 -0.472556 -0.24271 0 -0.000164368 0 0 0 0 0 0 0 0 0 0 0 0 0 0 0 0 0 0 0.002 
203 3 0.0434334 0.0981277 0.0320392 0 0 0 1.62809 0.0768874 0.669611 -0.218687 -0.111614 -0.110666 0 0 1 0 0 0 0 0 0 0 0 0 0 0 0 0 1 0.002 
137 1 0.020201 0.10189 0.0312101 0 0 0 0.136297 -0.551974 -0.349505 0 -0.000164368 0 0 0 0 0 0 0 0 0 0 0 0 0 0 0 0 0 0 0.002 
212 5 0.0220016 0.105576 0.0321099 0 0 0 -0.144896 -0.589851 -0.0587505 0 -0.000164368 0 0 0 0 0 0 0 0 0 0 0 0 0 0 0 0 0 0 0.002 
103 5 0.037003 0.107734 0.0323528 0 0 0 0.480697 -0.99434 -1.62119 0 -0.000164368 0 0 0 0 0 0 0 0 0 0 0 0 0 0 0 0 0 1 0.002 
121 2 0.033972 0.0823353 0.0327487 0 0 0 0.599441 -0.901043 0.444712 0 -0.000164368 0 0 0 0 0 0 0 0 0 0 0 0 0 0 0 0 0 1 0.002 
215 1 0.0311262 0.093137 0.0329679 0 0 0 -0.840589 -0.363678 -0.0985906 0 -0.000164368 0 0 0 0 0 0 0 0 0 0 0 0 0 0 0 0 0 0 0.002 
56 7 0.026467 0.0992218 0.032854 0 0 0 -1.75514 0.965666 -1.72779 0.0134422 0.00722642 0.186507 0 1 0 0 0 0 0 0 0 0 0 0 0 0 0 0 2 0.002 
184 4 0.0466554 0.100048 0.0329831 0 0 0 1.27452 0.385596 1.37414 0.218687 0.111285 0.110666 0 0 1 0 0 0 0 0 0 0 0 0 0 0 0 0 2 0.002 
201 4 0.0415319 0.103334 0.0328058 0 0 0 0.411902 -0.422385 -0.0224735 0 -0.000164368 0 0 0 0 0 0 0 0 0 0 0 0 0 0 0 0 0 0 0.002 
192 7 0.0261657 0.106725 0.0329899 0 0 0 -0.7256 0.210796 -0.0526255 0 -0.000164368 0 0 0 0 0 0 0 0 0 0 0 0 0 0 0 0 0 0 0.002 
160 6 0.0583556 -0.00711221 0.0575932 0 0 0 -2.66315 53.7599 4.92538 0.12822 -0.0648497 -2.07237 0 0 0 0 0 0 0 0 0 0 0 0 0 0 0 0 0 0.002 
40 10 0.0555291 0.0361337 0.0488265 0 0 0 6.40353e-07 -9.07316e-13 -1.20148e-12 8.8529e-19 0 0 0 0 0 0 0 0 0 0 0 0 0 0 0 0 0 0 0 0.002 
167 2 0.0599985 0.00676778 0.0574372 0 0 0 10.2441 22.3011 -0.975393 -0.242589 -0.0287538 -0.485714 0 0 0 0 0 0 0 0 0 0 0 0 0 0 0 0 1 0.002 
15 2 0.049127 0.0520076 -0.0355003 0 0 0 -2.18152e-16 -1.62402e-19 -2.71348e-15 -1.38778e-17 1.35525e-20 0 0 0 0 0 0 0 0 0 0 0 0 0 0 0 0 0 0 0.002 
120 8 0.0500097 0.059251 -0.0116668 0 0 0 -3.94807 35.4023 -62.2361 -17.3029 -3.5386 5.36614 0 0 0 0 0 0 0 0 0 0 0 0 0 0 0 0 1 0.002 
54 6 0.064795 0.0587713 -0.00232314 0 0 0 23.2833 -15.463 -56.1281 -3.51117 -11.3032 4.4285 0 0 0 0 0 0 0 0 0 0 0 0 0 0 0 0 1 0.002 
122 5 0.0488877 0.061452 0.00611588 0 0 0 -5.0945 32.3816 -49.2449 0 -0.000164368 0 0 0 0 0 0 0 0 0 0 0 0 0 0 0 0 0 1 0.002 
104 1 0.0720168 0.0469517 0.0118451 0 0 0 31.6082 38.4142 -56.4315 0 -0.000164368 0 0 0 0 0 0 0 0 0 0 0 0 0 0 0 0 0 0 0.002 
185 5 0.0479205 0.066672 0.0329502 0 0 0 -0.370771 -0.544811 0.063175 0 -0.000164368 0 0 0 0 0 0 0 0 0 0 0 0 0 0 0 0 0 0 0.002 
210 4 0.0484965 0.102843 0.0251784 0 0 0 -0.0784023 -0.0985328 -0.364516 0 -0.000164368 0 0 0 0 0 0 0 0 0 0 0 0 0 0 0 0 0 1 0.002 
209 9 0.0487659 0.0990707 0.0267407 0 0 0 0.615215 0.144225 -0.885532 0.0521892 0.0623592 -0.0734191 0 0 0 0 0 0 0 0 1 0 0 0 0 0 0 0 1 0.002 
195 7 0.0486704 0.0940962 0.0311783 0 0 0 0.841696 -0.881041 -0.158437 0 -0.000164368 0 0 0 0 0 0 0 0 0 0 0 0 0 0 0 0 0 0 0.002 
157 7 0.0488325 0.105668 0.0320484 0 0 0 0.271746 -0.305972 -0.172232 0 -0.000164368 0 0 0 0 0 0 0 0 0 0 0 0 0 0 0 0 0 2 0.002 
144 9 0.0484856 0.0857806 0.0326661 0 0 0 0.0518734 -0.143561 -0.0382216 0 -0.000164368 0 0 0 0 0 0 0 0 0 0 0 0 0 0 0 0 0 2 0.002 
174 3 0.048352 0.0897916 0.0331594 0 0 0 -3.68531 0.120264 1.77033 -0.110379 0.283066 -1.35416 0 0 0 0 0 0 0 0 0 0 0 0 0 0 0 0 0 0.002 
93 4 0.0806533 -0.048813 0.0311314 0 0 0 -2.83627 16.2065 28.5999 0 -0.000164368 0 0 0 0 0 0 0 0 0 0 0 0 0 0 0 0 0 0 0.002 
162 4 0.100503 -0.0478018 0.0328307 0 0 0 0.846956 20.5323 28.421 -0.00661124 0.880057 -0.803049 0 0 0 0 0 0 0 0 0 0 0 0 0 0 0 0 0 0.002 
47 4 0.0916058 -0.00549666 -0.057694 0 0 0 -1.27973 -21.9456 1.84782 0.00070873 0.0175499 0.201073 0 0 0 0 0 0 0 0 0 0 0 0 0 0 0 0 2 0.002 
129 3 0.103497 -0.0197412 -0.0543262 0 0 0 0.78845 -23.6944 9.9517 0.000579916 -0.0952251 -0.11309 0 0 0 0 0 0 0 0 0 0 0 0 0 0 0 0 0 0.002 
227 6 0.104245 -0.0258482 -0.0517397 0 0 0 1.32232 -17.4199 7.24337 0 -0.000164368 0 0 0 0 0 0 0 0 0 0 0 0 0 0 0 0 0 0 0.002 
136 5 0.0852779 -0.00254442 0.0576862 0 0 0 -2.51601 21.0912 0.757754 0 -0.000164368 0 0 0 0 0 0 0 0 0 0 0 0 0 0 0 0 0 0 0.002 
34 3 0.101556 -0.000670545 0.0582998 0 0 0 4.84431 52.7419 -6.64737 -2.76129 0.121739 -4.76738 0 0 0 0 0 0 0 0 0 0 0 0 0 0 0 0 0 0.002 
183 9 0.0835406 0.000637528 -0.0580483 0 0 0 -0.39893 -20.4649 -0.958794 -6.80556e-05 0.0086813 0.350533 0 0 0 0 0 0 0 0 0 0 0 0 0 0 0 0 1 0.002 
248 1 0.0896218 0.0345296 0.0463102 0 0 0 9.23124 15.6061 -11.672 0 -0.000164368 0 0 0 0 0 0 0 0 0 0 0 0 0 0 0 0 0 0 0.002 
214 8 0.103403 0.0128644 0.0564964 0 0 0 -2.11392 26.8906 -6.14802 -0.00901801 -0.304749 -0.85272 0 0 0 0 0 0 0 0 0 0 0 0 0 0 0 0 0 0.002 
22 2 0.09857 0.0573872 -0.00734062 0 0 0 0.531714 -3.54649 -36.607 0 -0.000164368 0 0 0 0 0 0 0 0 0 0 0 0 0 0 0 0 0 0 0.002 
234 8 0.11723 -0.0577178 -0.00550119 0 0 0 2.42006 -4.37223 35.4316 -0.155666 1.15118 -0.0284953 0 0 0 0 0 0 0 0 0 0 0 0 0 0 0 0 0 0.002 
90 3 0.128785 -0.0578159 -0.00536545 0 0 0 0.800008 -1.83589 39.8676 -0.124731 4.30259 -0.588905 0 0 0 0 0 0 0 0 0 0 0 0 0 0 0 0 0 0.002 
31 2 0.13094 -0.0551658 0.0176425 0 0 0 -0.286028 13.5517 37.4428 -0.00352102 0.364982 0.0033227 0 0 0 0 0 0 0 0 0 0 0 0 0 0 0 0 1 0.002 
223 3 0.108688 -0.0175555 -0.0548464 0 0 0 1.59509 -25.4507 6.76012 0 -0.000164368 0 0 0 0 0 0 0 0 0 0 0 0 0 0 0 0 0 0 0.002 
158 2 0.124941 -0.019287 -0.0545854 0 0 0 -1.79819 -31.0084 13.2416 -0.00573764 -0.0282056 0.183316 0 0 0 0 0 0 0 0 0 0 0 0 0 0 0 0 1 0.002 
2 6 0.118231 -0.0265654 -0.0514763 0 0 0 6.73505 -31.9904 15.0844 -0.0683555 0.562784 0.86932 0 0 0 0 0 0 0 0 0 0 0 0 0 0 0 0 0 0.002 
182 2 0.123395 -0.0286793 0.0502224 0 0 0 -0.391367 27.3764 16.6281 0 -0.000164368 0 0 0 0 0 0 0 0 0 0 0 0 0 0 0 0 0 0 0.002 
112 6 0.129024 -0.0214274 0.0536723 0 0 0 -0.935679 26.1227 10.3102 0 -0.000164368 0 0 0 0 0 0 0 0 0 0 0 0 0 0 0 0 0 2 0.002 
113 10 0.123823 -0.0163345 0.0555916 0 0 0 -4.21963 27.2402 6.35321 -0.0029366 0.276555 -1.73954 0 0 0 0 0 0 0 0 0 0 0 0 0 0 0 0 0 0.002 
70 6 0.119438 0.0287218 -0.0502711 0 0 0 4.91452 -31.8516 -15.3357 0.00537228 -0.190456 0.10062 0 0 0 0 0 0 0 0 0 0 0 0 0 0 0 0 1 0.002 
61 8 0.1066 0.0266475 0.0513432 0 0 0 -2.95616 24.1944 -12.1477 0 -0.000164368 0 0 0 0 0 0 0 0 0 0 0 0 0 0 0 0 0 2 0.002 
202 10 0.133112 0.00227913 0.0577581 0 0 0 -1.02493 29.3755 3.31751 0 -0.000164368 0 0 0 0 0 0 0 0 0 0 0 0 0 0 0 0 0 0 0.002 
27 3 0.124311 0.00398916 0.0577095 0 0 0 5.27353 22.5526 -3.32284 0.00794671 0.0355175 0.00782068 0 0 0 0 0 0 0 0 0 0 0 0 0 0 0 0 1 0.002 
211 2 0.114841 0.0483085 -0.0318658 0 0 0 2.17205 -20.3432 -29.2972 0.0080076 0.018228 -0.128164 0 0 0 0 0 0 0 0 0 0 0 0 0 0 0 0 0 0.002 
77 12 0.122927 0.0504496 -0.0285801 0 0 0 -6.39532 -16.9776 -29.2597 -0.0234526 -0.940035 0.727775 0 0 0 0 0 0 0 0 0 0 0 0 0 0 0 0 2 0.002 
150 7 0.112782 0.0570393 -0.00905959 0 0 0 -0.706999 -3.15167 -29.9619 -0.00506363 -0.136549 -11.0041 0 0 0 0 0 0 0 0 0 0 0 0 0 0 0 0 1 0.002 
98 7 0.116675 0.0579302 0.00153031 0 0 0 1.70286 3.2768 -37.5121 -0.3885 -0.762858 -0.929039 0 0 0 0 0 0 0 0 0 0 0 0 0 0 0 0 0 0.002 
53 3 0.108281 0.0497513 0.0296226 0 0 0 0.923093 20.9317 -31.4249 0 -0.000164368 0 0 0 0 0 0 0 0 0 0 0 0 0 0 0 0 0 0 0.002 
130 1 0.124813 0.0482097 0.0319629 0 0 0 -2.10185 20.3529 -30.4874 0 -0.000164368 0 0 0 0 0 0 0 0 0 0 0 0 0 0 0 0 0 0 0.002 
111 3 0.142585 -0.0393553 -0.0424518 0 0 0 0.457035 -28.6511 25.3708 0 -0.000164368 0 0 0 0 0 0 0 0 0 0 0 0 0 0 0 0 0 0 0.002 
13 4 0.158664 -0.0551155 -0.0174998 0 0 0 0.129328 -9.94364 28.694 0 -0.000164368 0 0 0 0 0 0 0 0 0 0 0 0 0 0 0 0 0 2 0.002 
101 8 0.147604 -0.0564415 -0.0131392 0 0 0 2.00155 -6.42214 32.9893 0.0211082 0.844144 0.139133 0 0 0 0 0 0 0 0 0 0 0 0 0 0 0 0 0 0.002 
97 5 0.150674 -0.0575696 0.00666717 0 0 0 -5.29692 5.7974 36.6114 -0.0241509 0.826252 -0.118829 0 0 0 0 0 0 0 0 0 0 0 0 0 0 0 0 1 0.002 
135 8 0.162142 -0.0514474 0.0265338 0 0 0 -0.830553 17.769 30.7753 0.0313385 0.170991 0.0407958 0 0 0 0 0 0 0 0 0 0 0 0 0 0 0 0 1 0.002 
65 2 0.149118 -0.0499061 0.0292407 0 0 0 2.0294 18.1344 31.9998 0 -0.000164368 0 0 0 0 0 0 0 0 0 0 0 0 0 0 0 0 0 1 0.002 
59 3 0.154831 -0.0191241 -0.0546654 0 0 0 -0.148172 -33.1106 14.1555 0.0179117 -0.0279867 0.312746 0 0 0 0 0 0 0 0 0 0 0 0 0 0 0 0 0 0.002 
109 2 0.157385 -0.0328571 0.0477514 0 0 0 -0.809361 34.6858 21.8478 0.032374 0.499923 -0.743882 0 0 0 0 0 0 0 0 0 0 0 0 0 0 0 0 0 0.002 
32 6 0.147649 -0.0252929 0.0521583 0 0 0 3.11925 30.4527 14.0148 -0.00431746 0.347124 -1.01725 0 0 0 0 0 0 0 0 0 0 0 0 0 0 0 0 2 0.002 
83 2 0.15287 -0.0236965 0.0528352 0 0 0 -3.89799 32.4136 12.6738 0.0278641 0.210023 -0.258846 0 0 0 0 0 0 0 0 0 0 0 0 0 0 0 0 0 0.002 
19 3 0.159399 -0.0233866 0.0529078 0 0 0 3.90535 26.2582 10.0956 0.00401338 0.0410727 0.046946 0 0 0 0 0 0 0 0 0 0 0 0 0 0 0 0 0 0.002 
35 3 0.1396 0.0335048 -0.0471955 0 0 0 0.723039 -34.6818 -25.2626 0 -0.000164368 0 0 0 0 0 0 0 0 0 0 0 0 0 0 0 0 0 1 0.002 
115 3 0.150238 0.0370419 0.0444896 0 0 0 1.47727 26.0297 -19.4986 0 -0.000164368 0 0 0 0 0 0 0 0 0 0 0 0 0 0 0 0 0 1 0.002 
11 2 0.147399 0.0323242 0.0481016 0 0 0 0.515711 33.7672 -24.899 0.00873355 -0.370948 -0.639556 0 0 0 0 0 0 0 0 0 0 0 0 0 0 0 0 0 0.002 
24 1 0.137704 0.0446659 -0.0369191 0 0 0 0.33654 -25.3485 -32.1994 0.101811 -0.845968 0.903936 0 0 0 0 0 0 0 0 0 0 0 0 0 0 0 0 0 0.002 
106 2 0.147421 0.0461053 -0.0348937 0 0 0 -3.62223 -15.6503 -22.7916 0 -0.000164368 0 0 0 0 0 0 0 0 0 0 0 0 0 0 0 0 0 0 0.002 
247 11 0.160992 0.0478981 -0.0324231 0 0 0 2.9197 -13.0843 -19.238 0.00321588 0.0496983 -0.058995 0 0 0 0 0 0 0 0 0 0 0 0 0 0 0 0 0 0.002 
117 3 0.150913 0.0480859 -0.0272329 0 0 0 0.368844 -2.47498 -21.6376 0 -0.000164368 0 0 0 0 0 0 0 0 0 0 0 0 0 0 0 0 0 1 0.002 
142 8 0.143416 0.0536521 -0.0218492 0 0 0 -0.782437 -17.121 -37.1393 -0.0159992 -0.47326 0.0765523 0 0 0 0 0 0 0 0 0 0 0 0 0 0 0 0 1 0.002 
75 12 0.135767 0.0567532 -0.0118683 0 0 0 -2.67097 -10.1003 -38.4875 0.00296872 -0.965112 0.170104 0 0 0 0 0 0 0 0 0 0 0 0 0 0 0 0 0 0.002 
28 5 0.144405 0.0576862 -0.00459712 0 0 0 -4.34924 -4.10606 -42.1814 -0.0145304 0.183856 -0.162209 0 0 0 0 0 0 0 0 0 0 0 0 0 0 0 0 1 0.002 
17 4 0.157838 0.057668 -0.00505316 0 0 0 -2.71352 -0.403137 -38.5691 0.255569 1.01663 -1.09126 0 0 0 0 0 0 0 0 0 0 0 0 0 0 0 0 0 0.002 