ITEM: TIMESTEP
16150000
ITEM: NUMBER OF ATOMS
1961
ITEM: BOX BOUNDS ff ff ff
-0.01 0.45
-0.15 0.15
-0.08 0.1
ITEM: ATOMS id type x y z ix iy iz vx vy vz fx fy fz c_cc_1 c_cc_2 c_cc_3 c_cc_4 c_cc_5 c_cc_6 c_cc_7 c_cc_8 c_cc_9 c_cc_10 c_cc_11 c_cc_12 c_cc_13 c_cc_14 c_cc_15 c_cc_16 f_fppacc radius 
1781 5 0.0035755 -0.0439592 -0.0373337 0 0 0 0.139052 -12.2455 14.9614 0 -0.000164368 0 0 0 0 0 0 0 0 0 0 0 0 0 0 0 0 0 25 0.002 
459 5 0.00751574 -0.0429055 -0.0291842 0 0 0 0.0986628 -12.644 15.6476 0 -0.000164368 0 0 0 0 0 0 0 0 0 0 0 0 0 0 0 0 0 92 0.002 
1856 1 0.00299919 -0.046293 0.0343477 0 0 0 0.00461963 4.83382 6.96239 0.00010725 -0.000194857 -4.41147e-05 0 0 0 0 0 0 0 0 0 0 0 0 0 0 0 0 20 0.002 
1199 14 0.00974082 -0.0214856 -0.0392707 0 0 0 -8.46966 -30.6227 -2.39689 0 -0.000164368 0 0 0 0 0 0 0 0 0 0 0 0 0 0 0 0 0 124 0.002 
497 3 0.00583332 -0.0364117 -0.0186384 0 0 0 -6.83328 -26.1211 22.194 0 -0.000164368 0 0 0 0 0 0 0 0 0 0 0 0 0 0 0 0 0 48 0.002 
1872 4 0.00572309 -0.00474236 0.0577286 0 0 0 5.72458 33.0135 0.284789 -0.039997 0.0493086 -0.577267 0 0 0 0 0 0 0 0 0 0 0 0 0 0 0 0 0 0.002 
856 11 0.00391531 0.0259585 -0.0437758 0 0 0 -1.10082 -2.4861 -2.34188 0 -0.000164368 0 0 0 0 0 0 0 0 0 0 0 0 0 0 0 0 0 116 0.002 
2014 4 0.00733193 0.0294778 -0.0163637 0 0 0 0.38027 -3.00889 1.6284 0 -0.000164368 0 0 0 0 0 0 0 0 0 0 0 0 0 0 0 0 0 0 0.002 
1514 10 0.00880087 0.015102 0.0424154 0 0 0 0.603722 -2.85139 4.35487 0 -0.000164368 0 0 0 0 0 0 0 0 0 0 0 0 0 0 0 0 0 67 0.002 
1815 2 0.0108622 0.000613426 0.0576894 0 0 0 0.396819 9.06874 0.358591 0 -0.000164368 0 0 0 0 0 0 0 0 0 0 0 0 0 0 0 0 0 45 0.002 
41 1 0.0150728 0.0528645 -0.0354996 0 0 0 3.32235e-16 -4.96154e-16 -4.21928e-12 -2.77556e-17 -5.55112e-17 0 1 0 0 0 0 0 0 0 0 0 0 0 0 0 0 0 110 0.002 
480 3 0.0160528 0.0564865 -0.0355004 0 0 0 -3.7336e-16 2.98739e-16 -4.21896e-12 1.38778e-17 5.55112e-17 0 1 0 0 0 0 0 0 0 0 0 0 0 0 0 0 0 153 0.002 
1707 1 0.0127376 0.0625941 -0.0355 0 0 0 -2.02616e-268 6.08395e-20 -5.56907e-13 1.83769e-268 0 0 0 0 0 0 0 0 0 0 0 0 0 0 0 0 0 0 1 0.002 
286 14 0.015851 0.0688435 -0.0355 0 0 0 -9.607e-145 1.62436e-19 2.80421e-12 -1.02488e-144 0 0 0 0 0 0 0 0 0 0 0 0 0 0 0 0 0 0 130 0.002 
136 5 0.0113363 0.0646778 -0.0316416 0 0 0 1.62077 0.434908 1.11186 0 -0.000164368 0 0 0 0 0 0 0 0 0 0 0 0 0 0 0 0 0 95 0.002 
1061 5 0.00345618 0.0667701 -0.0329431 0 0 0 0.235548 -0.752136 0.0205606 0 -0.000164368 0 0 0 0 0 0 0 0 0 0 0 0 0 0 0 0 0 42 0.002 
1066 1 0.00991621 0.0737175 -0.0317663 0 0 0 0.00368997 -0.706009 -2.47421 0 -0.000164368 0 0 0 0 0 0 0 0 0 0 0 0 0 0 0 0 0 87 0.002 
1986 6 0.0167816 0.0461877 -0.0302027 0 0 0 -2.02706 -1.11655 0.457216 0 -0.000164368 0 0 0 0 0 0 0 0 0 0 0 0 0 0 0 0 0 0 0.002 
1923 1 0.00368056 0.0526906 -0.0287409 0 0 0 0.244756 -0.102673 -11.2744 0 -0.000164368 0 0 0 0 0 0 0 0 0 0 0 0 0 0 0 0 0 0 0.002 
1069 2 0.0172436 0.0732292 -0.0249372 0 0 0 0.792035 0.301977 1.0289 0 -0.000164368 0 0 0 0 0 0 0 0 0 0 0 0 0 0 0 0 0 34 0.002 
601 8 0.0111434 0.0409182 -0.0234313 0 0 0 0.471248 -1.52483 1.41643 0 -0.000164368 0 0 0 0 0 0 0 0 0 0 0 0 0 0 0 0 0 153 0.002 
759 15 0.00723568 0.0658311 -0.0241022 0 0 0 0.202705 -1.39964 0.918029 0 -0.000164368 0 0 0 0 0 0 0 0 0 0 0 0 0 0 0 0 0 131 0.002 
613 2 0.00493816 0.0438621 -0.0201862 0 0 0 0.209465 -1.3911 1.40097 0 -0.000164368 0 0 0 0 0 0 0 0 0 0 0 0 0 0 0 0 0 81 0.002 
1324 2 0.0145626 0.0625811 -0.0182382 0 0 0 2.19784 -0.240764 -6.75667 0 -0.000164368 0 0 0 0 0 0 0 0 0 0 0 0 0 0 0 0 0 64 0.002 
584 8 0.0138145 0.058984 -0.014687 0 0 0 -1.20796 0.000992423 -2.57811 0 -0.000164368 0 0 0 0 0 0 0 0 0 0 0 0 0 0 0 0 0 162 0.002 
654 3 0.0082577 0.0554086 -0.00867378 0 0 0 -1.10314 -0.77693 -2.21633 0 -0.000164368 0 0 0 0 0 0 0 0 0 0 0 0 0 0 0 0 0 132 0.002 
983 5 0.0148404 0.0748725 -0.00793429 0 0 0 -0.395602 1.39443 -7.99843 0 -0.000164368 0 0 0 0 0 0 0 0 0 0 0 0 0 0 0 0 0 117 0.002 
1381 4 0.0101333 0.0479374 0.000523702 0 0 0 0.564186 -1.10473 0.599613 0 -0.000164368 0 0 0 0 0 0 0 0 0 0 0 0 0 0 0 0 0 56 0.002 
1295 8 0.00918981 0.0715211 0.00218257 0 0 0 -0.843487 0.177588 -0.985837 0 -0.000164368 0 0 0 0 0 0 0 0 0 0 0 0 0 0 0 0 0 82 0.002 
1555 4 0.0104017 0.0666773 0.00453567 0 0 0 0.553109 5.92519 -8.85177 0 -0.000164368 0 0 0 0 0 0 0 0 0 0 0 0 0 0 0 0 0 43 0.002 
919 2 0.00614911 0.0689523 0.00759312 0 0 0 -1.48569 1.61373 -2.12336 0 -0.000164368 0 0 0 0 0 0 0 0 0 0 0 0 0 0 0 0 0 102 0.002 
29 5 0.0126764 0.070933 0.00751046 0 0 0 -0.835428 0.395547 -1.31734 0 -0.000164368 0 0 0 0 0 0 0 0 0 0 0 0 0 0 0 0 0 136 0.002 
1100 2 0.0124624 0.0537054 0.00804618 0 0 0 -0.315614 -0.232122 -0.695387 0 -0.000164368 0 0 0 0 0 0 0 0 0 0 0 0 0 0 0 0 0 91 0.002 
272 2 0.0160812 0.0586569 0.00918751 0 0 0 -1.4516 2.56963 -11.2399 0 -0.000164368 0 0 0 0 0 0 0 0 0 0 0 0 0 0 0 0 0 114 0.002 
708 1 0.00869543 0.0741598 0.00812384 0 0 0 -0.91482 0.230743 -0.613069 0 -0.000164368 0 0 0 0 0 0 0 0 0 0 0 0 0 0 0 0 0 116 0.002 
1733 8 0.00741893 0.0601767 0.0111149 0 0 0 2.51033 2.35805 -3.23333 0 -0.000164368 0 0 0 0 0 0 0 0 0 0 0 0 0 0 0 0 0 26 0.002 
2009 2 0.0123695 0.0612951 0.0119542 0 0 0 -1.49455 6.36845 -9.4539 0 -0.000164368 0 0 0 0 0 0 0 0 0 0 0 0 0 0 0 0 0 0 0.002 
1757 5 0.0160747 0.0645318 0.0119552 0 0 0 -5.58497 6.28018 -4.17236 0 -0.000164368 0 0 0 0 0 0 0 0 0 0 0 0 0 0 0 0 0 31 0.002 
1554 1 0.0034455 0.0644916 0.0144562 0 0 0 -0.372052 -0.076482 -0.637774 0 -0.000164368 0 0 0 0 0 0 0 0 0 0 0 0 0 0 0 0 0 46 0.002 
1863 7 0.0187 0.0726532 0.012395 0 0 0 -0.497101 0.0360543 -0.439629 0 -0.000164368 0 0 0 0 0 0 0 0 0 0 0 0 0 0 0 0 0 28 0.002 
1477 6 0.00330551 0.0574361 0.0161939 0 0 0 0.787386 0.342817 -1.02377 0 -0.000164368 0 0 0 0 0 0 0 0 0 0 0 0 0 0 0 0 0 87 0.002 
1360 1 0.0084858 0.0646391 0.0159682 0 0 0 0.112919 0.375496 -0.366282 0 -0.000164368 0 0 0 0 0 0 0 0 0 0 0 0 0 0 0 0 0 70 0.002 
541 6 0.00504496 0.06845 0.0156011 0 0 0 -0.0624586 -0.00926024 -0.384561 0 -0.000164368 0 0 0 0 0 0 0 0 0 0 0 0 0 0 0 0 0 133 0.002 
116 1 0.0074192 0.0721425 0.0161281 0 0 0 -1.07293 1.13568 -0.487395 0 -0.000164368 0 0 0 0 0 0 0 0 0 0 0 0 0 0 0 0 0 144 0.002 
1421 3 0.0145581 0.0740722 0.0163837 0 0 0 -0.032917 -0.0344276 -0.288828 0 -0.000164368 0 0 0 0 0 0 0 0 0 0 0 0 0 0 0 0 0 78 0.002 
957 4 0.0163691 0.0656307 0.0184262 0 0 0 -0.109725 1.30933 -2.28582 -0.0176799 0.0157684 0.00144849 0 0 0 1 0 0 0 0 0 0 0 0 0 0 0 0 134 0.002 
993 8 0.00929062 0.0683987 0.0171417 0 0 0 -0.995318 0.0606248 -0.640682 0 -0.000164368 0 0 0 0 0 0 0 0 0 0 0 0 0 0 0 0 0 103 0.002 
926 2 0.0134629 0.0686972 0.0181133 0 0 0 -0.296724 0.761318 -0.727617 0 -0.000164368 0 0 0 0 0 0 0 0 0 0 0 0 0 0 0 0 0 110 0.002 
329 7 0.0103642 0.0743622 0.0180002 0 0 0 -0.422382 0.0308075 -0.307875 0.00131872 0.000809904 0.000339981 0 0 0 0 0 0 1 0 0 0 0 0 0 0 0 0 163 0.002 
718 11 0.0119328 0.0412792 0.0209541 0 0 0 0.855264 -1.35412 -1.12047 0 -0.000164368 0 0 0 0 0 0 0 0 0 0 0 0 0 0 0 0 0 135 0.002 
581 6 0.0169984 0.0688683 0.0208567 0 0 0 -0.971859 -0.0137396 0.137092 0.0157184 -0.0339024 -0.0183058 0 0 0 0 0 2 0 0 0 0 0 0 0 0 0 0 135 0.002 
1609 14 0.0129611 0.0722012 0.0201893 0 0 0 -0.127749 0.609828 0.241313 0.00377286 -0.0031821 -0.0115605 0 0 0 0 0 0 0 0 0 0 0 0 0 1 0 0 71 0.002 
1558 2 0.00731125 0.074799 0.020566 0 0 0 -0.3734 -0.0251618 0.0255553 0 -0.000164368 0 0 0 0 0 0 0 0 0 0 0 0 0 0 0 0 0 77 0.002 
201 4 0.0176608 0.0749973 0.0192805 0 0 0 -0.168539 -0.0454997 -0.138633 -0.00736595 -0.00276645 -0.00517951 0 0 0 3 0 0 0 0 0 0 0 0 0 0 0 0 49 0.002 
1444 3 0.00326339 0.0632984 0.0213252 0 0 0 0.0269949 -0.341966 -0.216241 0 -0.000164368 0 0 0 0 0 0 0 0 0 0 0 0 0 0 0 0 0 94 0.002 
1322 2 0.00799719 0.0688122 0.0213439 0 0 0 0.166875 -0.290617 -0.0801461 0 -0.000164368 0 0 0 0 0 0 0 0 0 0 0 0 0 0 0 0 0 97 0.002 
245 1 0.00305715 0.0722042 0.0232151 0 0 0 -0.00685112 -0.135891 -0.199305 0 -0.000164368 0 0 0 0 0 0 0 0 0 0 0 0 0 0 0 0 0 95 0.002 
551 10 0.0175008 0.072481 0.0223634 0 0 0 -0.468944 0.36366 0.152433 0.0213924 -0.0078229 -0.0024093 0 0 0 1 0 1 0 0 0 2 0 0 0 0 0 0 132 0.002 
951 10 0.0049844 0.0664451 0.0245147 0 0 0 -0.0249877 -0.317653 -0.097591 0 -0.000164368 0 0 0 0 0 0 0 0 0 0 0 0 0 0 0 0 0 119 0.002 
1432 3 0.0115751 0.0663344 0.0245001 0 0 0 -0.228743 0.157021 -0.169211 0 -0.000164368 0 0 0 0 0 0 0 0 0 0 0 0 0 0 0 0 0 64 0.002 
472 3 0.018383 0.0671399 0.0245857 0 0 0 -0.376324 -0.292339 -0.139307 -0.00193115 -0.0119161 -0.00579372 0 0 1 0 0 0 0 0 0 0 0 0 0 0 0 0 138 0.002 
1516 4 0.0149283 0.0702423 0.0244293 0 0 0 -0.274805 0.17674 0.115563 -0.00790913 -0.00169985 0.00756236 0 0 0 0 0 0 0 0 0 1 0 0 0 0 0 0 53 0.002 
154 5 0.011106 0.0714646 0.0236432 0 0 0 -0.336988 0.130618 -0.104819 -0.00377286 0.00285337 0.0115605 0 0 0 0 0 0 0 0 0 0 0 0 0 1 0 0 102 0.002 
149 7 0.00666862 0.0730692 0.0249361 0 0 0 -0.0155652 -0.236396 -0.104483 6.79605e-05 -8.58841e-05 -1.3841e-05 0 0 0 0 0 0 1 0 0 0 0 0 0 0 0 0 103 0.002 
1868 4 0.0101657 0.0749185 0.0255242 0 0 0 -0.0269201 -0.197079 -0.104109 -6.79605e-05 -0.000242852 1.3841e-05 0 0 0 0 0 0 1 0 0 0 0 0 0 0 0 0 21 0.002 
701 10 0.0143164 0.0742821 0.023855 0 0 0 -0.706805 0.541601 0.387559 -0.0364302 0.00185469 0.0122908 0 0 0 0 0 0 0 0 0 1 0 0 0 0 0 0 110 0.002 
1730 4 0.00740997 0.0632563 0.0263049 0 0 0 -0.140147 -0.473595 -0.0196843 0 -0.000164368 0 0 0 0 0 0 0 0 0 0 0 0 0 0 0 0 0 39 0.002 
574 5 0.0150151 0.0634179 0.0267304 0 0 0 -0.345635 0.257102 0.187774 -0.000297783 -0.0472111 -0.0286951 0 0 0 0 1 0 0 0 0 0 0 0 0 0 0 0 109 0.002 
929 3 0.00777198 0.0691395 0.026094 0 0 0 -0.0618187 -0.281974 0.0344529 0 -0.000164368 0 0 0 0 0 0 0 0 0 0 0 0 0 0 0 0 0 119 0.002 
961 1 0.0115828 0.0691038 0.0279344 0 0 0 -0.121974 0.145971 0.263419 0 -0.000164368 0 0 0 0 0 0 0 0 0 0 0 0 0 0 0 0 0 97 0.002 
1115 2 0.0133226 0.0737823 0.0277031 0 0 0 -0.0964518 -0.142787 -0.0155145 -0.00317993 -0.000394715 0.000416067 0 2 0 0 0 0 0 0 0 0 0 0 0 0 0 0 108 0.002 
749 4 0.00418521 0.0666497 0.0290876 0 0 0 0.0612076 -0.21875 0.0258755 0 -0.000164368 0 0 0 0 0 0 0 0 0 0 0 0 0 0 0 0 0 107 0.002 
1870 6 0.0167867 0.0665941 0.0283274 0 0 0 -0.301945 -0.179012 -0.0431945 0.000297783 0.0468824 0.0286951 0 0 0 0 1 0 0 0 0 0 0 0 0 0 0 0 38 0.002 
1529 2 0.00509292 0.0709735 0.0293525 0 0 0 -0.0633687 -0.223495 -0.0369692 0 -0.000164368 0 0 0 0 0 0 0 0 0 0 0 0 0 0 0 0 0 75 0.002 
924 7 0.0156028 0.0706041 0.0285062 0 0 0 -0.315368 -0.238412 0.23261 0.00426049 -0.00410881 -0.00396004 0 1 0 0 0 0 1 0 0 0 0 0 0 0 0 0 96 0.002 
836 4 0.00302429 0.0742524 0.0282785 0 0 0 -0.0103297 -0.16762 -0.0149797 0 -0.000164368 0 0 0 0 0 0 0 0 0 0 0 0 0 0 0 0 0 140 0.002 
741 5 0.0184035 0.0743835 0.0289723 0 0 0 -0.0967769 -0.256851 0.172289 0.00443316 -0.00065779 -0.00184952 0 0 0 0 2 0 0 0 0 0 0 0 0 0 0 0 110 0.002 
1744 6 0.0113115 0.048145 0.0321441 0 0 0 -0.75388 9.07404 -9.54422 0 -0.000164368 0 0 0 0 0 0 0 0 0 0 0 0 0 0 0 0 0 37 0.002 
378 2 0.00584602 0.0532912 0.0315507 0 0 0 -0.77914 -0.569052 -0.152906 0 -0.000164368 0 0 0 0 0 0 0 0 0 0 0 0 0 0 0 0 0 132 0.002 
446 9 0.00303158 0.0577404 0.0312933 0 0 0 -0.117067 -0.18313 0.0426745 -0.0126861 -0.00254357 -0.00033876 0 0 0 0 0 0 0 0 1 0 0 0 0 0 0 0 109 0.002 
410 6 0.0101649 0.0592902 0.0318674 0 0 0 -0.0434168 -0.426738 -0.0130164 0.00935323 6.22167e-05 -0.00227649 0 0 0 0 0 2 0 0 0 0 0 0 0 0 0 0 128 0.002 
773 5 0.0141216 0.0595701 0.0323119 0 0 0 0.00174247 -0.420018 0.0357998 0.00247034 -0.000394044 -0.000830965 0 0 0 0 0 1 0 0 0 0 0 0 0 0 0 0 93 0.002 
1510 4 0.00700677 0.0630316 0.031786 0 0 0 0.0836511 -0.141065 -0.174751 0 -0.000164368 0 0 0 0 0 0 0 0 0 0 0 0 0 0 0 0 0 35 0.002 
473 3 0.0185904 0.0618199 0.0317462 0 0 0 -0.273279 -0.271545 -0.0767233 0.0015339 -0.00217708 -0.000213108 0 0 1 0 0 0 0 0 0 0 0 0 0 0 0 0 131 0.002 
455 1 0.0158949 0.0646994 0.0323757 0 0 0 -0.225423 -0.237996 -0.0329461 0.000994646 -0.000125884 -0.000207101 1 0 1 0 0 0 0 0 0 0 0 0 0 0 0 0 126 0.002 
1230 3 0.017867 0.0695518 0.0316861 0 0 0 -0.153546 -0.238878 -0.0224412 0 -0.000164368 0 0 0 0 0 0 0 0 0 0 0 0 0 0 0 0 0 66 0.002 
757 2 0.008798 0.0703355 0.0307276 0 0 0 -0.0588936 -0.208743 -0.0700799 0 -0.000164368 0 0 0 0 0 0 0 0 0 0 0 0 0 0 0 0 0 106 0.002 
623 3 0.0146478 0.0547121 0.0329312 0 0 0 -0.530508 -0.51033 -0.00557431 0 -0.000164368 0 0 0 0 0 0 0 0 0 0 0 0 0 0 0 0 0 123 0.002 
343 2 0.00634789 0.0591641 0.0329852 0 0 0 -0.136221 -0.216593 -0.00391816 0.000862504 0.00221793 0.00344621 0 0 0 0 0 1 0 0 1 0 0 0 0 0 0 0 135 0.002 
133 1 0.0118597 0.0632523 0.0329933 0 0 0 -0.305157 -0.265054 -0.0067773 0 -0.000164368 0 0 0 0 0 0 0 0 0 0 0 0 0 0 0 0 0 125 0.002 
1338 1 0.0029945 0.0657543 0.0330034 0 0 0 0.00233398 -0.14148 0.00513526 -0.000413522 0.00177077 -0.00102451 1 0 0 0 0 0 0 0 0 0 0 0 0 0 0 0 66 0.002 
1150 10 0.00639303 0.0678345 0.0328243 0 0 0 0.0249656 -0.173959 -0.0337931 -0.00253072 0.000991487 -0.00166456 1 0 0 0 0 0 0 0 0 1 0 0 0 0 0 0 123 0.002 
1727 1 0.0103413 0.0673059 0.0329725 0 0 0 0.0205718 -0.168139 0.00132686 0.00016114 0.00219808 0.000504964 1 0 0 0 0 0 0 0 0 1 0 0 0 0 0 0 38 0.002 
347 3 0.00315206 0.0702361 0.0330054 0 0 0 0.0295619 -0.141566 0.0302111 0.000831152 0.00417779 -0.00884198 0 0 0 0 0 0 0 0 0 0 0 0 0 0 0 0 125 0.002 
213 4 0.0142111 0.0682764 0.0329462 0 0 0 -0.0373941 -0.171073 -0.00366588 0.00653034 -0.000196137 0.000325994 2 0 0 0 0 0 0 0 0 0 0 0 0 0 0 0 120 0.002 
1511 1 0.0118753 0.0715927 0.032974 0 0 0 -0.122242 -0.163296 -0.00665605 0 -0.000164368 0 0 0 0 0 0 0 0 0 0 0 0 0 0 0 0 0 47 0.002 
1826 4 0.00665176 0.0729812 0.0329923 0 0 0 -0.0148481 -0.203152 -0.00129094 0 -0.000164368 0 0 0 0 0 0 0 0 0 0 0 0 0 0 0 0 0 25 0.002 
693 8 0.0157372 0.0727779 0.0327425 0 0 0 -0.0768241 -0.182609 0.00403776 0 -0.000164368 0 0 0 0 0 0 0 0 0 0 0 0 0 0 0 0 0 127 0.002 
1816 4 0.00585831 0.0420772 0.0396557 0 0 0 1.48141 8.87501 -10.796 -0.0219305 -0.108935 -0.11163 0 0 0 0 0 0 0 0 0 0 0 0 0 0 0 0 44 0.002 
598 1 0.00306073 0.0752857 -0.0318566 0 0 0 -0.977751 -1.09906 0.641139 0 -0.000164368 0 0 0 0 0 0 0 0 0 0 0 0 0 0 0 0 0 168 0.002 
437 8 0.00348359 0.079833 -0.032822 0 0 0 0.33298 -1.37702 -1.29178 0 -0.000164368 0 0 0 0 0 0 0 0 0 0 0 0 0 0 0 0 0 120 0.002 
567 7 0.0160317 0.080951 -0.0319238 0 0 0 0.197544 -0.286292 0.550615 0 -0.000164368 0 0 0 0 0 0 0 0 0 0 0 0 0 0 0 0 0 117 0.002 
603 7 0.00738528 0.0857841 -0.0329798 0 0 0 -0.594526 -0.255111 0.11945 0 -0.000164368 0 0 0 0 0 0 0 0 0 0 0 0 0 0 0 0 0 133 0.002 
728 1 0.0131087 0.0885432 -0.0323058 0 0 0 0.379018 -0.0499463 -0.186217 0 -0.000164368 0 0 0 0 0 0 0 0 0 0 0 0 0 0 0 0 0 121 0.002 
1330 2 0.00309189 0.0893387 -0.0328632 0 0 0 -0.0136057 -0.287672 -0.356947 0 -0.000164368 0 0 0 0 0 0 0 0 0 0 0 0 0 0 0 0 0 90 0.002 
1015 7 0.00804188 0.0901985 -0.0321301 0 0 0 -0.0839001 0.0692393 -0.458797 0.0036563 -0.0187314 0.013375 0 0 0 0 0 0 1 0 0 0 0 0 0 0 0 0 120 0.002 
1345 4 0.00637042 0.0937139 -0.0329611 0 0 0 0.00182229 0.136666 0.15251 -0.0036563 0.0184026 -0.013375 0 0 0 0 0 0 1 0 0 0 0 0 0 0 0 0 70 0.002 
1281 2 0.0110542 0.092772 -0.0329873 0 0 0 0.0863269 0.0266896 0.0495107 0.00118629 -0.0034515 -9.97272e-05 0 0 0 0 0 0 0 0 0 0 0 0 0 0 0 0 70 0.002 
416 5 0.00317122 0.0960152 -0.0317795 0 0 0 0.0932741 0.431985 -0.048691 0 -0.000164368 0 0 0 0 0 0 0 0 0 0 0 0 0 0 0 0 0 153 0.002 
1666 9 0.0170236 0.0951679 -0.0329685 0 0 0 -0.236439 -0.419211 0.0177404 0 -0.000164368 0 0 0 0 0 0 0 0 0 0 0 0 0 0 0 0 0 61 0.002 
1822 3 0.00736486 0.0976172 -0.0322423 0 0 0 0.0458319 0.00373618 -0.110159 -0.000301066 0.000378899 -0.000603806 0 0 1 0 0 0 0 0 0 0 0 0 0 0 0 0 41 0.002 
1794 2 0.0115181 0.0967397 -0.0329935 0 0 0 -0.0465302 0.0142001 0.0153631 0.00178424 -0.0069895 0.00116613 0 2 0 0 0 0 0 0 0 0 0 0 0 0 0 0 24 0.002 
1800 7 0.0101861 0.100496 -0.032931 0 0 0 -0.107238 -0.0408675 -0.03551 -0.00272926 0.0132119 -0.00503418 0 1 0 0 0 0 2 0 0 0 0 0 0 0 0 0 3 0.002 
216 2 0.0148386 0.0989414 -0.0326286 0 0 0 0.021484 -0.0608248 0.0339228 0 -0.000164368 0 0 0 0 0 0 0 0 0 0 0 0 0 0 0 0 0 127 0.002 
1494 4 0.0063583 0.101486 -0.0322962 0 0 0 0.0229223 0.0387714 0.120584 -0.0016045 0.000345292 -0.00870995 0 0 1 3 0 0 0 0 0 0 0 0 0 0 0 0 68 0.002 
1367 1 0.00299654 0.103528 -0.0329864 0 0 0 0.0135783 0.0351673 0.0358377 9.40024e-05 0.000178635 -0.00101127 0 0 0 1 0 0 0 0 0 0 0 0 0 0 0 0 79 0.002 
869 7 0.00901457 0.104387 -0.0329991 0 0 0 0.0668499 0.0237285 0.0302134 -0.00285466 -0.00171586 -0.00135543 0 0 0 1 0 0 2 0 0 0 0 0 0 0 0 0 120 0.002 
129 3 0.0128958 0.10343 -0.032945 0 0 0 0.0838865 -0.0887794 0.016157 -0.00208575 0.000287203 -0.000585963 0 0 0 0 0 0 2 0 0 0 0 0 0 0 0 0 80 0.002 
1696 5 0.0168865 0.103834 -0.0329485 0 0 0 -0.130468 -0.0960222 0.0162729 0 -0.000164368 0 0 0 0 0 0 0 0 0 0 0 0 0 0 0 0 0 62 0.002 
1541 2 0.00300185 0.107582 -0.0328508 0 0 0 0.000973931 0.00437961 0.0190129 0 -0.000164368 0 0 0 0 0 0 0 0 0 0 0 0 0 0 0 0 0 42 0.002 
61 8 0.0112309 0.107728 -0.032986 0 0 0 0.0314809 -0.066098 0.00354742 0 -0.000164368 0 0 0 0 0 0 0 0 0 0 0 0 0 0 0 0 0 92 0.002 
885 6 0.0153332 0.107627 -0.0329903 0 0 0 -0.0380577 -0.0449377 -0.0168591 0 -0.000164368 0 0 0 0 0 0 0 0 0 0 0 0 0 0 0 0 0 73 0.002 
940 2 0.00710253 0.107928 -0.0329911 0 0 0 -0.00362061 0.00601748 0.00403036 0 -0.000164368 0 0 0 0 0 0 0 0 0 0 0 0 0 0 0 0 0 111 0.002 
968 2 0.00438792 0.084047 -0.0306376 0 0 0 -1.36269 0.059767 -0.731138 0 -0.000164368 0 0 0 0 0 0 0 0 0 0 0 0 0 0 0 0 0 86 0.002 
145 6 0.010212 0.0947316 -0.0295705 0 0 0 -2.57331 1.49223 -1.15213 -0.332116 0.253097 -0.238802 0 0 0 0 0 3 0 0 0 0 0 0 0 0 0 0 123 0.002 
1382 2 0.00299804 0.0999554 -0.029796 0 0 0 -0.00695278 0.00476752 0.000109919 -0.00179942 -0.00232584 0.000271647 0 2 0 0 0 0 0 0 0 0 0 0 0 0 0 0 99 0.002 
1279 4 0.0110131 0.0986161 -0.0295047 0 0 0 -0.119252 0.117377 -0.00983125 -0.0187835 0.0741179 -0.0131465 0 1 0 2 0 1 1 0 0 0 0 0 0 0 0 0 75 0.002 
257 6 0.0184655 0.100086 -0.0313693 0 0 0 0.0614204 -0.115994 0.026774 0 -0.000164368 0 0 0 0 0 0 0 0 0 0 0 0 0 0 0 0 0 115 0.002 
1426 5 0.00591667 0.105019 -0.0304685 0 0 0 -0.0364618 0.114165 0.00355672 -0.000192605 -0.00135507 -0.000263305 0 0 0 0 1 0 0 0 0 0 0 0 0 0 0 0 64 0.002 
1600 1 0.0102348 0.105679 -0.0294184 0 0 0 -0.0104132 -0.00137038 -0.0395017 0.00399112 0.00219631 0.000881636 1 0 0 0 0 0 1 0 0 0 0 0 0 0 0 0 67 0.002 
401 3 0.0135537 0.107911 -0.0294159 0 0 0 0.00220772 -0.0184535 0.00252081 3.43744e-05 -0.000104776 6.18187e-06 1 0 0 0 0 0 0 0 0 0 0 0 0 0 0 0 43 0.002 
765 1 0.0177179 0.107886 -0.0293976 0 0 0 0.000347874 0.140285 -0.0435458 -0.0142387 0.0181529 0.017529 2 0 0 0 0 0 0 0 0 0 0 0 0 0 0 0 122 0.002 
1486 2 0.00613967 0.0813888 -0.027712 0 0 0 0.353899 1.23678 1.27283 0 -0.000164368 0 0 0 0 0 0 0 0 0 0 0 0 0 0 0 0 0 66 0.002 
391 4 0.0143257 0.0866455 -0.0269335 0 0 0 -0.298713 -0.0420788 -0.277219 0 -0.000164368 0 0 0 0 0 0 0 0 0 0 0 0 0 0 0 0 0 123 0.002 
314 6 0.00319826 0.0881071 -0.0287359 0 0 0 0.136933 -0.372117 -0.171273 0 -0.000164368 0 0 0 0 0 0 0 0 0 0 0 0 0 0 0 0 0 101 0.002 
1991 10 0.0106609 0.0882355 -0.028904 0 0 0 -0.201017 0.0126723 -0.480193 0 -0.000164368 0 0 0 0 0 0 0 0 0 0 0 0 0 0 0 0 0 1 0.002 
1817 2 0.00305096 0.0936215 -0.0272924 0 0 0 -0.00956007 -0.0302434 -0.0836155 -0.0646831 0.100953 0.0357206 0 1 0 0 0 0 0 0 0 0 0 0 0 0 0 0 21 0.002 
753 6 0.00706499 0.0919101 -0.0272191 0 0 0 -0.216304 0.232237 -0.120051 -0.0154995 -0.0484105 0.0302207 0 0 0 0 0 1 0 0 0 0 0 0 0 0 0 0 147 0.002 
293 1 0.0157132 0.0922202 -0.027152 0 0 0 -4.04117 -0.428785 2.98965 0.166353 -0.0897022 0.118288 1 0 0 0 0 0 0 0 0 0 0 0 0 0 0 0 140 0.002 
1186 8 0.00659832 0.0956722 -0.0283714 0 0 0 -0.602284 -0.0357189 -0.149805 -0.274438 -0.0507751 0.0084001 0 0 0 0 0 2 0 0 0 0 0 0 0 0 0 0 79 0.002 
1484 2 0.0138709 0.095135 -0.0287857 0 0 0 -2.97752 2.20159 0.141252 0.476063 -0.15268 0.0961116 1 0 0 0 0 1 0 0 0 0 0 0 0 0 0 0 77 0.002 
2003 2 0.00684626 0.0996752 -0.0287718 0 0 0 0.0207191 0.0134486 -0.0885556 0.00154383 -0.0100631 0.00319168 0 1 0 1 0 0 0 0 0 0 0 0 0 0 0 0 2 0.002 
1251 1 0.00990094 0.102047 -0.027788 0 0 0 -0.056201 -0.0465386 -0.112454 0.00209028 0.00129282 -0.0101362 1 1 0 1 0 0 0 0 0 0 0 0 0 0 0 0 70 0.002 
1980 1 0.0142348 0.100907 -0.0289164 0 0 0 0.023759 -0.0977404 0.173613 0.000353356 -9.03283e-05 0.0001483 0 0 0 1 0 0 0 0 0 0 0 0 0 0 0 0 1 0.002 
1185 6 0.00302363 0.103557 -0.0280782 0 0 0 0.00137998 0.0272684 -0.0256583 -0.000524957 0.00530695 -4.31153e-05 0 1 0 0 0 0 0 0 0 0 0 0 0 0 0 0 68 0.002 
1969 4 0.0175473 0.103155 -0.0288284 0 0 0 -0.00940864 -0.0422963 0.00411019 0 -0.000164368 0 0 0 0 0 0 0 0 0 0 0 0 0 0 0 0 0 3 0.002 
1481 4 0.00321221 0.107503 -0.0288432 0 0 0 0.0249572 -0.0454261 -0.0985482 0 -0.000164368 0 0 0 0 0 0 0 0 0 0 0 0 0 0 0 0 0 88 0.002 
1858 3 0.00718739 0.108005 -0.0281326 0 0 0 0.0238946 0.0114395 0.0567368 -0.000940721 -0.00493375 -0.00249282 0 0 0 0 1 0 0 0 0 0 0 0 0 0 0 0 27 0.002 
531 1 0.0117469 0.0773238 -0.0248515 0 0 0 0.539854 -1.48632 2.87492 0 -0.000164368 0 0 0 0 0 0 0 0 0 0 0 0 0 0 0 0 0 131 0.002 
215 1 0.00628382 0.0865049 -0.0250803 0 0 0 -0.880796 0.264682 0.363977 0 -0.000164368 0 0 0 0 0 0 0 0 0 0 0 0 0 0 0 0 0 66 0.002 
1806 4 0.0114303 0.0891097 -0.0250671 0 0 0 -0.524271 -0.375707 -0.0638217 0 -0.000164368 0 0 0 0 0 0 0 0 0 0 0 0 0 0 0 0 0 23 0.002 
2012 11 0.011213 0.0933716 -0.0254876 0 0 0 -0.234195 -0.260785 0.0596504 0 -0.000164368 0 0 0 0 0 0 0 0 0 0 0 0 0 0 0 0 0 0 0.002 
1668 1 0.00347241 0.0981414 -0.0262652 0 0 0 -0.13325 0.00924297 0.00967534 0.00026295 -0.000882548 0.00054929 0 1 0 0 0 0 0 0 0 0 0 0 0 0 0 0 47 0.002 
1129 5 0.014254 0.0979082 -0.0249693 0 0 0 0.00999247 -0.120976 0.135709 0 -0.000164368 0 0 0 0 0 0 0 0 0 0 0 0 0 0 0 0 0 98 0.002 
2005 6 0.018298 0.0969132 -0.026471 0 0 0 -1.13889 1.00783 1.27584 0 -0.000164368 0 0 0 0 0 0 0 0 0 0 0 0 0 0 0 0 0 0 0.002 
952 3 0.0102044 0.098731 -0.0249624 0 0 0 0.0610292 0.0277059 0.103378 0 -0.000164368 0 0 0 0 0 0 0 0 0 0 0 0 0 0 0 0 0 108 0.002 
1349 14 0.00689675 0.101028 -0.0247936 0 0 0 0.0113182 -0.0105718 0.0951258 0 -0.000164368 0 0 0 0 0 0 0 0 0 0 0 0 0 0 0 0 0 82 0.002 
182 2 0.0133737 0.102942 -0.0255538 0 0 0 0.0266607 0.043943 0.0888962 0 -0.000164368 0 0 0 0 0 0 0 0 0 0 0 0 0 0 0 0 0 150 0.002 
901 9 0.0168422 0.101029 -0.0248454 0 0 0 -0.185919 -0.0721173 -0.280951 0.000914633 -0.00119845 0.000520626 0 0 0 0 0 0 0 0 2 0 0 0 0 0 0 0 125 0.002 
262 3 0.00592537 0.105035 -0.0256005 0 0 0 -0.0276683 -0.035198 0.0430025 0 -0.000164368 0 0 0 0 0 0 0 0 0 0 0 0 0 0 0 0 0 99 0.002 
345 6 0.0158437 0.105977 -0.0264478 0 0 0 0.0174776 -0.239811 -0.0921594 -0.00167362 -0.00529268 0.00385368 1 0 0 0 0 0 0 0 0 0 0 0 0 0 0 0 145 0.002 
1748 11 0.00402247 0.0912667 -0.0242221 0 0 0 -1.1837 0.479877 -0.576915 0.0646831 -0.101282 -0.0357206 0 1 0 0 0 0 0 0 0 0 0 0 0 0 0 0 25 0.002 
1987 8 0.00623991 0.0946479 -0.024413 0 0 0 -0.148827 0.131568 -0.0187807 0 -0.000164368 0 0 0 0 0 0 0 0 0 0 0 0 0 0 0 0 0 0 0.002 
383 6 0.00302295 0.101939 -0.0243798 0 0 0 -0.0337005 -0.038227 0.0015493 0 -0.000164368 0 0 0 0 0 0 0 0 0 0 0 0 0 0 0 0 0 114 0.002 
1992 2 0.00962841 0.103946 -0.0243075 0 0 0 -0.142867 0.0966104 -0.229436 0.000272421 0.00786662 0.0100754 1 1 0 0 0 0 0 0 0 0 0 0 0 0 0 0 2 0.002 
1596 5 0.0186678 0.104449 -0.0238799 0 0 0 -0.0648192 -0.169554 -0.0929418 -0.00405959 0.00186519 0.00025172 0 0 0 0 1 0 0 0 1 0 0 0 0 0 0 0 51 0.002 
587 1 0.00304646 0.107787 -0.0241541 0 0 0 0.00790303 0.0970746 0.0197635 0 -0.000164368 0 0 0 0 0 0 0 0 0 0 0 0 0 0 0 0 0 66 0.002 
644 7 0.0124104 0.107034 -0.0240263 0 0 0 0.00281531 -0.0907207 0.0951419 0 -0.000164368 0 0 0 0 0 0 0 0 0 0 0 0 0 0 0 0 0 141 0.002 
1389 4 0.016147 0.107272 -0.0225795 0 0 0 0.0985609 0.0343287 -0.197739 0.00227284 -0.00214497 -0.00167367 0 0 0 1 0 0 0 0 0 0 0 0 0 0 0 0 59 0.002 
92 2 0.0085108 0.107908 -0.024349 0 0 0 0.0232549 -0.00946065 0.113793 0 -0.000164368 0 0 0 0 0 0 0 0 0 0 0 0 0 0 0 0 0 124 0.002 
357 7 0.00327429 0.0828113 -0.0211185 0 0 0 0.106407 0.280417 -1.42816 0 -0.000164368 0 0 0 0 0 0 0 0 0 0 0 0 0 0 0 0 0 122 0.002 
1692 4 0.00685042 0.0869943 -0.0210372 0 0 0 0.47116 -0.0414172 -0.935037 0 -0.000164368 0 0 0 0 0 0 0 0 0 0 0 0 0 0 0 0 0 43 0.002 
1020 3 0.0123324 0.0886424 -0.0208584 0 0 0 -1.14269 -0.491559 -0.0844552 0 -0.000164368 0 0 0 0 0 0 0 0 0 0 0 0 0 0 0 0 0 102 0.002 
1317 6 0.00842045 0.0913056 -0.022096 0 0 0 -0.628444 -0.224595 -0.160881 0 -0.000164368 0 0 0 0 0 0 0 0 0 0 0 0 0 0 0 0 0 83 0.002 
796 15 0.0151817 0.0935368 -0.0207471 0 0 0 -0.419863 -0.469066 0.278412 0 -0.000164368 0 0 0 0 0 0 0 0 0 0 0 0 0 0 0 0 0 119 0.002 
695 2 0.00704513 0.0978954 -0.022176 0 0 0 0.080448 0.135491 0.114552 0 -0.000164368 0 0 0 0 0 0 0 0 0 0 0 0 0 0 0 0 0 107 0.002 
299 1 0.0116818 0.0974028 -0.0213107 0 0 0 0.152959 -0.0731376 0.147803 0 -0.000164368 0 0 0 0 0 0 0 0 0 0 0 0 0 0 0 0 0 92 0.002 
1271 4 0.00302111 0.0985758 -0.0221692 0 0 0 -0.00872532 0.0317514 0.0167626 0.000252854 -0.000640014 0.000410815 0 0 0 1 0 0 0 0 0 0 0 0 0 0 0 0 99 0.002 
1975 1 0.00921172 0.10119 -0.0214068 0 0 0 0.129328 0.202123 0.112196 -0.00910651 -0.00179422 -0.00831524 1 0 0 0 0 0 0 0 0 0 0 0 0 0 0 0 1 0.002 
1290 7 0.0131981 0.101112 -0.0212002 0 0 0 -0.0180699 0.0682717 0.0749555 0.00910651 0.00146549 0.00831524 1 0 0 0 0 0 0 0 0 0 0 0 0 0 0 0 73 0.002 
1091 5 0.00329657 0.103795 -0.0205824 0 0 0 0.0444521 0.0186569 -0.0448992 0 -0.000164368 0 0 0 0 0 0 0 0 0 0 0 0 0 0 0 0 0 88 0.002 
1530 5 0.0113592 0.104696 -0.0208057 0 0 0 -0.00699485 0.0293298 -0.132582 0.00242923 0.00626476 0.0086676 0 1 0 0 1 0 0 0 0 0 0 0 0 0 0 0 73 0.002 
244 1 0.0163239 0.103584 -0.0207157 0 0 0 0.094727 0.0655354 0.124007 -0.000277406 -0.000347241 -0.000404877 1 0 0 0 0 0 0 0 0 0 0 0 0 0 0 0 95 0.002 
411 1 0.00618147 0.107961 -0.0210078 0 0 0 -0.203899 -0.000519631 -0.109107 0.00562151 0.00010259 -0.00557019 1 0 0 0 0 0 0 0 0 0 0 0 0 0 0 0 64 0.002 
294 1 0.00328037 0.0918291 -0.0196656 0 0 0 -0.340762 -0.292766 0.421115 0 -0.000164368 0 0 0 0 0 0 0 0 0 0 0 0 0 0 0 0 0 118 0.002 
1848 9 0.00452595 0.0958361 -0.0196737 0 0 0 -0.0715944 -0.016189 0.0649815 -0.000252854 0.000311278 -0.000410815 0 0 0 1 0 0 0 0 0 0 0 0 0 0 0 0 33 0.002 
972 3 0.00546045 0.100325 -0.0194164 0 0 0 -0.0504748 0.0808649 0.155568 0 -0.000164368 0 0 0 0 0 0 0 0 0 0 0 0 0 0 0 0 0 117 0.002 
384 6 0.0171063 0.0997187 -0.0188384 0 0 0 0.128765 -0.122046 0.200623 0 -0.000164368 0 0 0 0 0 0 0 0 0 0 0 0 0 0 0 0 0 138 0.002 
1662 8 0.00670115 0.104898 -0.018194 0 0 0 -0.133263 -0.100833 0.0113164 0 -0.000164368 0 0 0 0 0 0 0 0 0 0 0 0 0 0 0 0 0 40 0.002 
71 5 0.00301267 0.107767 -0.0186038 0 0 0 -0.194338 0.028039 0.0838227 -0.00562151 -0.000431326 0.00557019 1 0 0 0 0 0 0 0 0 0 0 0 0 0 0 0 36 0.002 
325 6 0.00955345 0.107692 -0.0187255 0 0 0 -0.135849 -0.00299298 -0.158172 0 -0.000164368 0 0 0 0 0 0 0 0 0 0 0 0 0 0 0 0 0 93 0.002 
1977 1 0.0134453 0.107976 -0.0197292 0 0 0 -0.173462 -0.0225232 -0.358376 -0.00227284 0.00181623 0.00167367 0 0 0 1 0 0 0 0 0 0 0 0 0 0 0 0 2 0.002 
1775 1 0.01775 0.107981 -0.0181923 0 0 0 -0.324279 -0.0785521 -0.0190889 0 -0.000164368 0 0 0 0 0 0 0 0 0 0 0 0 0 0 0 0 0 42 0.002 
941 3 0.00781772 0.0903683 -0.0159606 0 0 0 0.418059 0.00847381 -0.992947 0 -0.000164368 0 0 0 0 0 0 0 0 0 0 0 0 0 0 0 0 0 109 0.002 
1602 3 0.00457697 0.0934406 -0.016157 0 0 0 0.199194 0.150497 0.347567 0 -0.000164368 0 0 0 0 0 0 0 0 0 0 0 0 0 0 0 0 0 51 0.002 
1256 2 0.0109426 0.093924 -0.0170098 0 0 0 -0.465178 0.0562733 -0.380342 0 -0.000164368 0 0 0 0 0 0 0 0 0 0 0 0 0 0 0 0 0 89 0.002 
1420 4 0.00620573 0.0976654 -0.0165148 0 0 0 0.0831617 -0.0674387 0.0739886 0 -0.000164368 0 0 0 0 0 0 0 0 0 0 0 0 0 0 0 0 0 30 0.002 
849 4 0.0100372 0.0981649 -0.0176757 0 0 0 0.188817 -0.0222329 0.0806943 0 -0.000164368 0 0 0 0 0 0 0 0 0 0 0 0 0 0 0 0 0 100 0.002 
413 11 0.0162275 0.0967341 -0.0159317 0 0 0 -0.259104 -0.124082 0.235699 0 -0.000164368 0 0 0 0 0 0 0 0 0 0 0 0 0 0 0 0 0 64 0.002 
33 2 0.0134096 0.100269 -0.0169719 0 0 0 0.0370338 0.0302711 0.133694 0 -0.000164368 0 0 0 0 0 0 0 0 0 0 0 0 0 0 0 0 0 48 0.002 
1763 7 0.00952524 0.102194 -0.0168892 0 0 0 -0.140499 -0.242553 0.0724238 -0.0182933 -0.00959544 0.00641368 0 0 0 0 0 0 1 0 0 0 0 0 0 0 0 0 26 0.002 
187 7 0.00321844 0.104301 -0.0162649 0 0 0 -0.155167 -0.0700236 0.12671 0 -0.000164368 0 0 0 0 0 0 0 0 0 0 0 0 0 0 0 0 0 45 0.002 
1073 6 0.0129217 0.104236 -0.0171658 0 0 0 -0.115546 -0.132766 0.0225461 0.0173338 0.00724971 -0.00421923 0 0 0 0 1 2 1 0 0 0 0 0 0 0 0 0 120 0.002 
252 6 0.0170754 0.104055 -0.0168159 0 0 0 -0.045535 -0.0137072 0.14267 0.000277406 1.85051e-05 0.000404877 1 0 0 0 0 0 0 0 0 0 0 0 0 0 0 0 113 0.002 
1658 1 0.0139305 0.107769 -0.0156016 0 0 0 -0.629803 -0.0323204 0.227591 0.000927958 0.000765366 0.000586232 0 0 0 0 0 1 0 0 0 0 0 0 0 0 0 0 48 0.002 
1355 6 0.0135398 0.0791138 -0.0138857 0 0 0 -1.24258 -1.57218 -0.14916 0 -0.000164368 0 0 0 0 0 0 0 0 0 0 0 0 0 0 0 0 0 96 0.002 
167 2 0.00425399 0.0816752 -0.0137886 0 0 0 0.433689 1.31016 -3.11297 0 -0.000164368 0 0 0 0 0 0 0 0 0 0 0 0 0 0 0 0 0 97 0.002 
656 1 0.011799 0.0886638 -0.0144318 0 0 0 0.306061 -0.623196 -0.0786701 0 -0.000164368 0 0 0 0 0 0 0 0 0 0 0 0 0 0 0 0 0 44 0.002 
1523 6 0.0157616 0.0912311 -0.0150181 0 0 0 -0.109777 -0.355481 0.435746 0 -0.000164368 0 0 0 0 0 0 0 0 0 0 0 0 0 0 0 0 0 38 0.002 
800 1 0.0167944 0.100521 -0.0147377 0 0 0 -0.849773 -0.207584 0.0942758 0 -0.000164368 0 0 0 0 0 0 0 0 0 0 0 0 0 0 0 0 0 85 0.002 
1978 6 0.00571588 0.101409 -0.0150204 0 0 0 0.110837 0.0524299 0.0429635 0 -0.000164368 0 0 0 0 0 0 0 0 0 0 0 0 0 0 0 0 0 2 0.002 
1175 4 0.0101647 0.105341 -0.014497 0 0 0 -0.241877 -0.142882 0.0420372 -0.0169237 -0.00384444 -0.0095835 0 0 0 2 0 1 0 0 0 0 0 0 0 0 0 0 86 0.002 
949 3 0.013549 0.103666 -0.0132562 0 0 0 -0.301504 -0.272184 -0.0106133 0.0297959 0.00150503 0.00208807 0 0 0 1 0 0 0 0 0 0 0 0 0 0 0 0 100 0.002 
264 10 0.00299997 0.107918 -0.0144694 0 0 0 0.00105099 -0.0159291 0.113613 -2.21722e-05 -0.000158306 -9.28177e-06 0 0 0 0 0 0 0 0 0 0 0 0 0 0 0 0 126 0.002 