ITEM: TIMESTEP
6000000
ITEM: NUMBER OF ATOMS
11013
ITEM: BOX BOUNDS ff ff ff
-0.01 0.45
-0.15 0.15
-0.08 0.1
ITEM: ATOMS id type x y z ix iy iz vx vy vz fx fy fz c_cc_1 c_cc_2 c_cc_3 c_cc_4 c_cc_5 c_cc_6 c_cc_7 c_cc_8 c_cc_9 c_cc_10 c_cc_11 c_cc_12 c_cc_13 c_cc_14 c_cc_15 c_cc_16 f_fppacc radius c_cc_17 
11428 3 0.0173521 -0.00644326 -0.0602996 0 0 0 -0.00392317 -0.136621 -0.0121018 0 -1.05196e-05 0 0 0 0 0 0 0 0 0 0 0 0 0 0 0 0 0 0 0.0008 0 
9915 5 0.0149228 -0.0132058 -0.0593067 0 0 0 0.0172396 0.134462 0.198634 0 -1.05196e-05 0 0 0 0 0 0 0 0 0 0 0 0 0 0 0 0 0 6 0.0008 0 
10907 2 0.013572 -0.0194445 -0.0578111 0 0 0 2.28293e-05 -0.289282 0.0833065 0 -1.05196e-05 0 0 0 0 0 0 0 0 0 0 0 0 0 0 0 0 0 0 0.0008 0 
6272 1 0.00746016 -0.0169471 -0.0584498 0 0 0 -0.00328521 -0.221774 0.0635639 0 -1.05196e-05 0 0 0 0 0 0 0 0 0 0 0 0 0 0 0 0 0 13 0.0008 0 
11044 4 0.0133052 -0.0154533 -0.0586937 0 0 0 -0.128722 -0.508382 0.0747319 0 -1.05196e-05 0 0 0 0 0 0 0 0 0 0 0 0 0 0 0 0 0 0 0.0008 0 
10059 2 0.0112408 -0.00456953 -0.0561128 0 0 0 0.748606 -4.51441 -1.13458 0 -1.05196e-05 0 0 0 0 0 0 0 0 0 0 0 0 0 0 0 0 0 3 0.0008 0 
8738 2 0.00615036 -0.000651801 -0.0541245 0 0 0 0.139079 -21.1808 2.646 0 -1.05196e-05 0 0 0 0 0 0 0 0 0 0 0 0 0 0 0 0 0 12 0.0008 0 
2611 5 0.0130926 -0.032373 -0.0518974 0 0 0 -0.034287 -0.235837 0.204883 0 -1.05196e-05 0 0 0 0 0 0 0 0 0 0 0 0 0 0 0 0 0 17 0.0008 0 
7318 3 0.00806287 -0.0202133 -0.050207 0 0 0 -1.32635 -4.31235 3.85906 0 -1.05196e-05 0 0 0 0 0 0 0 0 0 0 0 0 0 0 0 0 0 11 0.0008 0 
10496 1 0.00104901 -0.0514349 -0.0324967 0 0 0 0.109598 -0.202966 0.317338 0 -1.05196e-05 0 0 0 0 0 0 0 0 0 0 0 0 0 0 0 0 0 0 0.0008 0 
700 8 0.00748644 -0.0574467 -0.0203529 0 0 0 0.0534222 -0.229214 0.606238 0 -1.05196e-05 0 0 0 0 0 0 0 0 0 0 0 0 0 0 0 0 0 2 0.0008 0 
3026 12 0.0177827 -0.0435152 -0.0198212 0 0 0 1.77221 -0.275679 3.11012 0 -1.05196e-05 0 0 0 0 0 0 0 0 0 0 0 0 0 0 0 0 0 39 0.0008 0 
7219 10 0.0129506 -0.0544566 -0.0167556 0 0 0 0.441338 -6.92355 16.4552 0 -1.05196e-05 0 0 0 0 0 0 0 0 0 0 0 0 0 0 0 0 0 16 0.0008 0 
5953 8 0.00429704 -0.0597878 -0.011787 0 0 0 0.063325 0.0138883 -0.0742958 2.32019e-18 -2.53692e-07 1.35713e-06 0 0 0 0 0 0 0 0 0 0 0 0 0 0 0 0 11 0.0008 0 
11531 3 0.0140447 -0.0598489 -0.0111888 0 0 0 1.17354 -5.4093 16.0017 0 -1.05196e-05 0 0 0 0 0 0 0 0 0 0 0 0 0 0 0 0 0 0 0.0008 0 
8455 4 0.000807488 -0.0601726 -0.00972839 0 0 0 0.000790904 -0.00209465 0.0112054 1.2883e-18 -2.53692e-07 1.35713e-06 0 0 0 0 0 0 0 0 0 0 0 0 0 0 0 0 5 0.0008 0 
10613 5 0.0110864 -0.0601655 -0.00976643 0 0 0 0.0390698 0.0169952 -0.0909162 -9.65276e-19 -2.53692e-07 1.35713e-06 0 0 0 0 0 0 0 0 0 0 0 0 0 0 0 0 0 0.0008 0 
9977 6 0.00171988 -0.0604392 -0.00830205 0 0 0 0.0365615 -0.000421241 0.00232631 -1.41932e-09 -3.14198e-06 8.24264e-07 0 0 0 0 0 0 0 0 0 0 0 0 0 0 0 0 0 0.0008 0 
10360 1 0.00632121 -0.0605649 -0.00762736 0 0 0 -0.0112739 0.0033071 -5.82029e-05 0 -1.05196e-05 0 0 0 0 0 0 0 0 0 0 0 0 0 0 0 0 0 0 0.0008 0 
1749 6 0.00983581 -0.0605507 -0.00767512 0 0 0 0.0228352 0.0321595 0.0119837 0 -1.05196e-05 0 0 0 0 0 0 0 0 0 0 0 0 0 0 0 0 0 14 0.0008 0 
7649 2 0.00161992 -0.0607328 -0.00673165 0 0 0 0.0014577 -0.000213118 0.00138072 -1.03844e-06 3.62522e-07 -5.74447e-07 0 1 0 0 0 0 0 0 0 0 0 0 0 0 0 0 2 0.0008 0 
11208 2 0.00593848 -0.0608557 -0.00604789 0 0 0 0.00226275 0.0138617 -0.0144889 0 -1.05196e-05 0 0 0 0 0 0 0 0 0 0 0 0 0 0 0 0 0 0 0.0008 0 
9279 2 0.00796511 -0.0607196 -0.00680189 0 0 0 0.00145016 -0.00192169 0.0102795 -4.94903e-14 -2.54485e-07 1.35697e-06 0 0 0 0 0 0 0 0 0 0 0 0 0 0 0 0 1 0.0008 0 
8128 3 0.0113549 -0.0607127 -0.00682349 0 0 0 0.0376221 0.00150363 0.00351359 0 -1.05196e-05 0 0 0 0 0 0 0 0 0 0 0 0 0 0 0 0 0 2 0.0008 0 
10606 8 0.0142286 -0.0607457 -0.0066626 0 0 0 0.0816188 -0.00751675 0.040211 1.09059e-17 -2.53692e-07 1.35713e-06 0 0 0 0 0 0 0 0 0 0 0 0 0 0 0 0 1 0.0008 0 
7937 2 0.000800748 -0.0609356 -0.00537053 0 0 0 0.000359786 2.4944e-08 -3.47392e-05 2.58848e-09 -3.74927e-10 7.54268e-09 0 0 0 0 0 0 0 0 0 0 0 0 0 0 0 0 4 0.0008 0 
894 6 0.00243783 -0.0609356 -0.00537165 0 0 0 0.0029768 6.33458e-05 0.000751541 2.29369e-07 9.85645e-07 5.506e-07 0 1 0 0 0 0 0 0 0 0 0 0 0 0 0 0 8 0.0008 0 
9269 5 0.0046512 -0.0609356 -0.00503051 0 0 0 -0.000206728 2.75924e-09 -0.010107 -1.63594e-16 -7.45916e-11 -7.99828e-15 0 0 0 0 0 0 0 0 0 0 0 0 0 0 0 0 2 0.0008 0 
8603 2 0.0072908 -0.0609347 -0.00519259 0 0 0 -0.0063442 0.003895 0.0186804 0 -1.05196e-05 0 0 0 0 0 0 0 0 0 0 0 0 0 0 0 0 0 0 0.0008 0 
9160 14 0.00903461 -0.0609356 -0.00560881 0 0 0 0.00420617 -1.74851e-08 0.00624927 -2.06877e-14 9.06534e-11 -3.07362e-14 0 0 0 0 0 0 0 0 0 0 0 0 0 0 0 0 4 0.0008 0 
3630 1 0.010819 -0.0609356 -0.00526077 0 0 0 0.0151596 -1.37433e-09 0.00117856 -5.77784e-15 -1.50716e-11 -4.49198e-16 0 0 0 0 0 0 0 0 0 0 0 0 0 0 0 0 9 0.0008 0 
4164 1 0.0124374 -0.0609333 -0.00565794 0 0 0 0.0463716 -0.00359456 0.0132215 0 -1.05196e-05 0 0 0 0 0 0 0 0 0 0 0 0 0 0 0 0 0 15 0.0008 0 
7844 8 0.0145885 -0.0609356 -0.00508052 0 0 0 0.0284197 -1.68222e-12 -0.0169906 4.81295e-18 0 2.39618e-18 0 0 0 0 0 0 0 0 0 0 0 0 0 0 0 0 5 0.0008 0 
10156 5 0.0175121 -0.0609356 -0.00538664 0 0 0 0.164427 6.39085e-08 -0.0308625 2.26147e-06 -4.77677e-10 4.74853e-06 0 0 0 0 0 0 0 0 0 0 0 0 0 0 0 0 2 0.0008 0 
11528 1 0.00839891 -0.0588804 -0.00529174 0 0 0 -0.0191078 -2.25237 15.0433 0 -1.05196e-05 0 0 0 0 0 0 0 0 0 0 0 0 0 0 0 0 0 0 0.0008 0 
5540 9 0.000811464 -0.0609356 -0.00377055 0 0 0 0.00262429 7.1752e-07 4.30301e-05 -2.59145e-09 -1.27215e-08 -7.46978e-09 0 0 0 0 0 0 0 0 0 0 0 0 0 0 0 0 11 0.0008 0 
1225 1 0.00336547 -0.0609356 -0.00406755 0 0 0 0.00268571 -0.000132366 -0.00197865 1.10978e-07 -1.67671e-06 -3.4218e-07 1 0 0 0 0 0 0 0 0 0 0 0 0 0 0 0 104 0.0008 0 
4634 2 0.00606835 -0.0609356 -0.00408903 0 0 0 -0.000758255 3.88573e-05 -0.000988624 1.05175e-09 -8.70995e-08 8.71877e-10 0 0 0 0 0 0 0 0 0 0 0 0 0 0 0 0 17 0.0008 0 
3983 3 0.00846513 -0.0609347 -0.0041051 0 0 0 0.0130195 0.00158683 0.00408331 0 -1.05196e-05 0 0 0 0 0 0 0 0 0 0 0 0 0 0 0 0 0 2 0.0008 0 
1887 11 0.0116881 -0.0609356 -0.00380449 0 0 0 -0.00104949 -0.00048081 0.0137785 7.1936e-09 -4.33943e-06 3.44851e-09 0 0 0 0 0 0 0 0 0 0 0 0 0 0 0 0 13 0.0008 0 
11529 2 0.00976937 -0.0586907 -0.00417776 0 0 0 -5.12936e-13 -1.27985 9.65224 0 -1.05196e-05 0 0 0 0 0 0 0 0 0 0 0 0 0 0 0 0 0 0 0.0008 0 
9680 4 0.00221393 -0.0609356 -0.0029528 0 0 0 -0.00194927 2.75177e-10 -0.0083661 -1.49388e-16 1.6843e-12 -6.41057e-16 0 0 0 0 0 0 0 0 0 0 0 0 0 0 0 0 2 0.0008 0 
6408 2 0.00472361 -0.0609356 -0.00322188 0 0 0 0.00130476 0.000137002 0.00280707 6.61731e-08 1.51841e-06 4.52381e-07 1 0 0 0 0 0 0 0 0 0 0 0 0 0 0 0 6 0.0008 0 
4185 5 0.00727115 -0.0609356 -0.00303339 0 0 0 -0.0016768 -2.23394e-05 0.00108263 -3.03798e-09 3.38625e-07 -1.99097e-09 0 0 0 0 0 0 0 0 0 0 0 0 0 0 0 0 24 0.0008 0 
7431 2 0.0100875 -0.0609356 -0.00375106 0 0 0 -0.000945134 -1.0701e-06 0.00527283 2.89787e-13 6.95101e-09 -1.58986e-12 0 0 0 0 0 0 0 0 0 0 0 0 0 0 0 0 1 0.0008 0 
5313 7 0.0141371 -0.0609356 -0.00336104 0 0 0 0.0118631 7.34807e-13 -0.0108491 -1.20858e-18 0 1.19811e-18 0 0 0 0 0 0 0 0 0 0 0 0 0 0 0 0 9 0.0008 0 
5892 2 0.0157832 -0.0609356 -0.00374515 0 0 0 0.00464052 1.48975e-10 -0.000579042 1.96213e-16 -1.35681e-12 -2.44787e-17 0 0 0 0 0 0 0 0 0 0 0 0 0 0 0 0 10 0.0008 0 
634 1 0.0176651 -0.0609356 -0.00373489 0 0 0 0.015955 3.46868e-08 0.00635892 2.2799e-13 8.58666e-10 -1.19831e-13 0 0 0 0 0 0 0 0 0 0 0 0 0 0 0 0 10 0.0008 0 
1200 7 0.000808483 -0.0609356 -0.00217046 0 0 0 0.0012441 1.6668e-06 0.000123555 5.15578e-12 -4.1448e-08 -2.35695e-11 0 0 0 0 0 0 0 0 0 0 0 0 0 0 0 0 11 0.0008 0 
3512 5 0.00367837 -0.0609356 -0.00200994 0 0 0 0.000784978 7.01613e-06 0.00148219 1.18512e-10 -2.71906e-08 -4.73699e-11 0 0 0 0 0 0 0 0 0 0 0 0 0 0 0 0 24 0.0008 0 
6702 2 0.00586513 -0.0609356 -0.00199705 0 0 0 -0.00261894 2.13679e-07 -0.000745174 -1.62188e-13 -5.65062e-09 -5.91832e-14 0 0 0 0 0 0 0 0 0 0 0 0 0 0 0 0 4 0.0008 0 
9639 4 0.00896609 -0.0609356 -0.00258519 0 0 0 0.0078653 0.000884787 0.0112897 4.4369e-06 -6.29109e-07 -1.86668e-05 0 0 0 0 0 0 0 0 0 0 0 0 0 0 0 0 3 0.0008 0 
3427 4 0.0107078 -0.0609356 -0.00227169 0 0 0 -1.25436e-05 -1.6442e-05 0.0025269 -5.17123e-07 -5.42474e-08 -2.90138e-07 0 0 0 1 0 0 0 0 0 0 0 0 0 0 0 0 9 0.0008 0 
3491 3 0.0123068 -0.0609356 -0.00232877 0 0 0 0.000332492 -0.000192358 0.0131747 7.98237e-07 3.64706e-07 2.99407e-07 0 0 0 1 0 0 0 0 0 0 0 0 0 0 0 0 11 0.0008 0 
7185 2 0.0138088 -0.0609356 -0.00177399 0 0 0 0.0105534 -4.71787e-06 -0.00804331 7.3667e-10 -3.68317e-07 3.68956e-10 0 0 0 0 0 0 0 0 0 0 0 0 0 0 0 0 11 0.0008 0 
7843 6 0.0153636 -0.0609356 -0.00218889 0 0 0 0.0187212 1.56066e-08 0.00462506 8.18783e-14 -1.45849e-11 2.02281e-14 0 0 0 0 0 0 0 0 0 0 0 0 0 0 0 0 10 0.0008 0 
3509 2 0.0169765 -0.0609356 -0.00229034 0 0 0 0.0103592 -5.40039e-07 0.00395028 -1.69347e-12 -2.06179e-08 -3.82012e-13 0 0 0 0 0 0 0 0 0 0 0 0 0 0 0 0 9 0.0008 0 
414 7 0.00225926 -0.0609356 -0.00127013 0 0 0 -0.000866351 -6.5469e-06 -0.000688988 1.55791e-08 -4.68799e-08 1.87336e-08 0 0 0 0 0 0 0 0 0 0 0 0 0 0 0 0 9 0.0008 0 
553 2 0.00473212 -0.0609356 -0.000805886 0 0 0 0.000792394 1.78292e-06 0.00154 2.75418e-12 -4.11841e-09 4.8578e-12 0 0 0 0 0 0 0 0 0 0 0 0 0 0 0 0 11 0.0008 0 
72 4 0.00777702 -0.0609356 -0.0015151 0 0 0 -0.000908105 -5.95955e-05 0.00372863 1.10885e-06 2.08217e-06 1.03941e-05 0 0 0 1 0 0 0 0 0 0 0 0 0 0 0 0 8 0.0008 0 
4095 1 0.00960987 -0.0609356 -0.00110747 0 0 0 0.000935995 -5.08112e-10 -8.07912e-05 -1.49956e-16 7.12225e-11 1.29423e-17 0 0 0 0 0 0 0 0 0 0 0 0 0 0 0 0 14 0.0008 0 
1367 1 0.0111699 -0.0609356 -0.000736474 0 0 0 0.000957062 3.81265e-05 0.00223055 2.36088e-06 2.49477e-07 -6.6423e-06 1 0 0 0 0 0 0 0 0 0 0 0 0 0 0 0 44 0.0008 0 
316 1 0.0164323 -0.0609356 -0.000784616 0 0 0 0.00730162 9.22244e-06 0.00359172 3.60186e-11 -4.51507e-09 5.43226e-12 0 0 0 0 0 0 0 0 0 0 0 0 0 0 0 0 18 0.0008 0 
398 2 0.0181378 -0.0609355 -0.00114141 0 0 0 0.0155213 0.00188173 -0.000668564 -6.99417e-05 1.84368e-05 1.71294e-05 0 1 0 0 0 0 0 0 0 0 0 0 0 0 0 0 20 0.0008 0 
1871 2 0.000812602 -0.0609356 -0.000570283 0 0 0 0.00119983 8.58475e-06 6.33705e-05 2.07447e-07 -1.91505e-07 -1.83818e-06 0 1 0 0 0 0 0 0 0 0 0 0 0 0 0 0 18 0.0008 0 
690 7 0.00223892 -0.0609356 0.000329731 0 0 0 -0.00017177 -3.23039e-06 -0.000607541 -1.53792e-08 5.85135e-08 -2.93251e-08 0 0 0 0 0 0 0 0 0 0 0 0 0 0 0 0 15 0.0008 0 
1002 3 0.00651351 -0.0609356 -0.000533526 0 0 0 -0.00140186 -1.65745e-05 -0.000682359 -4.75044e-06 -3.94546e-06 -7.37273e-08 0 0 0 1 0 0 0 0 0 0 0 0 0 0 0 0 18 0.0008 0 
4165 3 0.00842061 -0.0609356 -3.57571e-05 0 0 0 0.00118497 -9.53178e-09 0.000614774 -3.15421e-15 -2.70174e-11 -1.63644e-15 0 0 0 0 0 0 0 0 0 0 0 0 0 0 0 0 5 0.0008 0 
4938 7 0.0100935 -0.0609356 0.000447153 0 0 0 0.000222307 -3.80448e-05 0.00028636 -1.49714e-06 -2.55302e-07 5.67542e-06 1 0 0 0 0 0 0 0 0 0 0 0 0 0 0 0 46 0.0008 0 
1118 3 0.0127332 -0.0609352 -0.000370409 0 0 0 0.00443238 -0.00670324 -0.0128627 0 -1.05196e-05 0 0 0 0 0 0 0 0 0 0 0 0 0 0 0 0 0 21 0.0008 0 
4298 7 0.014848 -0.0609356 -0.000556998 0 0 0 0.00578202 -1.26962e-06 -0.00330429 3.68187e-10 -1.26607e-07 3.45734e-10 0 0 0 0 0 0 0 0 0 0 0 0 0 0 0 0 8 0.0008 0 
206 1 0.000800045 -0.0609356 0.0010296 0 0 0 -5.91001e-05 -3.5569e-05 -0.000136418 -1.24534e-06 2.38338e-08 -4.72719e-07 1 1 0 0 0 0 0 0 0 0 0 0 0 0 0 0 36 0.0008 0 
101 5 0.00382718 -0.0609356 0.000524456 0 0 0 -0.00010038 2.8581e-07 0.000375957 -9.67802e-12 2.43471e-08 -8.14334e-13 0 0 0 0 0 0 0 0 0 0 0 0 0 0 0 0 24 0.0008 0 
585 3 0.00542334 -0.0609356 0.000637609 0 0 0 4.07747e-05 2.15989e-06 0.000708076 -1.46781e-09 -1.79531e-08 4.23124e-10 0 0 0 0 0 0 0 0 0 0 0 0 0 0 0 0 15 0.0008 0 
1470 6 0.00718227 -0.0609357 0.000978261 0 0 0 -0.00106632 -0.000158957 -0.00397036 9.02536e-07 1.72535e-06 -7.17114e-06 0 0 0 0 0 1 0 0 0 0 0 0 0 0 0 0 33 0.0008 0 
1920 3 0.00890163 -0.0609356 0.00151482 0 0 0 0.00223241 0.000107771 0.000294894 3.90692e-06 5.025e-07 -3.63724e-06 0 0 0 0 0 0 0 0 0 0 0 0 0 0 0 0 12 0.0008 0 
1890 2 0.0117878 -0.0609356 0.00111144 0 0 0 0.00109128 3.63524e-12 0.00292752 -1.49749e-19 0 3.02142e-19 0 0 0 0 0 0 0 0 0 0 0 0 0 0 0 0 33 0.0008 0 
2966 5 0.0139509 -0.0608932 0.000769443 0 0 0 0.0190034 0.000871533 -0.00626148 0 -1.05196e-05 0 0 0 0 0 0 0 0 0 0 0 0 0 0 0 0 0 16 0.0008 0 
604 2 0.0158 -0.0609356 0.000780477 0 0 0 0.0043375 3.63802e-12 0.00633415 -5.13486e-19 -1.81096e-17 5.99015e-19 0 0 0 0 0 0 0 0 0 0 0 0 0 0 0 0 14 0.0008 0 
1937 15 0.0175143 -0.0609356 0.000721821 0 0 0 -0.00267911 -2.64903e-12 -0.0127818 2.09832e-19 5.2516e-20 1.20861e-18 0 0 0 0 0 0 0 0 0 0 0 0 0 0 0 0 25 0.0008 0 
280 2 0.00286429 -0.0609356 0.00180288 0 0 0 -0.000504068 3.07559e-07 -0.000640325 -1.0632e-10 -1.16874e-08 7.61223e-10 0 0 0 0 0 0 0 0 0 0 0 0 0 0 0 0 36 0.0008 0 
317 1 0.00444865 -0.0609356 0.00218559 0 0 0 0.0012598 -5.54946e-12 0.00290399 1.51076e-19 0 7.36342e-20 0 0 0 0 0 0 0 0 0 0 0 0 0 0 0 0 17 0.0008 0 
2069 4 0.00605037 -0.0609356 0.00210968 0 0 0 0.000975707 -7.17243e-07 0.000345743 5.09515e-11 1.89119e-08 -1.7121e-10 0 0 0 0 0 0 0 0 0 0 0 0 0 0 0 0 53 0.0008 0 
154 3 0.00764799 -0.0609356 0.00250869 0 0 0 -0.00126127 0.000653311 -0.00376667 2.69878e-06 -2.17611e-06 2.56009e-06 0 0 1 0 0 1 0 0 0 0 0 0 0 0 0 0 57 0.0008 0 
4532 9 0.0105847 -0.0609356 0.00217019 0 0 0 0.000746768 -9.7017e-07 0.00157316 -2.01262e-13 -6.38585e-10 -4.2846e-13 0 0 0 0 0 0 0 0 0 0 0 0 0 0 0 0 14 0.0008 0 
6574 6 0.0131258 -0.0609356 0.00241863 0 0 0 -0.00595006 -0.000589092 -0.00097356 -5.86385e-07 -5.67068e-06 3.95011e-09 0 0 0 0 0 0 0 0 0 0 0 0 0 0 0 0 29 0.0008 0 
1039 2 0.0147336 -0.0609006 0.00239959 0 0 0 -0.000763911 -0.0491517 -0.00275476 0 -1.05196e-05 0 0 0 0 0 0 0 0 0 0 0 0 0 0 0 0 0 26 0.0008 0 
9120 7 0.0167505 -0.0609356 0.00214997 0 0 0 0.0101413 2.02389e-12 -0.00394251 -1.19807e-18 0 6.04273e-19 0 0 0 0 0 0 0 0 0 0 0 0 0 0 0 0 3 0.0008 0 
510 4 0.0185701 -0.0609356 0.00194723 0 0 0 0.0177202 -1.35999e-12 -0.025573 -2.39618e-18 2.93073e-19 1.77932e-18 0 0 0 0 0 0 0 0 0 0 0 0 0 0 0 0 19 0.0008 0 
1972 6 0.000800015 -0.0609356 0.00262953 0 0 0 -0.0005889 -0.000166482 -0.000638342 -6.52063e-06 2.93459e-07 -1.40293e-06 1 0 0 0 0 2 0 0 0 0 0 0 0 0 0 0 55 0.0008 0 
1894 5 0.00225956 -0.0609356 0.00328446 0 0 0 -0.00219276 0.000332769 0.00021748 -2.90584e-06 4.37612e-06 9.31413e-07 0 0 0 0 2 1 0 0 0 0 0 0 0 0 0 0 73 0.0008 0 
531 10 0.00532004 -0.0609355 0.00353399 0 0 0 -0.00196833 -0.000542613 0.000660166 1.61645e-06 -5.79176e-06 3.57817e-06 0 0 0 0 0 0 0 0 0 2 0 0 0 0 0 0 81 0.0008 0 
18 2 0.00924784 -0.0609356 0.0030779 0 0 0 0.000789658 -1.30032e-09 0.00132635 -2.87155e-16 -1.91729e-12 -4.82303e-16 0 0 0 0 0 0 0 0 0 0 0 0 0 0 0 0 28 0.0008 0 
9210 2 0.0117418 -0.0609356 0.00327811 0 0 0 0.00209247 -1.64955e-06 -0.000300079 2.63764e-09 -4.45104e-07 5.61165e-09 0 0 0 0 0 0 0 0 0 0 0 0 0 0 0 0 2 0.0008 0 
733 3 0.000803202 -0.0609356 0.00422953 0 0 0 0.000264613 -0.000177399 -0.000581535 1.10055e-07 -8.08438e-07 -3.46972e-06 0 0 1 0 0 1 0 0 0 0 0 0 0 0 0 0 72 0.0008 0 
1705 8 0.00375333 -0.0609356 0.00385669 0 0 0 -0.00227962 0.000218927 -0.000293497 2.15057e-07 -4.71446e-06 3.38277e-06 0 0 0 0 1 0 0 0 0 1 0 0 0 0 0 0 79 0.0008 0 
3087 1 0.00687502 -0.0609357 0.00390918 0 0 0 -0.00103779 -0.000805337 -0.00304717 3.58272e-06 7.19322e-06 8.71208e-06 1 0 1 0 0 0 0 0 0 1 0 0 0 0 0 0 56 0.0008 0 
4248 10 0.00838718 -0.0609356 0.0044309 0 0 0 -0.00236684 -1.57145e-06 0.00131197 4.42632e-06 2.56426e-06 4.95431e-06 1 0 0 0 0 0 0 0 0 1 0 0 0 0 0 0 36 0.0008 0 
8439 3 0.0135558 -0.0609356 0.00396539 0 0 0 -0.00761443 -8.54214e-06 0.000530173 1.76027e-11 1.23834e-07 6.8803e-12 0 0 0 0 0 0 0 0 0 0 0 0 0 0 0 0 3 0.0008 0 
5191 1 0.0153432 -0.0609356 0.00392469 0 0 0 0.00292813 -7.00948e-06 -0.00405962 -7.64724e-12 -1.44067e-07 1.10073e-11 0 0 0 0 0 0 0 0 0 0 0 0 0 0 0 0 23 0.0008 0 
5729 3 0.0169293 -0.0609356 0.00416276 0 0 0 0.00178127 2.57027e-06 0.0186039 -1.7682e-12 -6.01692e-08 1.37669e-11 0 0 0 0 0 0 0 0 0 0 0 0 0 0 0 0 9 0.0008 0 
210 4 0.00228177 -0.0609356 0.0048842 0 0 0 0.00212242 -3.67929e-05 -0.000247484 -1.89373e-06 -1.53748e-07 2.16529e-06 0 0 0 0 1 0 0 0 0 0 0 0 0 0 0 0 68 0.0008 0 
2352 2 0.00405898 -0.0609356 0.00542743 0 0 0 0.00294046 3.61842e-06 -0.00100426 1.79382e-08 -4.97562e-09 -2.93306e-07 0 1 0 0 0 0 0 0 0 0 0 0 0 0 0 0 71 0.0008 0 
2116 2 0.00577152 -0.0609356 0.0050691 0 0 0 -0.000163758 1.39448e-05 -0.000238977 1.3756e-08 6.38224e-08 -2.9956e-07 0 1 0 0 0 0 0 0 0 0 0 0 0 0 0 0 74 0.0008 0 
12 4 0.0072266 -0.0609143 0.00576063 0 0 0 0.0117835 -0.00517596 -0.0276889 -7.25211e-19 -2.53692e-07 -1.35713e-06 0 0 0 0 0 0 0 0 0 0 0 0 0 0 0 0 4 0.0008 0 
1036 2 0.0103961 -0.0609357 0.00512514 0 0 0 -0.00858556 -0.000100023 -0.0252103 5.00653e-06 1.25304e-06 -1.35697e-07 0 1 0 0 0 0 0 0 0 0 0 0 0 0 0 0 5 0.0008 0 
5900 8 0.0119904 -0.0609356 0.00485911 0 0 0 -0.0012324 5.13858e-06 0.00115148 -1.94863e-09 3.79769e-07 -3.22817e-09 0 0 0 0 0 0 0 0 0 0 0 0 0 0 0 0 11 0.0008 0 
6493 9 0.0134699 -0.0609356 0.00556452 0 0 0 0.00383968 4.47078e-06 0.00242521 5.25168e-12 -1.07385e-07 -2.87078e-12 0 0 0 0 0 0 0 0 0 0 0 0 0 0 0 0 16 0.0008 0 
9907 4 0.0185697 -0.0609346 0.00558474 0 0 0 -0.112558 0.00263704 0.00347986 0 -1.05196e-05 0 0 0 0 0 0 0 0 0 0 0 0 0 0 0 0 0 0 0.0008 0 
2641 8 0.000807796 -0.0609015 0.00582898 0 0 0 0.00113313 -9.41518e-05 -0.00124051 -9.14306e-08 3.02435e-06 -9.68901e-09 0 0 1 0 0 0 0 1 0 0 0 0 0 0 0 0 67 0.0008 0 
3865 4 0.00226776 -0.0607805 0.00647651 0 0 0 -0.000141109 -7.49537e-05 -0.000459804 9.68432e-08 2.79575e-07 1.20676e-06 0 0 0 1 0 0 0 0 0 0 0 0 0 0 0 0 53 0.0008 0 
1045 8 0.0056882 -0.060747 0.00665571 0 0 0 0.0121742 6.67648e-05 0.000375841 2.09874e-08 -1.69976e-08 -5.72381e-07 0 1 0 0 0 0 0 1 0 0 0 0 0 0 0 0 25 0.0008 0 
6544 1 0.00900139 -0.0608869 0.00590719 0 0 0 0.00511531 -0.000116408 -0.00100972 1.98591e-06 2.76551e-06 6.36005e-06 0 1 0 0 0 0 0 0 0 1 0 0 0 0 0 0 15 0.0008 0 
833 7 0.0151003 -0.0609014 0.00581689 0 0 0 0.00232398 -0.00101173 0.0275209 0 -1.05196e-05 0 0 0 0 0 0 0 0 0 0 0 0 0 0 0 0 0 23 0.0008 0 
5113 5 0.000800136 -0.0606075 0.00740143 0 0 0 -2.1811e-05 -0.000114032 -0.00078336 -1.08421e-07 1.12026e-06 8.25272e-06 0 0 0 0 1 0 0 1 0 0 0 0 0 0 0 0 41 0.0008 0 
3869 8 0.00385122 -0.0606838 0.00699372 0 0 0 0.00109829 -0.000226468 -0.00120282 -1.13267e-07 -5.15628e-08 -3.01527e-07 0 1 0 0 0 0 0 0 0 0 0 0 0 0 0 0 48 0.0008 0 
9650 1 0.00859109 -0.0606027 0.00742711 0 0 0 -0.0127064 -0.00096973 -0.00574741 -5.86881e-06 8.29131e-07 9.72662e-06 0 0 0 0 0 0 0 0 0 0 0 0 0 0 0 0 0 0.0008 0 
9818 2 0.0113035 -0.0604892 0.00787451 0 0 0 -0.12566 -0.00619054 -0.0734213 0 -1.05196e-05 0 0 0 0 0 0 0 0 0 0 0 0 0 0 0 0 0 0 0.0008 0 
7315 2 0.0129796 -0.0604146 0.00774394 0 0 0 -0.0864281 0.0365618 -0.0993801 0 -1.05196e-05 0 0 0 0 0 0 0 0 0 0 0 0 0 0 0 0 0 1 0.0008 0 
1165 1 0.00226061 -0.0604865 0.00804917 0 0 0 -0.000304268 -9.64298e-05 -0.000545157 -1.54273e-07 1.73621e-07 6.81819e-07 2 0 0 1 0 0 0 0 0 0 0 0 0 0 0 0 67 0.0008 0 
9441 6 0.00376791 -0.0603879 0.00857659 0 0 0 0.0043516 -0.00247675 -0.0131165 4.09165e-07 -3.88396e-07 -7.41916e-07 1 0 0 0 0 0 0 0 0 0 0 0 0 0 0 0 5 0.0008 0 
6076 6 0.00531767 -0.060461 0.00818569 0 0 0 0.00768576 -0.000117766 -0.00070641 -5.86379e-09 -3.49402e-07 -8.4278e-07 0 0 0 0 0 0 0 1 0 0 0 0 0 0 0 0 14 0.0008 0 
3877 5 0.00735673 -0.0603844 0.00859554 0 0 0 -0.111103 -0.0018898 -0.0101143 5.13465e-06 -2.95346e-07 -1.42973e-06 0 0 0 0 0 0 0 0 0 0 0 0 0 0 0 0 6 0.0008 0 
4459 4 0.0097996 -0.0604093 0.00846028 0 0 0 -0.0743286 0.0106731 0.0602676 0 -1.05196e-05 0 0 0 0 0 0 0 0 0 0 0 0 0 0 0 0 0 3 0.0008 0 
3561 10 0.0184684 -0.0603614 0.00871841 0 0 0 0.0104858 -0.0117205 -0.0626992 -2.24482e-18 -2.53692e-07 -1.35713e-06 0 0 0 0 0 0 0 0 0 0 0 0 0 0 0 0 13 0.0008 0 
4325 3 0.000809218 -0.0603136 0.00897397 0 0 0 0.000935969 0.000354294 -0.000239086 -4.56298e-08 -7.0773e-06 4.11161e-06 0 0 1 0 1 0 0 0 0 0 0 0 0 0 0 0 29 0.0008 0 
2858 2 0.00228484 -0.0601925 0.0096217 0 0 0 -9.83433e-05 -7.54811e-05 -0.000666806 3.35541e-08 2.84244e-07 3.27405e-07 1 0 0 0 0 0 0 0 0 0 0 0 0 0 0 0 26 0.0008 0 
8682 5 0.0086785 -0.0601986 0.00958891 0 0 0 -0.112574 0.00754469 0.0421729 3.8152e-06 -1.75771e-06 -4.45789e-06 0 0 0 0 0 0 0 0 0 0 0 0 0 0 0 0 0 0.0008 0 
5875 2 0.000803072 -0.0600193 0.0105466 0 0 0 -0.000170448 -0.000116992 0.000999755 2.34549e-08 -1.05961e-05 -9.27341e-07 0 1 0 0 0 0 0 0 0 0 0 0 0 0 0 0 16 0.0008 0 
8267 8 0.00381671 -0.060094 0.0101489 0 0 0 0.00273231 -0.00241902 -0.0128794 2.7104e-11 2.50334e-07 -1.45429e-06 0 0 0 0 0 0 0 0 0 0 0 0 0 0 0 0 4 0.0008 0 
4050 3 0.00230966 -0.0598985 0.0111944 0 0 0 -0.000621059 -0.000146261 -0.000637725 5.35171e-11 -5.20729e-07 -1.30039e-06 0 0 0 0 0 0 0 0 0 0 0 0 0 0 0 0 13 0.0008 0 
3081 3 0.00768836 -0.0587565 0.0166824 0 0 0 0.0152036 0.0376878 -0.181884 0 -1.05196e-05 0 0 0 0 0 0 0 0 0 0 0 0 0 0 0 0 0 36 0.0008 0 
11454 6 0.0165264 -0.0534801 0.0243612 0 0 0 -3.09021e-13 2.10203 4.68765 0 -1.05196e-05 0 0 0 0 0 0 0 0 0 0 0 0 0 0 0 0 0 0 0.0008 0 
11317 4 0.00466851 -0.0435213 0.0261033 0 0 0 0.117388 -9.16767 21.6131 0 -1.05196e-05 0 0 0 0 0 0 0 0 0 0 0 0 0 0 0 0 0 0 0.0008 0 
11514 9 0.0178391 -0.0512087 0.0293177 0 0 0 5.70518 6.16442 11.2157 0.0199455 0.0533305 -0.0367421 0 0 0 0 0 0 0 0 0 0 0 0 0 0 0 0 0 0.0008 0 
11584 6 0.00803784 -0.0501308 0.0307305 0 0 0 8.21094 18.3427 26.2468 0 -1.05196e-05 0 0 0 0 0 0 0 0 0 0 0 0 0 0 0 0 0 0 0.0008 0 
10479 4 0.0075821 -0.03755 0.0475787 0 0 0 0.253761 -0.533004 -0.367543 0 -1.05196e-05 0 0 0 0 0 0 0 0 0 0 0 0 0 0 0 0 0 0 0.0008 0 
10425 1 0.00165943 -0.0365193 0.0484342 0 0 0 -0.198153 -0.586183 -0.482427 0 -1.05196e-05 0 0 0 0 0 0 0 0 0 0 0 0 0 0 0 0 0 0 0.0008 0 
11492 5 0.00392376 -0.0167153 0.049651 0 0 0 0.69199 1.98211 0.297245 0 -1.05196e-05 0 0 0 0 0 0 0 0 0 0 0 0 0 0 0 0 0 0 0.0008 0 
4291 1 0.00282413 -0.0166166 0.0526069 0 0 0 6.63466 20.0329 -1.41321 0 -1.05196e-05 0 0 0 0 0 0 0 0 0 0 0 0 0 0 0 0 0 17 0.0008 0 
1899 1 0.00645963 -0.00622083 0.0535197 0 0 0 1.43122 -8.34129 1.90238 0 -1.05196e-05 0 0 0 0 0 0 0 0 0 0 0 0 0 0 0 0 0 11 0.0008 0 
7554 5 0.00318169 -0.0191959 0.0554641 0 0 0 4.4859 25.4457 12.4121 0 -1.05196e-05 0 0 0 0 0 0 0 0 0 0 0 0 0 0 0 0 0 12 0.0008 0 
10837 5 0.00758964 -0.0135714 0.0557779 0 0 0 2.98498 -0.862846 -3.59483 0 -1.05196e-05 0 0 0 0 0 0 0 0 0 0 0 0 0 0 0 0 0 1 0.0008 0 
11509 1 0.00819837 -0.0011587 0.0578581 0 0 0 0.509216 6.24181 -0.579464 0 -1.05196e-05 0 0 0 0 0 0 0 0 0 0 0 0 0 0 0 0 0 0 0.0008 0 
8846 2 0.0169611 -0.00360103 0.0606382 0 0 0 -0.0296997 -0.173653 -0.0996682 0 -1.05196e-05 0 0 0 0 0 0 0 0 0 0 0 0 0 0 0 0 0 6 0.0008 0 
1798 10 0.0108736 0.00112657 -0.0607512 0 0 0 0.00417177 -0.372707 -0.0410075 0 -1.05196e-05 0 0 0 0 0 0 0 0 0 0 0 0 0 0 0 0 0 23 0.0008 0 
818 5 0.0131722 0.0167765 -0.0582214 0 0 0 0.00134618 -0.0683506 -0.0514367 0 -1.05196e-05 0 0 0 0 0 0 0 0 0 0 0 0 0 0 0 0 0 25 0.0008 0 
11614 3 0.00174123 0.0052002 -0.0510068 0 0 0 0.405597 0.0310642 -0.126085 0.128546 0.0562803 -0.0310219 0 0 0 0 0 0 0 0 0 0 0 0 0 0 0 0 0 0.0008 0 
11572 3 0.0113605 0.0241557 -0.050951 0 0 0 2.20472 -0.0610557 -6.93784 0 -1.05196e-05 0 0 0 0 0 0 0 0 0 0 0 0 0 0 0 0 0 0 0.0008 0 
11386 6 0.0144474 0.0291007 -0.0498767 0 0 0 0.549584 -1.44816 -3.46698 0 -1.05196e-05 0 0 0 0 0 0 0 0 0 0 0 0 0 0 0 0 0 0 0.0008 0 
7893 2 0.0144384 0.0339698 -0.0502152 0 0 0 -0.00011234 -0.212027 -0.160115 7.26744e-19 -4.785e-06 -3.61347e-06 0 0 0 0 0 0 0 0 0 0 0 0 0 0 0 0 14 0.0008 0 
6873 1 0.0127134 0.00406186 -0.0491238 0 0 0 1.84047 -13.7441 -9.89191 0 -1.05196e-05 0 0 0 0 0 0 0 0 0 0 0 0 0 0 0 0 0 6 0.0008 0 
11194 9 0.00974675 0.0235335 -0.0489324 0 0 0 -1.58321 0.13735 -3.99946 0 -1.05196e-05 0 0 0 0 0 0 0 0 0 0 0 0 0 0 0 0 0 1 0.0008 0 
11396 4 0.013522 0.0256458 -0.046469 0 0 0 -4.64091 -12.2007 -15.7071 0 -1.05196e-05 0 0 0 0 0 0 0 0 0 0 0 0 0 0 0 0 0 0 0.0008 0 
4375 7 0.00750593 0.0271438 -0.0464592 0 0 0 1.27207 -0.206876 -3.30744 0 -1.05196e-05 0 0 0 0 0 0 0 0 0 0 0 0 0 0 0 0 0 1 0.0008 0 
8885 1 0.0097834 0.0421804 -0.0363851 0 0 0 0.579874 -0.632531 -1.64417 0 -1.05196e-05 0 0 0 0 0 0 0 0 0 0 0 0 0 0 0 0 0 6 0.0008 0 
2321 7 0.0103082 0.0510908 -0.0355 0 0 0 7.12543e-303 1.88361e-20 -1.1814e-12 -9.23109e-308 0 -2.22045e-16 0 0 0 0 0 0 0 0 0 0 0 0 0 0 0 0 0 0.0008 0 
283 5 0.0079295 0.0522229 -0.0355 0 0 0 -1.36524e-302 -8.49611e-20 2.36057e-12 -9.51499e-308 0 2.22045e-16 0 0 0 0 0 0 0 0 0 0 0 0 0 0 0 0 0 0.0008 0 
478 2 0.00645355 0.0529587 -0.0355 0 0 0 -7.35024e-303 7.54069e-20 3.53499e-12 -9.31231e-308 8.47033e-22 -2.22045e-16 0 0 0 0 0 0 0 0 0 0 0 0 0 0 0 0 0 0.0008 0 
7581 4 0.0102131 0.0535057 -0.0355 0 0 0 -2.56767e-17 -1.04045e-16 1.7687e-12 2.1684e-19 -4.33681e-19 0 0 0 0 1 0 0 0 0 0 0 0 0 0 0 0 0 32 0.0008 0 
871 8 0.00608638 0.0559147 -0.0355 0 0 0 4.29875e-302 -1.8635e-20 -2.36058e-12 9.41049e-308 0 2.22045e-16 0 0 0 0 0 0 0 0 0 0 0 0 0 0 0 0 1 0.0008 0 
5520 7 0.0096064 0.0549673 -0.0355 0 0 0 2.57204e-17 9.78505e-17 1.7687e-12 0 -4.33681e-19 -2.22045e-16 0 0 0 1 0 0 0 0 0 0 0 0 0 0 0 0 28 0.0008 0 
9691 4 0.0139212 0.0551119 -0.0355 0 0 0 -7.41471e-189 -5.65942e-20 2.36061e-12 2.07615e-189 8.47033e-22 2.22045e-16 0 0 0 0 0 0 0 0 0 0 0 0 0 0 0 0 0 0.0008 0 
6540 8 0.0080383 0.0564616 -0.0355001 0 0 0 -1.88538e-17 8.69738e-17 -5.89545e-13 0 0 0 0 0 0 0 0 0 0 1 0 0 0 0 0 0 0 0 41 0.0008 0 
2565 7 0.00831901 0.0580136 -0.0354999 0 0 0 1.98721e-17 -9.52736e-17 -5.89494e-13 0 0 0 0 0 0 0 0 0 0 1 0 0 0 0 0 0 0 0 41 0.0008 0 
10198 9 0.00996338 0.0577269 -0.0354996 0 0 0 5.3152e-17 2.07361e-17 -1.7723e-12 -1.73472e-18 0 0 0 0 0 0 0 0 0 0 1 0 0 0 0 0 0 0 15 0.0008 0 
5323 6 0.0115252 0.0578278 -0.0355004 0 0 0 -6.53229e-17 -2.03193e-17 -1.77144e-12 8.67362e-19 1.6263e-19 0 0 0 0 0 0 0 0 0 1 0 0 0 0 0 0 0 25 0.0008 0 
1583 3 0.0133936 0.0576786 -0.0355 0 0 0 -2.2172e-80 -2.77481e-20 2.16382e-15 2.32933e-81 0 0 0 0 0 0 0 0 0 0 0 0 0 0 0 0 0 0 7 0.0008 0 
8195 2 0.015332 0.0581076 -0.0355 0 0 0 3.69319e-302 -7.52966e-20 4.72345e-12 -9.43534e-308 0 -2.22045e-16 0 0 0 0 0 0 0 0 0 0 0 0 0 0 0 0 0 0.0008 0 
7394 6 0.00896438 0.0602764 -0.0355 0 0 0 2.72769e-80 -2.82246e-20 4.72342e-12 -2.33314e-81 8.47033e-22 2.22045e-16 0 0 0 0 0 0 0 0 0 0 0 0 0 0 0 0 0 0.0008 0 
10333 5 0.0171215 0.0610103 -0.0355 0 0 0 4.38193e-302 -8.49143e-20 3.53498e-12 9.18438e-308 -8.47033e-22 -2.22045e-16 0 0 0 0 0 0 0 0 0 0 0 0 0 0 0 0 0 0.0008 0 
3089 3 0.0107012 0.0617454 -0.0355 0 0 0 2.03771e-302 9.31921e-21 -4.72348e-12 9.49996e-308 0 -2.22045e-16 0 0 0 0 0 0 0 0 0 0 0 0 0 0 0 0 0 0.0008 0 
3064 5 0.00572085 0.0664199 -0.0355 0 0 0 3.62096e-302 6.60917e-20 1.18143e-12 9.43406e-308 0 -2.22045e-16 0 0 0 0 0 0 0 0 0 0 0 0 0 0 0 0 0 0.0008 0 
7839 6 0.0122571 0.0669977 -0.0355 0 0 0 -7.63825e-303 6.58611e-20 1.18148e-12 -9.26797e-308 0 2.22045e-16 0 0 0 0 0 0 0 0 0 0 0 0 0 0 0 0 0 0.0008 0 
5230 4 0.00286291 0.0725754 -0.0355 0 0 0 -3.11414e-302 -9.64991e-21 2.36059e-12 9.17181e-308 0 -2.22045e-16 0 0 0 0 0 0 0 0 0 0 0 0 0 0 0 0 0 0.0008 0 
2130 11 0.0169238 0.0756724 -0.0354985 0 0 0 2.31554e-16 8.33576e-17 3.53747e-12 1.38778e-17 1.30104e-18 0 0 0 0 0 0 0 0 0 0 0 1 0 0 0 0 0 56 0.0008 0 
4708 6 0.0184166 0.0757554 -0.0355015 0 0 0 -2.10489e-16 -8.22293e-17 3.53956e-12 -1.38778e-17 -8.67362e-19 0 0 0 0 0 0 0 0 0 0 0 1 0 0 0 0 0 59 0.0008 0 
1962 1 0.00586647 0.0767904 -0.0355 0 0 0 4.08288e-33 4.72695e-20 3.53506e-12 -3.27704e-34 0 2.22045e-16 0 0 0 0 0 0 0 0 0 0 0 0 0 0 0 0 3 0.0008 0 
5274 5 0.0152254 0.0938764 -0.0355 0 0 0 2.02713e-46 -5.65925e-20 4.72347e-12 -1.12659e-46 0 -2.22045e-16 0 0 0 0 0 0 0 0 0 0 0 0 0 0 0 0 0 0.0008 0 
11570 8 0.00968402 0.015042 -0.034409 0 0 0 1.51849e-13 -3.32335 -4.92808 0 -1.05196e-05 0 0 0 0 0 0 0 0 0 0 0 0 0 0 0 0 0 0 0.0008 0 
11568 2 0.00997697 0.0607778 -0.0339572 0 0 0 1.04078 11.1985 3.262 0 -1.05196e-05 0 0 0 0 0 0 0 0 0 0 0 0 0 0 0 0 0 0 0.0008 0 
6665 3 0.0072746 0.0624665 -0.0335443 0 0 0 0.811609 -0.00895372 -1.5476 0 -1.05196e-05 0 0 0 0 0 0 0 0 0 0 0 0 0 0 0 0 0 21 0.0008 0 
5832 8 0.0158128 0.0683197 -0.0334406 0 0 0 -1.63218 -4.03096 -1.72189 0 -1.05196e-05 0 0 0 0 0 0 0 0 0 0 0 0 0 0 0 0 0 24 0.0008 0 
5743 4 0.00196457 0.0753852 -0.0337096 0 0 0 0.354486 -0.456731 0.111182 0 -1.05196e-05 0 0 0 0 0 0 0 0 0 0 0 0 0 0 0 0 0 19 0.0008 0 
9573 1 0.00589537 0.0810412 -0.0338305 0 0 0 0.464224 -0.552313 0.0570866 0 -1.05196e-05 0 0 0 0 0 0 0 0 0 0 0 0 0 0 0 0 0 1 0.0008 0 
6214 1 0.00241743 0.0820438 -0.0340695 0 0 0 -0.496641 1.74573 -2.33989 0 -1.05196e-05 0 0 0 0 0 0 0 0 0 0 0 0 0 0 0 0 0 8 0.0008 0 
601 6 0.0116107 0.0831033 -0.0338738 0 0 0 -1.17944 1.23562 1.47094 0 -1.05196e-05 0 0 0 0 0 0 0 0 0 0 0 0 0 0 0 0 0 17 0.0008 0 
7841 3 0.00206195 0.08643 -0.0339363 0 0 0 1.06746 -1.41219 2.0295 0 -1.05196e-05 0 0 0 0 0 0 0 0 0 0 0 0 0 0 0 0 0 24 0.0008 0 
7531 3 0.00244264 0.0893214 -0.0337548 0 0 0 -0.40545 2.33789 -0.225961 0 -1.05196e-05 0 0 0 0 0 0 0 0 0 0 0 0 0 0 0 0 0 23 0.0008 0 
5679 7 0.0105322 0.0894566 -0.0336921 0 0 0 1.05472 4.20547 -5.97819 0 -1.05196e-05 0 0 0 0 0 0 0 0 0 0 0 0 0 0 0 0 0 18 0.0008 0 
11575 2 0.0153362 0.0898823 -0.0341629 0 0 0 2.99243 -0.763248 0.0254517 0 -1.05196e-05 0 0 0 0 0 0 0 0 0 0 0 0 0 0 0 0 0 0 0.0008 0 
4090 2 0.00352502 0.0918261 -0.0336654 0 0 0 -1.10667 0.157025 -1.31758 0 -1.05196e-05 0 0 0 0 0 0 0 0 0 0 0 0 0 0 0 0 0 28 0.0008 0 
11377 4 0.0084107 0.0950289 -0.0340637 0 0 0 -0.667929 2.53453 -0.644776 0 -1.05196e-05 0 0 0 0 0 0 0 0 0 0 0 0 0 0 0 0 0 0 0.0008 0 
9726 2 0.0130336 0.0964247 -0.0341613 0 0 0 -1.04572 0.126945 0.0750546 0 -1.05196e-05 0 0 0 0 0 0 0 0 0 0 0 0 0 0 0 0 0 3 0.0008 0 
923 2 0.00336372 0.0975246 -0.0340857 0 0 0 0.138876 0.0957936 -0.169926 0 -1.05196e-05 0 0 0 0 0 0 0 0 0 0 0 0 0 0 0 0 0 28 0.0008 0 
11471 3 0.00710862 0.0977107 -0.034005 0 0 0 -0.214485 0.356231 0.297014 0 -1.05196e-05 0 0 0 0 0 0 0 0 0 0 0 0 0 0 0 0 0 0 0.0008 0 