ITEM: TIMESTEP
6300000
ITEM: NUMBER OF ATOMS
11542
ITEM: BOX BOUNDS ff ff ff
-0.01 0.45
-0.15 0.15
-0.08 0.1
ITEM: ATOMS id type x y z ix iy iz vx vy vz fx fy fz c_cc_1 c_cc_2 c_cc_3 c_cc_4 c_cc_5 c_cc_6 c_cc_7 c_cc_8 c_cc_9 c_cc_10 c_cc_11 c_cc_12 c_cc_13 c_cc_14 c_cc_15 c_cc_16 f_fppacc radius c_cc_17 
4413 6 0.00280377 -0.00485478 -0.0604935 0 0 0 -0.398575 -0.709044 0.116021 0 -1.05196e-05 0 0 0 0 0 0 0 0 0 0 0 0 0 0 0 0 0 22 0.0008 0 
8040 3 0.00824589 -0.0124843 -0.0594528 0 0 0 -0.00148816 -0.0502381 -0.0598202 0 -1.05196e-05 0 0 0 0 0 0 0 0 0 0 0 0 0 0 0 0 0 11 0.0008 0 
187 3 0.013956 -0.0207749 -0.0549865 0 0 0 -6.74187 -58.0525 20.444 0 -1.05196e-05 0 0 0 0 0 0 0 0 0 0 0 0 0 0 0 0 0 27 0.0008 0 
6272 1 0.0187437 -0.0343579 -0.0503537 0 0 0 0.433299 0.0875 -0.0813722 0 -1.05196e-05 0 0 0 0 0 0 0 0 0 0 0 0 0 0 0 0 0 13 0.0008 0 
9622 5 0.0136165 -0.0224937 -0.0504687 0 0 0 1.18816 -2.42984 1.86906 0 -1.05196e-05 0 0 0 0 0 0 0 0 0 0 0 0 0 0 0 0 0 18 0.0008 0 
4812 1 0.00713076 -0.00788964 -0.0489875 0 0 0 0.538232 -3.82558 -2.03602 0 -1.05196e-05 0 0 0 0 0 0 0 0 0 0 0 0 0 0 0 0 0 29 0.0008 0 
8314 4 0.00354268 -0.0422885 -0.0440653 0 0 0 0.146786 0.0385925 -0.0515529 -0.000622513 0.000812749 0.00128154 0 0 0 0 0 0 0 0 0 0 0 0 0 0 0 0 16 0.0008 0 
11529 2 0.00138132 -0.0416231 -0.044757 0 0 0 -0.0248789 -0.175994 0.196552 0 -1.05196e-05 0 0 0 0 0 0 0 0 0 0 0 0 0 0 0 0 0 0 0.0008 0 
8825 2 0.0179102 -0.0040366 -0.0412923 0 0 0 0.315707 -1.75965 -0.357939 0 -1.05196e-05 0 0 0 0 0 0 0 0 0 0 0 0 0 0 0 0 0 19 0.0008 0 
11852 5 0.00329323 -0.0130807 -0.0392797 0 0 0 0.0744509 -1.31296 0.0950448 0 -1.05196e-05 0 0 0 0 0 0 0 0 0 0 0 0 0 0 0 0 0 0 0.0008 0 
12138 7 0.00583218 -0.0448785 -0.0376592 0 0 0 -0.0930496 -12.8902 16.9642 0 -1.05196e-05 0 0 0 0 0 0 0 0 0 0 0 0 0 0 0 0 0 0 0.0008 0 
12118 1 0.0122524 -0.0254622 -0.0347789 0 0 0 0.959418 -1.85252 1.99604 0 -1.05196e-05 0 0 0 0 0 0 0 0 0 0 0 0 0 0 0 0 0 0 0.0008 0 
6570 6 0.00573691 -0.0488018 -0.0331969 0 0 0 -5.38986 -10.3893 13.6641 0.039372 0.066534 0.0421378 0 0 0 0 0 0 0 0 0 0 0 0 0 0 0 0 25 0.0008 0 
10907 2 0.0143686 -0.0568803 -0.0217539 0 0 0 0.0186137 -0.271088 0.595557 0 -1.05196e-05 0 0 0 0 0 0 0 0 0 0 0 0 0 0 0 0 0 0 0.0008 0 
11914 1 0.00205789 -0.0541285 -0.0212952 0 0 0 0.194799 -0.601355 1.66219 0 -1.05196e-05 0 0 0 0 0 0 0 0 0 0 0 0 0 0 0 0 0 0 0.0008 0 
12077 7 0.0131766 -0.0552959 -0.0198592 0 0 0 -4.25866e-13 -2.72174 8.31631 0 -1.05196e-05 0 0 0 0 0 0 0 0 0 0 0 0 0 0 0 0 0 0 0.0008 0 
5611 3 0.00422253 -0.0579204 -0.0191576 0 0 0 0.0829 -0.156923 0.426619 0 -1.05196e-05 0 0 0 0 0 0 0 0 0 0 0 0 0 0 0 0 0 14 0.0008 0 
10595 5 0.00224159 -0.0596233 -0.011883 0 0 0 -0.0731483 -0.0675854 0.0954917 0 -1.05196e-05 0 0 0 0 0 0 0 0 0 0 0 0 0 0 0 0 0 0 0.0008 0 
2611 5 0.0032142 -0.0600111 -0.0102752 0 0 0 -0.04726 -0.0206025 0.0373754 0 -1.05196e-05 0 0 0 0 0 0 0 0 0 0 0 0 0 0 0 0 0 17 0.0008 0 
11531 3 0.00699667 -0.0602664 -0.00922659 0 0 0 -0.0998992 -0.0367648 0.197514 -4.05747e-09 -1.8226e-06 1.06888e-06 0 0 0 0 0 0 0 0 0 0 0 0 0 0 0 0 0 0.0008 0 
8414 10 0.0138248 -0.0578308 -0.00933407 0 0 0 4.09394 -12.8038 34.0773 0 -1.05196e-05 0 0 0 0 0 0 0 0 0 0 0 0 0 0 0 0 0 23 0.0008 0 
8455 4 0.00202412 -0.0604726 -0.00812371 0 0 0 -0.0266988 0.00842222 -0.0450154 -5.45161e-11 -3.16595e-07 1.34517e-06 0 0 0 0 0 0 0 0 0 0 0 0 0 0 0 0 5 0.0008 0 
10496 1 0.00364551 -0.0603593 -0.00846768 0 0 0 0.0321565 -0.0200268 0.0724864 -9.18853e-06 -5.01607e-06 -1.72956e-06 1 0 0 0 0 0 0 0 0 0 0 0 0 0 0 0 1 0.0008 0 
7649 2 0.000816014 -0.0606699 -0.00706804 0 0 0 0.00276079 -2.82452e-05 8.01941e-05 -2.23894e-08 -1.04938e-07 1.87846e-07 0 0 0 0 0 0 0 0 0 0 0 0 0 0 0 0 4 0.0008 0 
10613 5 0.00514226 -0.0605101 -0.0079233 0 0 0 0.0355394 -0.0124237 0.0651688 9.19273e-07 2.44071e-06 1.44401e-06 1 0 0 0 0 0 0 0 0 0 0 0 0 0 0 0 1 0.0008 0 
5953 8 0.00692529 -0.0606858 -0.0069832 0 0 0 0.0767411 -0.00699664 0.0374282 -1.05023e-12 -2.83268e-07 1.35135e-06 0 0 0 0 0 0 0 0 0 0 0 0 0 0 0 0 11 0.0008 0 
12172 5 0.00573768 -0.0580361 -0.00734494 0 0 0 -28.6903 -4.26584 45.1778 0 -1.05196e-05 0 0 0 0 0 0 0 0 0 0 0 0 0 0 0 0 0 0 0.0008 0 
9977 6 0.0022235 -0.0608108 -0.00631447 0 0 0 0.00105631 -0.000436705 0.00255588 -1.9704e-10 -4.89691e-07 1.31346e-06 0 0 0 0 0 0 0 0 0 0 0 0 0 0 0 0 1 0.0008 0 
10360 1 0.00384642 -0.0607363 -0.00671298 0 0 0 0.000774025 -0.00201259 0.0107664 2.36381e-17 -2.53699e-07 1.35713e-06 0 0 0 0 0 0 0 0 0 0 0 0 0 0 0 0 3 0.0008 0 
1749 6 0.0113167 -0.060804 -0.00635083 0 0 0 -0.00436572 0.00969282 -0.0518519 6.24502e-19 -2.53692e-07 1.35713e-06 0 0 0 0 0 0 0 0 0 0 0 0 0 0 0 0 17 0.0008 0 
7937 2 0.000856245 -0.0609356 -0.00549082 0 0 0 -0.0015807 -8.0751e-06 0.000182958 5.65937e-09 3.40448e-07 3.64432e-07 0 0 0 0 0 0 0 0 0 0 0 0 0 0 0 0 7 0.0008 0 
9269 5 0.00401689 -0.0609356 -0.00513347 0 0 0 -0.00258526 3.95611e-11 0.0070901 -2.84496e-17 6.75316e-13 7.80991e-17 0 0 0 0 0 0 0 0 0 0 0 0 0 0 0 0 6 0.0008 0 
9279 2 0.00615339 -0.0609356 -0.00556427 0 0 0 0.0084812 0.000159928 0.0120188 9.96417e-09 -2.42721e-06 -2.70432e-08 0 0 0 0 0 0 0 0 0 0 0 0 0 0 0 0 1 0.0008 0 
8603 2 0.00821123 -0.0609356 -0.00505496 0 0 0 0.0006919 -8.76542e-13 0.00098457 7.55341e-20 0 1.51075e-19 0 0 0 0 0 0 0 0 0 0 0 0 0 0 0 0 0 0.0008 0 
700 8 0.00983019 -0.0609356 -0.00547683 0 0 0 0.0063153 -6.19399e-12 -0.00149223 -5.98947e-19 0 -1.51074e-19 0 0 0 0 0 0 0 0 0 0 0 0 0 0 0 0 3 0.0008 0 
5540 9 0.000814079 -0.0609356 -0.00389131 0 0 0 -0.0014131 -6.42309e-06 0.00021503 -3.92379e-11 2.1301e-07 7.41851e-11 0 0 0 0 0 0 0 0 0 0 0 0 0 0 0 0 15 0.0008 0 
894 6 0.00241774 -0.0609356 -0.00473095 0 0 0 -0.000524771 -6.11714e-06 0.00156758 -2.70603e-06 3.45417e-07 -7.06425e-06 0 0 0 0 0 1 0 0 0 0 0 0 0 0 0 0 13 0.0008 0 
11208 2 0.0053383 -0.0609356 -0.00418677 0 0 0 -0.00289269 -3.7429e-05 0.00713489 -2.37314e-08 1.74927e-06 4.06371e-08 0 0 0 0 0 0 0 0 0 0 0 0 0 0 0 0 1 0.0008 0 
3983 3 0.00943192 -0.0609356 -0.00386266 0 0 0 0.00965921 -3.4547e-12 0.00422454 -1.6455e-19 0 -7.8548e-20 0 0 0 0 0 0 0 0 0 0 0 0 0 0 0 0 2 0.0008 0 
11044 4 0.015489 -0.0609336 -0.00437909 0 0 0 0.0610675 -0.0017211 0.0236463 0 -1.05196e-05 0 0 0 0 0 0 0 0 0 0 0 0 0 0 0 0 0 0 0.0008 0 
9680 4 0.00229467 -0.0609355 -0.0031358 0 0 0 -0.00745562 0.00174812 -0.000309078 7.16679e-05 6.27867e-06 -3.54757e-05 0 0 0 1 0 1 0 0 0 0 0 0 0 0 0 0 5 0.0008 0 
1225 1 0.0038851 -0.0609356 -0.00351542 0 0 0 -0.00553755 2.78756e-06 0.00189941 -4.38395e-12 -2.84674e-08 1.51053e-12 0 0 0 0 0 0 0 0 0 0 0 0 0 0 0 0 112 0.0008 0 
4634 2 0.00680425 -0.0609356 -0.00354205 0 0 0 6.95956e-05 2.04772e-08 0.00246265 -2.17078e-13 4.08634e-08 -2.30019e-13 0 0 0 0 0 0 0 0 0 0 0 0 0 0 0 0 17 0.0008 0 
9160 14 0.0111484 -0.0609356 -0.00357831 0 0 0 0.01602 -0.000359351 0.000367299 -7.84015e-10 -2.09088e-06 1.37454e-11 0 0 0 0 0 0 0 0 0 0 0 0 0 0 0 0 8 0.0008 0 
3630 1 0.0130721 -0.0609356 -0.0031729 0 0 0 0.0186936 5.89113e-12 0.0201347 -4.46082e-19 0 -4.46082e-19 0 0 0 0 0 0 0 0 0 0 0 0 0 0 0 0 9 0.0008 0 
1200 7 0.000934093 -0.0609357 -0.00229511 0 0 0 -0.00288236 -0.00159015 0.000487804 -4.70903e-05 1.68087e-06 2.70184e-05 0 0 0 1 0 0 0 0 0 0 0 0 0 0 0 0 16 0.0008 0 
3512 5 0.00389677 -0.0609356 -0.00191517 0 0 0 -1.07874e-05 -2.04373e-06 0.00194355 -3.26854e-14 7.44712e-09 -1.06985e-12 0 0 0 0 0 0 0 0 0 0 0 0 0 0 0 0 29 0.0008 0 
6408 2 0.00535367 -0.0609356 -0.00258301 0 0 0 0.00360859 3.35566e-07 0.00862602 3.44358e-13 -1.00087e-08 8.35019e-13 0 0 0 0 0 0 0 0 0 0 0 0 0 0 0 0 7 0.0008 0 
6702 2 0.00681806 -0.0609356 -0.00193678 0 0 0 0.00663006 -7.92757e-08 0.00275192 -1.45149e-13 -1.93659e-09 -6.05572e-14 0 0 0 0 0 0 0 0 0 0 0 0 0 0 0 0 4 0.0008 0 
4185 5 0.00842825 -0.0609356 -0.00259014 0 0 0 0.0125952 -7.82587e-08 0.0038028 -2.75926e-13 -2.04372e-11 -8.33113e-14 0 0 0 0 0 0 0 0 0 0 0 0 0 0 0 0 24 0.0008 0 
7431 2 0.0116493 -0.0609356 -0.00205347 0 0 0 0.0145267 1.76393e-06 0.00332579 7.36614e-12 -5.47425e-08 1.66638e-12 0 0 0 0 0 0 0 0 0 0 0 0 0 0 0 0 1 0.0008 0 
1871 2 0.000802091 -0.0609356 -0.000696563 0 0 0 0.00061937 -2.69873e-08 0.000621039 -4.78422e-15 6.68228e-10 -4.79713e-15 0 0 0 0 0 0 0 0 0 0 0 0 0 0 0 0 23 0.0008 0 
414 7 0.0023433 -0.0609356 -0.00153098 0 0 0 -0.000527238 5.59012e-05 -0.00111029 2.25713e-11 1.79689e-07 1.84045e-10 0 0 0 0 0 0 0 0 0 0 0 0 0 0 0 0 11 0.0008 0 
553 2 0.00514337 -0.0609356 -0.000908981 0 0 0 0.00231049 2.47411e-09 -0.000397548 1.62413e-15 -4.04455e-11 -2.79438e-16 0 0 0 0 0 0 0 0 0 0 0 0 0 0 0 0 12 0.0008 0 
72 4 0.00812655 -0.0609356 -0.0010145 0 0 0 0.00459527 5.9546e-08 0.00390878 7.68062e-14 -1.661e-10 6.53346e-14 0 0 0 0 0 0 0 0 0 0 0 0 0 0 0 0 10 0.0008 0 
9639 4 0.0100926 -0.0609356 -0.00150705 0 0 0 0.00474503 7.34808e-13 0.00288359 5.98996e-19 0 2.99509e-19 0 0 0 0 0 0 0 0 0 0 0 0 0 0 0 0 3 0.0008 0 
1887 11 0.0130235 -0.0609356 -0.00113011 0 0 0 0.0178894 5.72999e-12 0.0206502 2.02416e-18 0 -2.39609e-18 0 0 0 0 0 0 0 0 0 0 0 0 0 0 0 0 13 0.0008 0 
690 7 0.00221403 -0.0609356 6.41644e-05 0 0 0 0.00100098 -7.31981e-05 -0.000481361 1.1782e-10 1.88204e-07 9.52317e-10 0 0 0 0 0 0 0 0 0 0 0 0 0 0 0 0 18 0.0008 0 
101 5 0.00382695 -0.0609356 2.10042e-05 0 0 0 -0.000891518 -5.06605e-12 -0.00398604 -5.19711e-20 0 -6.04275e-19 0 0 0 0 0 0 0 0 0 0 0 0 0 0 0 0 26 0.0008 0 
1002 3 0.00667052 -0.0609356 -0.00033164 0 0 0 0.00352227 2.74103e-06 0.00263648 5.78614e-11 -4.45823e-08 2.02057e-10 0 0 0 0 0 0 0 0 0 0 0 0 0 0 0 0 18 0.0008 0 
4095 1 0.00960874 -0.0609356 3.12162e-05 0 0 0 -0.00202694 4.92432e-12 0.00195469 -9.72865e-20 0 -3.02142e-19 0 0 0 0 0 0 0 0 0 0 0 0 0 0 0 0 15 0.0008 0 
3427 4 0.0114745 -0.0609356 -0.000459609 0 0 0 0.0180437 -4.55936e-07 0.00491652 -2.67899e-12 -5.11007e-09 5.41321e-13 0 0 0 0 0 0 0 0 0 0 0 0 0 0 0 0 10 0.0008 0 
206 1 0.000801349 -0.0609356 0.000904817 0 0 0 -0.000367757 -6.28029e-08 0.000880475 6.90253e-15 4.69783e-09 -1.65283e-14 0 0 0 0 0 0 0 0 0 0 0 0 0 0 0 0 43 0.0008 0 
585 3 0.0054206 -0.0609356 0.000667467 0 0 0 0.00109581 -2.96584e-06 9.28614e-05 4.49721e-10 4.57266e-08 -5.99233e-10 0 0 0 0 0 0 0 0 0 0 0 0 0 0 0 0 17 0.0008 0 
4165 3 0.00801028 -0.0609356 0.000581891 0 0 0 0.000563637 4.11967e-09 0.00342214 6.54696e-16 -3.16799e-11 3.97501e-15 0 0 0 0 0 0 0 0 0 0 0 0 0 0 0 0 8 0.0008 0 
1367 1 0.010888 -0.0609356 0.00102995 0 0 0 0.0044797 -0.000211408 -0.000246206 3.38545e-06 -7.39839e-07 -4.4956e-06 1 0 0 0 0 0 0 0 0 0 0 0 0 0 0 0 46 0.0008 0 
1366 5 0.0131394 -0.060929 0.00123746 0 0 0 -0.157793 -0.00385782 0.0393151 0 -1.05196e-05 0 0 0 0 0 0 0 0 0 0 0 0 0 0 0 0 0 7 0.0008 0 
1972 6 0.000812177 -0.0609356 0.00250498 0 0 0 -0.00203592 -6.63827e-07 0.000205524 3.84362e-13 1.14017e-08 -3.87969e-14 0 0 0 0 0 0 0 0 0 0 0 0 0 0 0 0 61 0.0008 0 
280 2 0.00221058 -0.0609356 0.00166428 0 0 0 -3.26029e-05 1.60316e-05 -0.000188779 8.55479e-10 -3.64552e-07 -1.63893e-10 0 0 0 0 0 0 0 0 0 0 0 0 0 0 0 0 40 0.0008 0 
317 1 0.00381442 -0.0609356 0.00163645 0 0 0 -0.00188306 -1.22113e-07 -0.00311056 -6.20801e-14 2.83011e-09 9.15517e-14 0 0 0 0 0 0 0 0 0 0 0 0 0 0 0 0 19 0.0008 0 
2069 4 0.0052871 -0.0609356 0.00226226 0 0 0 -0.00292144 -4.54448e-07 -0.000381911 1.77797e-13 -1.59561e-08 1.1627e-12 0 0 0 0 0 0 0 0 0 0 0 0 0 0 0 0 58 0.0008 0 
1470 6 0.00677276 -0.0609356 0.00161489 0 0 0 -0.00198929 -1.95864e-12 0.00272932 3.06221e-19 3.90191e-15 -3.06667e-19 0 0 0 0 0 0 0 0 0 0 0 0 0 0 0 0 34 0.0008 0 
4938 7 0.00914482 -0.0609356 0.00172974 0 0 0 0.000801574 -9.56977e-05 0.000113883 -9.48097e-07 -7.7678e-07 -1.69269e-06 0 0 0 0 0 0 2 0 0 0 0 0 0 0 0 0 50 0.0008 0 
7185 2 0.0104989 -0.0609356 0.00258171 0 0 0 0.0023742 0.000437894 -0.00157653 -2.32147e-06 2.29383e-06 1.04259e-06 1 1 0 0 0 0 1 0 0 0 0 0 0 0 0 0 17 0.0008 0 
4164 1 0.0159015 -0.0609356 0.00203141 0 0 0 0.0426035 -5.87089e-12 -0.0266361 4.79175e-18 -5.47183e-18 -4.81342e-18 0 0 0 0 0 0 0 0 0 0 0 0 0 0 0 0 15 0.0008 0 
1894 5 0.00225753 -0.0609356 0.00326363 0 0 0 0.00200499 1.95863e-05 -0.000222226 -5.56134e-08 2.84057e-07 -3.77751e-07 0 0 0 0 1 0 0 0 0 0 0 0 0 0 0 0 77 0.0008 0 
1705 8 0.00387792 -0.0609356 0.00323751 0 0 0 0.000538611 6.53569e-12 -0.00290653 5.56307e-20 -1.38913e-19 -3.02142e-19 0 0 0 0 0 0 0 0 0 0 0 0 0 0 0 0 81 0.0008 0 
1920 3 0.00794734 -0.0609356 0.00279072 0 0 0 0.00369348 6.22036e-05 0.00232639 -5.51944e-06 6.11132e-08 2.13621e-06 0 0 0 0 0 0 1 0 0 0 0 0 0 0 0 0 13 0.0008 0 
1118 3 0.0133886 -0.0609356 0.00322937 0 0 0 -0.00515116 6.2134e-12 -0.0224158 -5.98965e-19 0 2.39603e-18 0 0 0 0 0 0 0 0 0 0 0 0 0 0 0 0 22 0.0008 0 
10606 8 0.0180344 -0.0609356 0.0029356 0 0 0 -0.0185676 -3.4547e-12 -0.0193609 -6.34115e-19 0 -2.41708e-18 0 0 0 0 0 0 0 0 0 0 0 0 0 0 0 0 1 0.0008 0 
733 3 0.000800297 -0.0609356 0.00410529 0 0 0 4.19005e-05 -3.61252e-05 -0.000419262 -5.15463e-11 -9.66091e-08 -1.76047e-07 0 0 1 0 0 0 0 0 0 0 0 0 0 0 0 0 80 0.0008 0 
531 10 0.00545965 -0.0609356 0.00385294 0 0 0 -0.00281431 2.02041e-06 -0.000413219 1.93826e-11 -3.4537e-10 -4.88714e-10 0 0 0 0 0 0 0 0 0 0 0 0 0 0 0 0 85 0.0008 0 
154 3 0.00704008 -0.0609356 0.00410898 0 0 0 -0.0019389 -1.97633e-05 -0.0022399 5.00913e-08 -8.00081e-08 -3.7272e-07 0 0 1 0 0 0 0 0 0 0 0 0 0 0 0 0 61 0.0008 0 
18 2 0.00869272 -0.0609356 0.00429916 0 0 0 -0.000926447 -5.54272e-13 -0.0120519 4.12917e-21 0 1.19812e-18 0 0 0 0 0 0 0 0 0 0 0 0 0 0 0 0 28 0.0008 0 
4532 9 0.010719 -0.0609356 0.00416621 0 0 0 0.00100797 -0.000280182 -0.00129371 -9.81844e-07 -1.88004e-06 5.03533e-06 0 1 0 0 0 0 0 0 2 0 0 0 0 0 0 0 21 0.0008 0 
1890 2 0.0122493 -0.0609356 0.00463253 0 0 0 0.00203499 3.60108e-05 -0.00298869 2.14968e-07 -1.50238e-07 2.96962e-06 0 1 0 0 0 0 0 0 1 0 0 0 0 0 0 0 35 0.0008 0 
7843 6 0.0148535 -0.0609356 0.0040002 0 0 0 -0.0027094 -0.000185866 -0.0156051 -1.0797e-07 1.57286e-06 1.22813e-07 0 0 0 0 0 0 0 0 0 0 0 0 0 0 0 0 13 0.0008 0 
3491 3 0.0164218 -0.0609356 0.00367044 0 0 0 0.00110358 2.58247e-06 -0.000727094 8.01141e-13 -4.16753e-08 -5.25417e-13 0 0 0 0 0 0 0 0 0 0 0 0 0 0 0 0 11 0.0008 0 
2641 8 0.000800936 -0.0609246 0.00570524 0 0 0 0.000126681 -8.0842e-05 -0.000620174 1.98653e-10 -4.26021e-10 -8.17181e-07 0 0 1 0 0 0 0 0 0 0 0 0 0 0 0 0 76 0.0008 0 
210 4 0.00221717 -0.0609356 0.00486307 0 0 0 0.00256115 0.000114607 -0.00013763 5.78207e-08 2.48485e-07 9.1035e-08 0 0 0 0 1 0 0 0 0 0 0 0 0 0 0 0 72 0.0008 0 
2352 2 0.00383658 -0.0609356 0.00484304 0 0 0 -0.000951398 6.76834e-09 -0.00328969 -3.03692e-08 -1.71338e-11 -3.0678e-07 0 1 0 0 0 0 0 0 0 0 0 0 0 0 0 0 81 0.0008 0 
2116 2 0.00541502 -0.0609356 0.00545232 0 0 0 -0.00188778 -2.79431e-05 -0.000407708 -8.38182e-08 -1.0243e-07 -4.31264e-07 0 1 0 0 0 0 0 0 0 0 0 0 0 0 0 0 81 0.0008 0 
3087 1 0.00699469 -0.0609241 0.00570825 0 0 0 -0.00185952 -0.000201705 -0.00234164 -3.80815e-07 -1.318e-07 -2.90538e-07 1 0 1 0 0 0 0 0 0 0 0 0 0 0 0 0 62 0.0008 0 
1036 2 0.00980703 -0.0609356 0.00548064 0 0 0 -0.00467705 -0.000309908 -0.00545515 6.0412e-06 1.1593e-06 7.83209e-06 0 1 0 0 0 0 0 0 1 0 0 0 0 0 0 0 12 0.0008 0 
6574 6 0.0137577 -0.0609356 0.00516597 0 0 0 0.00468957 0.000142391 -0.00832258 -2.52134e-06 7.30886e-07 4.6145e-07 0 1 0 0 0 0 0 0 0 0 0 0 0 0 0 0 31 0.0008 0 
8439 3 0.0154099 -0.0609356 0.00552052 0 0 0 0.00510893 0.000141726 -0.011147 -4.63132e-06 -3.62364e-07 2.08399e-06 0 0 0 0 0 0 0 0 0 0 0 0 0 0 0 0 5 0.0008 0 
2966 5 0.0173083 -0.0609356 0.00500257 0 0 0 0.00254984 0.000301946 -0.0062084 3.22115e-06 1.95254e-06 1.57467e-06 0 0 0 0 1 0 0 0 0 0 0 0 0 0 0 0 17 0.0008 0 
3865 4 0.0022081 -0.0607844 0.00645576 0 0 0 -0.000463793 4.72439e-05 0.000173568 -1.34344e-06 -6.19443e-07 1.00296e-06 0 0 0 1 0 0 0 0 0 0 0 0 0 0 0 0 59 0.0008 0 
3869 8 0.00407725 -0.0607914 0.0064182 0 0 0 0.00195776 -0.000686289 -0.00367129 1.32316e-07 -6.20904e-08 -3.32221e-07 0 1 0 0 0 0 0 0 0 0 0 0 0 0 0 0 55 0.0008 0 
4248 10 0.00846145 -0.0608067 0.00633645 0 0 0 -0.00183973 -0.000121823 -0.000838122 -1.03608e-06 -1.78428e-06 -8.58131e-07 1 1 0 0 0 0 0 0 0 1 0 0 0 0 0 0 42 0.0008 0 
9210 2 0.0113337 -0.0608776 0.00595709 0 0 0 -0.00533882 -0.00218884 -0.000901585 1.3373e-05 1.56667e-05 -5.78179e-06 0 0 0 0 0 0 0 0 0 0 0 0 0 0 0 0 2 0.0008 0 
9818 2 0.0127036 -0.0607254 0.00677097 0 0 0 0.00384676 -0.00255792 -0.0136794 1.17621e-06 -1.28779e-06 -6.84318e-06 0 0 0 0 0 0 0 0 0 0 0 0 0 0 0 0 0 0.0008 0 
5900 8 0.0142998 -0.0607463 0.0066594 0 0 0 0.00465184 -0.00164544 -0.00869598 3.22459e-08 -8.61353e-07 -1.18644e-06 0 0 0 0 0 0 0 0 0 0 0 0 0 0 0 0 12 0.0008 0 
6493 9 0.0172355 -0.060759 0.00659129 0 0 0 -0.00658945 -0.00135526 -0.00724447 -1.06021e-10 -2.48797e-07 -1.35796e-06 0 0 0 0 0 0 0 0 0 0 0 0 0 0 0 0 16 0.0008 0 
5113 5 0.000838499 -0.0606307 0.00727772 0 0 0 -0.00119089 -0.00019532 -0.0010459 -6.34259e-14 -2.53788e-07 -1.35712e-06 0 0 0 0 0 0 0 0 0 0 0 0 0 0 0 0 46 0.0008 0 
1165 1 0.00289933 -0.0605192 0.00787401 0 0 0 0.00026593 -0.000172009 0.000276075 -2.19286e-07 -1.70967e-06 2.03252e-06 2 0 0 1 0 0 0 0 0 0 0 0 0 0 0 0 75 0.0008 0 
1045 8 0.00557144 -0.0606782 0.00702366 0 0 0 0.00203532 -0.000164367 -0.000914473 3.2693e-07 -2.39418e-07 -6.70507e-07 0 1 0 0 0 0 0 2 0 0 0 0 0 0 0 0 35 0.0008 0 
12 4 0.00717368 -0.0606319 0.00727118 0 0 0 0.00718264 -0.000629109 -0.00326768 4.86278e-10 -2.04845e-07 -1.36324e-06 0 0 0 0 0 0 0 0 0 0 0 0 0 0 0 0 5 0.0008 0 
6544 1 0.0101683 -0.0606752 0.00703987 0 0 0 0.00143852 -0.000470248 -0.00206321 -3.25519e-11 -1.092e-07 -1.37924e-06 0 0 0 0 0 0 0 0 0 0 0 0 0 0 0 0 15 0.0008 0 
11745 5 0.015785 -0.0606344 0.00725791 0 0 0 -0.000383381 0.00171776 0.00918939 1.07022e-10 -2.5318e-07 -1.35729e-06 0 0 0 0 0 0 0 0 0 0 0 0 0 0 0 0 0 0.0008 0 
4325 3 0.00153679 -0.0603651 0.00869842 0 0 0 -0.00196847 -0.00058794 -0.00350624 -4.13162e-07 4.0335e-07 -8.35363e-07 1 0 0 0 0 0 0 0 0 0 0 0 0 0 0 0 31 0.0008 0 
9441 6 0.00447145 -0.0604647 0.00816578 0 0 0 0.000989977 -0.00032733 -0.002146 8.68729e-07 5.82462e-07 -5.59406e-07 1 0 0 0 0 0 0 1 0 0 0 0 0 0 0 0 13 0.0008 0 
6076 6 0.00615321 -0.0604043 0.00848872 0 0 0 0.005509 -0.000304558 -0.00240787 -7.20262e-08 -9.5223e-07 -7.97084e-08 0 0 0 0 0 1 0 1 0 0 0 0 0 0 0 0 17 0.0008 0 
3877 5 0.00875079 -0.0605175 0.00788322 0 0 0 0.0170947 -0.000773174 -0.00392303 7.03543e-08 -4.04698e-07 -5.90978e-07 0 0 0 0 0 0 0 0 0 1 0 0 0 0 0 0 8 0.0008 0 
3561 10 0.017857 -0.0604719 0.00812733 0 0 0 -0.00041811 2.3987e-05 0.000128319 1.79704e-19 -2.53692e-07 -1.35713e-06 0 0 0 0 0 0 0 0 0 0 0 0 0 0 0 0 13 0.0008 0 
2858 2 0.00347469 -0.0602345 0.00939709 0 0 0 0.00814913 -0.000214127 -0.00114548 8.14677e-19 -2.53692e-07 -1.35713e-06 0 0 0 0 0 0 0 0 0 0 0 0 0 0 0 0 28 0.0008 0 
3081 3 0.00765535 -0.060302 0.00903589 0 0 0 0.0097548 -0.00242883 -0.0129921 -5.01462e-13 -2.52559e-07 -1.35734e-06 0 0 0 0 0 0 0 0 0 0 0 0 0 0 0 0 37 0.0008 0 
8682 5 0.00507018 -0.0601879 0.00964636 0 0 0 0.00149956 -0.00115104 -0.00535074 2.81011e-07 5.31776e-07 -1.75874e-06 0 0 0 0 0 1 0 0 0 0 0 0 0 0 0 0 3 0.0008 0 
10425 1 0.000801735 -0.0599336 0.0110072 0 0 0 0.00187618 -0.0108755 -0.0595382 1.04648e-07 5.32882e-07 -1.40401e-06 0 0 0 0 0 0 0 0 0 0 0 0 0 0 0 0 0 0.0008 0 
5875 2 0.00415431 -0.0599467 0.0109362 0 0 0 0.0272292 -0.00213279 0.0120933 -2.33687e-08 1.02098e-05 3.3157e-06 0 0 0 0 0 0 0 0 0 0 0 0 0 0 0 0 16 0.0008 0 
8267 8 0.00656917 -0.0600842 0.0101974 0 0 0 0.00502421 -0.0079043 -0.0123511 0 -1.05196e-05 0 0 0 0 0 0 0 0 0 0 0 0 0 0 0 0 0 4 0.0008 0 
9650 1 0.0111175 -0.0600012 0.0106454 0 0 0 0.0220187 -0.0145718 -0.0779523 -6.33797e-19 -2.53692e-07 -1.35713e-06 0 0 0 0 0 0 0 0 0 0 0 0 0 0 0 0 0 0.0008 0 
4050 3 0.00196078 -0.059695 0.0120851 0 0 0 -0.0174085 0.00324766 -0.0392801 0 -1.05196e-05 0 0 0 0 0 0 0 0 0 0 0 0 0 0 0 0 0 13 0.0008 0 
4459 4 0.013743 -0.0598036 0.0117025 0 0 0 0.0130772 -0.0118867 -0.0635882 5.14358e-19 -2.53692e-07 -1.35713e-06 0 0 0 0 0 0 0 0 0 0 0 0 0 0 0 0 3 0.0008 0 
7315 2 0.00364361 -0.0594901 0.0124058 0 0 0 -0.0527641 -0.00539002 -0.0014338 0 -1.05196e-05 0 0 0 0 0 0 0 0 0 0 0 0 0 0 0 0 0 1 0.0008 0 
1541 1 0.00992957 -0.058577 0.015346 0 0 0 0.0750957 -0.0151468 -0.18767 0 -1.05196e-05 0 0 0 0 0 0 0 0 0 0 0 0 0 0 0 0 0 18 0.0008 0 
10129 8 0.0148698 -0.0585254 0.0173091 0 0 0 0.049586 -0.36066 -0.728032 0 -1.05196e-05 0 0 0 0 0 0 0 0 0 0 0 0 0 0 0 0 0 0 0.0008 0 
12115 2 0.0160128 -0.052261 0.0276057 0 0 0 -0.0820214 4.3085 6.43849 0.000147644 0.0210444 -0.0134395 0 0 0 0 0 0 0 0 0 0 0 0 0 0 0 0 0 0.0008 0 
9086 1 0.00185339 -0.0513976 0.0286558 0 0 0 6.39136 19.1629 31.0711 0 -1.05196e-05 0 0 0 0 0 0 0 0 0 0 0 0 0 0 0 0 0 10 0.0008 0 
12075 4 0.0169058 -0.0512161 0.0289742 0 0 0 0.0302731 3.88825 5.35131 0 -1.05196e-05 0 0 0 0 0 0 0 0 0 0 0 0 0 0 0 0 0 0 0.0008 0 
11158 7 0.00186239 -0.0497686 0.0352553 0 0 0 -0.0477573 -0.231287 -0.366962 0 -1.05196e-05 0 0 0 0 0 0 0 0 0 0 0 0 0 0 0 0 0 0 0.0008 0 
1825 3 0.0150492 -0.0460136 0.034824 0 0 0 1.82062 -1.13853 -1.522 0 -1.05196e-05 0 0 0 0 0 0 0 0 0 0 0 0 0 0 0 0 0 1 0.0008 0 
8498 6 0.00667303 -0.0478742 0.0378197 0 0 0 0.340648 0.0236982 0.091016 0 -1.05196e-05 0 0 0 0 0 0 0 0 0 0 0 0 0 0 0 0 0 18 0.0008 0 
1454 4 0.0158151 -0.00879511 0.0379153 0 0 0 0.601747 -2.4407 0.565881 0 -1.05196e-05 0 0 0 0 0 0 0 0 0 0 0 0 0 0 0 0 0 24 0.0008 0 
12049 10 0.0107031 -0.0388909 0.0439353 0 0 0 -0.689784 5.23547 4.94989 0 -1.05196e-05 0 0 0 0 0 0 0 0 0 0 0 0 0 0 0 0 0 0 0.0008 0 
99 1 0.00334313 -0.0374591 0.0456112 0 0 0 0.226594 9.06027 6.61795 -0.000274526 0.0251347 -0.0353913 0 0 0 0 0 0 0 0 0 0 0 0 0 0 0 0 12 0.0008 0 
12221 3 0.0164495 -0.0286053 0.0516994 0 0 0 -30.6166 50.2852 29.4614 -0.0382596 0.140473 -0.364505 0 0 0 0 0 0 0 0 0 0 0 0 0 0 0 0 0 0.0008 0 
11629 4 0.00637197 -0.027618 0.0517541 0 0 0 -1.3316 9.49337 6.05001 0 -1.05196e-05 0 0 0 0 0 0 0 0 0 0 0 0 0 0 0 0 0 0 0.0008 0 
12139 4 0.00229562 -0.0176599 0.05622 0 0 0 0.9214 12.3348 5.04837 0 -1.05196e-05 0 0 0 0 0 0 0 0 0 0 0 0 0 0 0 0 0 0 0.0008 0 
11973 1 0.00793183 -0.0126089 0.0559003 0 0 0 1.18475 3.87694 3.0464 0 -1.05196e-05 0 0 0 0 0 0 0 0 0 0 0 0 0 0 0 0 0 0 0.0008 0 
95 1 0.0138325 -0.00711685 0.0582159 0 0 0 2.8779 -0.256203 -2.46316 0 -1.05196e-05 0 0 0 0 0 0 0 0 0 0 0 0 0 0 0 0 0 25 0.0008 0 
11844 3 0.013524 -0.0152793 0.0588115 0 0 0 0.00139088 -0.40697 -0.120862 0 -1.05196e-05 0 0 0 0 0 0 0 0 0 0 0 0 0 0 0 0 0 0 0.0008 0 
1063 5 0.0141486 0.0159762 -0.0584013 0 0 0 0.222058 -0.0282932 -0.00805013 -1.28174e-06 -9.10172e-06 -2.58967e-06 0 0 0 0 0 0 0 0 0 0 0 0 0 0 0 0 24 0.0008 0 
11880 4 0.0169555 0.019589 -0.0575194 0 0 0 -2.61117e-14 -0.191929 -0.0509297 0 -1.05196e-05 0 0 0 0 0 0 0 0 0 0 0 0 0 0 0 0 0 0 0.0008 0 
12095 2 0.0151567 0.0167205 -0.0550962 0 0 0 0.349778 -1.65043 -2.94244 0 -1.05196e-05 0 0 0 0 0 0 0 0 0 0 0 0 0 0 0 0 0 0 0.0008 0 
5399 2 0.0106224 0.0250708 -0.055271 0 0 0 -0.00674763 -0.113056 -0.0362768 0 -1.05196e-05 0 0 0 0 0 0 0 0 0 0 0 0 0 0 0 0 0 31 0.0008 0 
9959 8 0.00439975 0.00606356 -0.0541783 0 0 0 -0.32087 -12.9474 -2.87305 0 -1.05196e-05 0 0 0 0 0 0 0 0 0 0 0 0 0 0 0 0 0 5 0.0008 0 
2771 7 0.0126129 0.0163577 -0.0541778 0 0 0 0.158201 -1.43551 -0.705297 0 -1.05196e-05 0 0 0 0 0 0 0 0 0 0 0 0 0 0 0 0 0 27 0.0008 0 
12012 12 0.0179977 0.0212168 -0.0536555 0 0 0 1.17293 -2.3141 -1.49247 0 -1.05196e-05 0 0 0 0 0 0 0 0 0 0 0 0 0 0 0 0 0 0 0.0008 0 
9023 3 0.0137396 0.0282708 -0.0539566 0 0 0 0.00226194 -0.0922594 0.023581 0 -1.05196e-05 0 0 0 0 0 0 0 0 0 0 0 0 0 0 0 0 0 14 0.0008 0 
12135 3 0.0171301 0.0179519 -0.0512545 0 0 0 0.989967 -1.58941 -2.26129 0 -1.05196e-05 0 0 0 0 0 0 0 0 0 0 0 0 0 0 0 0 0 0 0.0008 0 
8799 7 0.00535995 0.024716 -0.0507555 0 0 0 -1.12647 -2.95851 -1.96043 0 -1.05196e-05 0 0 0 0 0 0 0 0 0 0 0 0 0 0 0 0 0 16 0.0008 0 
6788 3 0.00191106 0.00393129 -0.0487606 0 0 0 0.89998 -9.05515 -13.7226 0 -1.05196e-05 0 0 0 0 0 0 0 0 0 0 0 0 0 0 0 0 0 19 0.0008 0 
8881 3 0.00944656 0.0278488 -0.0490058 0 0 0 -16.4555 -54.1623 -15.9393 0 -1.05196e-05 0 0 0 0 0 0 0 0 0 0 0 0 0 0 0 0 0 14 0.0008 0 
3709 3 0.00398028 0.0357546 -0.0467666 0 0 0 0.0956581 -1.60088 -3.06826 0 -1.05196e-05 0 0 0 0 0 0 0 0 0 0 0 0 0 0 0 0 0 33 0.0008 0 
12057 6 0.0129611 0.0249554 -0.044821 0 0 0 -19.5923 -35.8038 -40.843 0 -1.05196e-05 0 0 0 0 0 0 0 0 0 0 0 0 0 0 0 0 0 0 0.0008 0 
5609 1 0.00832633 0.0323745 -0.0433494 0 0 0 -9.68337 -40.0863 5.21964 0 -1.05196e-05 0 0 0 0 0 0 0 0 0 0 0 0 0 0 0 0 0 38 0.0008 0 
12195 5 0.00569665 0.0354158 -0.0433354 0 0 0 -13.2918 -42.4742 -16.7399 0 -1.05196e-05 0 0 0 0 0 0 0 0 0 0 0 0 0 0 0 0 0 0 0.0008 0 
9485 4 0.0179914 0.0203239 -0.0383544 0 0 0 3.14012 -1.59974 -13.102 0 -1.05196e-05 0 0 0 0 0 0 0 0 0 0 0 0 0 0 0 0 0 4 0.0008 0 
12136 6 0.0156188 0.016964 -0.035932 0 0 0 -0.575203 -4.9385 -8.18973 0 -1.05196e-05 0 0 0 0 0 0 0 0 0 0 0 0 0 0 0 0 0 0 0.0008 0 
2321 7 0.0103036 0.0510906 -0.0355 0 0 0 3.02251e-302 1.88442e-20 3.53502e-12 -9.49349e-308 -8.47033e-22 2.22045e-16 0 0 0 0 0 0 0 0 0 0 0 0 0 0 0 0 0 0.0008 0 
283 5 0.00792948 0.0522232 -0.0355 0 0 0 -3.75492e-302 -8.47988e-20 5.89789e-12 -7.65301e-308 8.47033e-22 2.22045e-16 0 0 0 0 0 0 0 0 0 0 0 0 0 0 0 0 0 0.0008 0 
478 2 0.00645353 0.0529587 -0.0355 0 0 0 4.31016e-302 -3.75882e-20 2.36052e-12 9.4429e-308 0 2.22045e-16 0 0 0 0 0 0 0 0 0 0 0 0 0 0 0 0 0 0.0008 0 
7581 4 0.0102123 0.0535076 -0.0355 0 0 0 -2.76397e-302 -8.48681e-20 -2.36059e-12 9.23059e-308 0 2.22045e-16 0 0 0 0 0 0 0 0 0 0 0 0 0 0 0 0 35 0.0008 0 
871 8 0.00608615 0.0559152 -0.0355 0 0 0 -4.65625e-303 -4.72075e-20 5.89787e-12 9.16525e-308 0 2.22045e-16 0 0 0 0 0 0 0 0 0 0 0 0 0 0 0 0 1 0.0008 0 
5520 7 0.00948975 0.0549899 -0.0355 0 0 0 -8.67812e-101 -5.63328e-20 2.2339e-15 7.9415e-102 0 0 0 0 0 0 0 0 0 0 0 0 0 0 0 0 0 0 31 0.0008 0 
9691 4 0.0139213 0.0551117 -0.0355 0 0 0 -2.35838e-302 -5.66839e-20 5.8979e-12 9.24259e-308 -8.47033e-22 2.22045e-16 0 0 0 0 0 0 0 0 0 0 0 0 0 0 0 0 0 0.0008 0 
6540 8 0.00803817 0.0564617 -0.0355 0 0 0 2.63924e-17 -7.75028e-17 2.94776e-12 -2.1684e-19 -8.67362e-19 -2.22045e-16 0 0 0 0 0 0 0 1 0 0 0 0 0 0 0 0 47 0.0008 0 
2565 7 0.00831901 0.0580136 -0.0355 0 0 0 -2.63554e-17 9.34624e-17 2.94781e-12 2.1684e-19 1.73472e-18 0 0 0 0 0 0 0 0 1 0 0 0 0 0 0 0 0 47 0.0008 0 
10198 9 0.00996396 0.0577282 -0.0355004 0 0 0 4.89222e-17 -1.98636e-17 6.48709e-12 1.73472e-18 3.25261e-19 0 0 0 0 0 0 0 0 0 1 0 0 0 0 0 0 0 21 0.0008 0 
5323 6 0.0115237 0.0578289 -0.0354996 0 0 0 7.7831e-18 1.98015e-17 6.48787e-12 0 -2.1684e-19 0 0 0 0 0 0 0 0 0 1 0 0 0 0 0 0 0 31 0.0008 0 
1583 3 0.0133936 0.0576786 -0.0355 0 0 0 7.52363e-303 -1.87043e-20 5.89794e-12 9.52287e-308 -8.47033e-22 -2.22045e-16 0 0 0 0 0 0 0 0 0 0 0 0 0 0 0 0 7 0.0008 0 
8195 2 0.0153316 0.0581083 -0.0355 0 0 0 -3.90406e-75 -9.5374e-21 -1.18146e-12 -5.20151e-76 0 -2.22045e-16 0 0 0 0 0 0 0 0 0 0 0 0 0 0 0 0 0 0.0008 0 
7394 6 0.00896439 0.0602767 -0.0355 0 0 0 -3.74573e-302 -8.47654e-20 -3.53501e-12 -9.35127e-308 0 2.22045e-16 0 0 0 0 0 0 0 0 0 0 0 0 0 0 0 0 0 0.0008 0 
10333 5 0.0171214 0.0610108 -0.0355 0 0 0 -7.53971e-303 -7.56482e-20 -5.8979e-12 -9.14973e-308 0 2.22045e-16 0 0 0 0 0 0 0 0 0 0 0 0 0 0 0 0 0 0.0008 0 
3089 3 0.0106995 0.0617454 -0.0355 0 0 0 -4.72618e-171 -9.44137e-21 4.72345e-12 4.16928e-172 8.47033e-22 2.22045e-16 0 0 0 0 0 0 0 0 0 0 0 0 0 0 0 0 0 0.0008 0 
3064 5 0.0057206 0.0664192 -0.0355 0 0 0 -1.99936e-268 1.94569e-20 -2.3151e-15 2.29815e-269 0 0 0 0 0 0 0 0 0 0 0 0 0 0 0 0 0 0 0 0.0008 0 
7839 6 0.0122569 0.0669977 -0.0355 0 0 0 9.57516e-08 -9.04717e-08 3.43347e-08 1.48502e-08 -8.5125e-09 -3.41634e-09 0 0 0 0 0 0 0 0 0 0 0 0 0 0 0 0 0 0.0008 0 
5230 4 0.00286266 0.0725762 -0.0355 0 0 0 -1.4742e-199 4.71443e-20 5.89795e-12 -3.23059e-200 0 2.22045e-16 0 0 0 0 0 0 0 0 0 0 0 0 0 0 0 0 0 0.0008 0 
2130 11 0.0169242 0.0756744 -0.0355021 0 0 0 -2.69731e-16 -6.86782e-17 -5.90158e-12 -1.38778e-17 8.67362e-19 0 0 0 0 0 0 0 0 0 0 0 1 0 0 0 0 0 62 0.0008 0 
4708 6 0.0184167 0.0757554 -0.0354979 0 0 0 1.87906e-16 6.77837e-17 -5.89965e-12 0 0 0 0 0 0 0 0 0 0 0 0 0 1 0 0 0 0 0 65 0.0008 0 
1962 1 0.00585959 0.0767987 -0.0355 0 0 0 7.59284e-303 2.92939e-20 2.32511e-15 9.21075e-308 0 0 0 0 0 0 0 0 0 0 0 0 0 0 0 0 0 0 3 0.0008 0 
5274 5 0.0152254 0.0938766 -0.0355 0 0 0 -9.66138e-112 -1.87811e-20 4.72342e-12 2.64731e-112 0 2.22045e-16 0 0 0 0 0 0 0 0 0 0 0 0 0 0 0 0 0 0.0008 0 
11978 5 0.00599625 0.0569195 -0.0339985 0 0 0 0.888095 -0.976079 0.304441 0 -1.05196e-05 0 0 0 0 0 0 0 0 0 0 0 0 0 0 0 0 0 0 0.0008 0 
1930 2 0.014791 0.0793784 -0.0340977 0 0 0 0.696528 0.00736261 -2.69567 0 -1.05196e-05 0 0 0 0 0 0 0 0 0 0 0 0 0 0 0 0 0 27 0.0008 0 
11919 2 0.0179815 0.0807654 -0.0337892 0 0 0 0.814206 -1.43792 1.10938 0 -1.05196e-05 0 0 0 0 0 0 0 0 0 0 0 0 0 0 0 0 0 0 0.0008 0 
11773 4 0.00311261 0.0820107 -0.0340337 0 0 0 0.337799 -0.115687 0.28429 0 -1.05196e-05 0 0 0 0 0 0 0 0 0 0 0 0 0 0 0 0 0 0 0.0008 0 
10231 2 0.0142953 0.0832303 -0.0335533 0 0 0 1.47725 1.77255 0.899503 0 -1.05196e-05 0 0 0 0 0 0 0 0 0 0 0 0 0 0 0 0 0 13 0.0008 0 
11980 5 0.00192517 0.0913965 -0.0339487 0 0 0 0.00167899 -0.360023 0.0431047 0 -1.05196e-05 0 0 0 0 0 0 0 0 0 0 0 0 0 0 0 0 0 0 0.0008 0 
5308 3 0.00430119 0.0943667 -0.0335 0 0 0 -0.168581 0.219872 -0.14024 0 -1.05196e-05 0 0 0 0 0 0 0 0 0 0 0 0 0 0 0 0 0 15 0.0008 0 
5111 4 0.00901131 0.0949066 -0.0336246 0 0 0 1.07696 0.374454 -1.43052 0 -1.05196e-05 0 0 0 0 0 0 0 0 0 0 0 0 0 0 0 0 0 17 0.0008 0 
9197 2 0.0019084 0.0952478 -0.0341052 0 0 0 0.0719561 0.000715609 0.0445799 0 -1.05196e-05 0 0 0 0 0 0 0 0 0 0 0 0 0 0 0 0 0 9 0.0008 0 
5037 5 0.00402572 0.0959494 -0.0335271 0 0 0 -0.0904026 0.172418 0.251132 -6.97817e-05 -0.000343026 0.00015584 0 0 0 0 1 0 0 0 0 0 0 0 0 0 0 0 34 0.0008 0 
6681 4 0.00181927 0.0968503 -0.034191 0 0 0 -0.0108614 0.00869342 0.0138023 0 -1.05196e-05 0 0 0 0 0 0 0 0 0 0 0 0 0 0 0 0 0 17 0.0008 0 
2872 3 0.00645724 0.0961712 -0.0340208 0 0 0 0.534193 -0.00974317 -0.0297455 0 -1.05196e-05 0 0 0 0 0 0 0 0 0 0 0 0 0 0 0 0 0 25 0.0008 0 
5045 3 0.0105915 0.0970578 -0.0334987 0 0 0 -0.112044 -0.33287 0.106644 0 -1.05196e-05 0 0 0 0 0 0 0 0 0 0 0 0 0 0 0 0 0 29 0.0008 0 