ITEM: TIMESTEP
6050000
ITEM: NUMBER OF ATOMS
11104
ITEM: BOX BOUNDS ff ff ff
-0.01 0.45
-0.15 0.15
-0.08 0.1
ITEM: ATOMS id type x y z ix iy iz vx vy vz fx fy fz c_cc_1 c_cc_2 c_cc_3 c_cc_4 c_cc_5 c_cc_6 c_cc_7 c_cc_8 c_cc_9 c_cc_10 c_cc_11 c_cc_12 c_cc_13 c_cc_14 c_cc_15 c_cc_16 f_fppacc radius c_cc_17 
11428 3 0.0172611 -0.0124181 -0.0599448 0 0 0 -0.00344582 -0.347524 0.0324745 0 -1.05196e-05 0 0 0 0 0 0 0 0 0 0 0 0 0 0 0 0 0 0 0.0008 0 
1798 10 0.011546 -0.00986269 -0.0599104 0 0 0 0.0311813 -0.529214 0.0392692 0 -1.05196e-05 0 0 0 0 0 0 0 0 0 0 0 0 0 0 0 0 0 23 0.0008 0 
9915 5 0.0149972 -0.0140883 -0.0592095 0 0 0 -7.64428e-08 -0.11638 -0.0157941 0 -1.05196e-05 0 0 0 0 0 0 0 0 0 0 0 0 0 0 0 0 0 6 0.0008 0 
9727 3 0.017765 -0.0129866 -0.0575285 0 0 0 3.92289 -17.7465 0.0387558 0 -1.05196e-05 0 0 0 0 0 0 0 0 0 0 0 0 0 0 0 0 0 12 0.0008 0 
11044 4 0.0113589 -0.0238609 -0.0558435 0 0 0 -0.000541186 -0.0683195 -0.0157041 0 -1.05196e-05 0 0 0 0 0 0 0 0 0 0 0 0 0 0 0 0 0 0 0.0008 0 
6272 1 0.00738518 -0.0230483 -0.0561812 0 0 0 -0.000362522 -0.0538367 -0.0498307 0 -1.05196e-05 0 0 0 0 0 0 0 0 0 0 0 0 0 0 0 0 0 13 0.0008 0 
5611 3 0.0152988 -0.0253466 -0.0551272 0 0 0 -0.0226681 -0.0652195 0.0748543 0 -1.05196e-05 0 0 0 0 0 0 0 0 0 0 0 0 0 0 0 0 0 14 0.0008 0 
10907 2 0.0135753 -0.0241722 -0.0556093 0 0 0 8.10501e-05 -0.0578022 0.071649 0 -1.05196e-05 0 0 0 0 0 0 0 0 0 0 0 0 0 0 0 0 0 0 0.0008 0 
8821 1 0.00607585 -0.0116901 -0.0554342 0 0 0 0.801343 -1.93421 0.68078 0 -1.05196e-05 0 0 0 0 0 0 0 0 0 0 0 0 0 0 0 0 0 15 0.0008 0 
9982 3 0.00169824 -0.019772 -0.052727 0 0 0 5.10555 -43.2983 13.3459 0.135536 0.0251783 0.0629129 0 0 0 0 0 0 0 0 0 0 0 0 0 0 0 0 0 0.0008 0 
2611 5 0.0122393 -0.040043 -0.0461196 0 0 0 -0.0340643 -0.359481 0.271467 -1.30581e-17 -4.78501e-06 3.61347e-06 0 0 0 0 0 0 0 0 0 0 0 0 0 0 0 0 17 0.0008 0 
11194 9 0.0153958 -0.0385176 -0.0427791 0 0 0 0.688757 -10.3575 -3.03473 0 -1.05196e-05 0 0 0 0 0 0 0 0 0 0 0 0 0 0 0 0 0 1 0.0008 0 
3465 7 0.00634448 -0.0404395 -0.0415878 0 0 0 0.849345 -5.55602 4.40692 0 -1.05196e-05 0 0 0 0 0 0 0 0 0 0 0 0 0 0 0 0 0 16 0.0008 0 
8038 2 0.00194197 -0.0181463 -0.0417977 0 0 0 -0.216692 -2.60633 -0.83112 0 -1.05196e-05 0 0 0 0 0 0 0 0 0 0 0 0 0 0 0 0 0 16 0.0008 0 
11518 1 0.00966362 -0.0374855 -0.0390664 0 0 0 0.516469 -1.04738 3.19865 0 -1.05196e-05 0 0 0 0 0 0 0 0 0 0 0 0 0 0 0 0 0 0 0.0008 0 
10867 4 0.0160093 -0.0514326 -0.0269985 0 0 0 0.642473 -11.7762 13.703 0 -1.05196e-05 0 0 0 0 0 0 0 0 0 0 0 0 0 0 0 0 0 0 0.0008 0 
5832 8 0.00191265 -0.0528542 -0.0250778 0 0 0 6.97368 -1.27746 14.3079 0 -1.05196e-05 0 0 0 0 0 0 0 0 0 0 0 0 0 0 0 0 0 24 0.0008 0 
11525 2 0.00536554 -0.0479869 -0.0240361 0 0 0 3.34381 -16.7331 6.78033 0 -1.05196e-05 0 0 0 0 0 0 0 0 0 0 0 0 0 0 0 0 0 0 0.0008 0 
10496 1 0.00184368 -0.0566676 -0.0223951 0 0 0 -0.0309376 -0.192734 0.469684 0 -1.05196e-05 0 0 0 0 0 0 0 0 0 0 0 0 0 0 0 0 0 0 0.0008 0 
11626 3 0.0110762 -0.0546635 -0.0190287 0 0 0 0.370401 -7.1217 16.3677 0 -1.05196e-05 0 0 0 0 0 0 0 0 0 0 0 0 0 0 0 0 0 0 0.0008 0 
11588 5 0.0119079 -0.0534583 -0.0170769 0 0 0 -1.92368e-13 -1.46242 4.35279 0 -1.05196e-05 0 0 0 0 0 0 0 0 0 0 0 0 0 0 0 0 0 0 0.0008 0 
5953 8 0.00588016 -0.0595145 -0.0132489 0 0 0 0.063325 0.0079738 -0.042656 5.60162e-19 -2.53692e-07 1.35713e-06 0 0 0 0 0 0 0 0 0 0 0 0 0 0 0 0 11 0.0008 0 
10613 5 0.0120632 -0.0598145 -0.0116438 0 0 0 0.0390698 0.0110807 -0.0592764 3.22845e-18 -2.53692e-07 1.35713e-06 0 0 0 0 0 0 0 0 0 0 0 0 0 0 0 0 0 0.0008 0 
11531 3 0.0133593 -0.0598493 -0.0104695 0 0 0 -0.168783 0.0455193 -0.238016 0 -1.05196e-05 0 0 0 0 0 0 0 0 0 0 0 0 0 0 0 0 0 0 0.0008 0 
8455 4 0.000827261 -0.0602989 -0.00905276 0 0 0 0.000790904 -0.00800915 0.0428451 -2.94895e-19 -2.53692e-07 1.35713e-06 0 0 0 0 0 0 0 0 0 0 0 0 0 0 0 0 5 0.0008 0 
9977 6 0.00274098 -0.0603997 -0.00851361 0 0 0 0.0410457 -0.00111634 0.00597189 6.34172e-19 -2.53692e-07 1.35713e-06 0 0 0 0 0 0 0 0 0 0 0 0 0 0 0 0 0 0.0008 0 
700 8 0.00865383 -0.0604795 -0.00808533 0 0 0 -0.00409267 0.0462364 0.0114066 0 -1.05196e-05 0 0 0 0 0 0 0 0 0 0 0 0 0 0 0 0 0 2 0.0008 0 
7649 2 0.00162759 -0.0606815 -0.0070061 0 0 0 0.00130625 0.000377485 -0.00202471 -5.30681e-09 -1.28325e-07 8.12598e-07 0 1 0 0 0 0 0 0 0 0 0 0 0 0 0 0 3 0.0008 0 
10360 1 0.00544218 -0.060521 -0.00786481 0 0 0 -0.0410117 -0.000407991 0.00218256 -8.21092e-18 -2.53692e-07 1.35713e-06 0 0 0 0 0 0 0 0 0 0 0 0 0 0 0 0 0 0.0008 0 
9279 2 0.00699594 -0.060627 -0.00712534 0 0 0 -0.0192574 -0.0158066 -0.00628385 8.69762e-07 -5.3861e-06 -1.6394e-05 0 0 0 0 0 0 0 0 0 0 0 0 0 0 0 0 1 0.0008 0 
1366 5 0.0159989 -0.0606854 -0.00698494 0 0 0 -0.123069 -0.0281504 0.150591 -1.36038e-17 -2.53692e-07 1.35713e-06 0 0 0 0 0 0 0 0 0 0 0 0 0 0 0 0 7 0.0008 0 
11208 2 0.00563543 -0.060813 -0.00630189 0 0 0 -0.0178409 0.00165511 -0.0107314 0 -1.05196e-05 0 0 0 0 0 0 0 0 0 0 0 0 0 0 0 0 0 0 0.0008 0 
9160 14 0.00865751 -0.0608828 -0.00592925 0 0 0 -0.00732805 -0.00452421 0.0110192 -0.000241719 -0.000154767 0.000505309 0 0 0 0 0 0 0 0 0 0 0 0 0 1 0 0 5 0.0008 0 
1749 6 0.00988388 -0.0606944 -0.00693661 0 0 0 -0.0282852 -0.0087726 0.0604432 0.000250123 0.00016133 -0.000512292 0 0 0 0 0 0 0 0 0 0 0 0 0 1 0 0 15 0.0008 0 
8128 3 0.012483 -0.0607778 -0.00649101 0 0 0 0.133965 -0.0120475 0.0644432 -4.4504e-06 1.14404e-07 -6.77305e-07 0 0 0 0 0 0 0 0 0 0 0 0 0 0 0 0 2 0.0008 0 
7937 2 0.000800212 -0.0609336 -0.00565713 0 0 0 0.000102078 0.000224484 -0.00120118 -1.52278e-15 -2.53527e-07 1.35716e-06 0 0 0 0 0 0 0 0 0 0 0 0 0 0 0 0 4 0.0008 0 
894 6 0.00241885 -0.0609356 -0.00563892 0 0 0 0.00262168 2.63269e-07 -0.00286446 2.35947e-07 -8.40682e-09 1.09509e-06 0 1 0 0 0 0 0 0 0 0 0 0 0 0 0 0 9 0.0008 0 
9269 5 0.00425287 -0.0609356 -0.0055045 0 0 0 -0.0282303 0.000178763 -0.0233342 -2.06162e-07 -8.2728e-06 -7.35696e-07 0 0 0 0 0 0 0 0 0 0 0 0 0 0 0 0 2 0.0008 0 
8603 2 0.00708636 -0.0609355 -0.00555847 0 0 0 -0.00416668 0.000444376 0.00116698 -8.69762e-07 -1.5653e-05 1.6394e-05 0 0 0 0 0 0 0 0 0 0 0 0 0 0 0 0 0 0.0008 0 
3630 1 0.0108125 -0.0609356 -0.00548909 0 0 0 0.0852017 -2.20813e-05 0.0528242 -5.19907e-10 2.78823e-07 -3.07717e-10 0 0 0 0 0 0 0 0 0 0 0 0 0 0 0 0 9 0.0008 0 
10606 8 0.0147217 -0.0609076 -0.00486345 0 0 0 0.0282154 -0.0196658 0.0259579 0 -1.05196e-05 0 0 0 0 0 0 0 0 0 0 0 0 0 0 0 0 0 1 0.0008 0 
8885 1 0.0111893 -0.0576743 -0.00537321 0 0 0 0.789944 -2.26361 11.1609 0 -1.05196e-05 0 0 0 0 0 0 0 0 0 0 0 0 0 0 0 0 0 6 0.0008 0 
5540 9 0.000800491 -0.0609356 -0.00395147 0 0 0 5.63019e-05 5.72999e-12 -0.00406845 -1.0587e-21 0 1.74715e-19 0 0 0 0 0 0 0 0 0 0 0 0 0 0 0 0 11 0.0008 0 
1225 1 0.00326008 -0.0609356 -0.00424956 0 0 0 -0.00949401 -0.00018461 -0.00675635 -5.31449e-07 -1.49821e-06 2.07914e-07 0 0 0 0 0 0 0 0 0 0 0 0 0 0 0 0 104 0.0008 0 
4634 2 0.00611892 -0.0609356 -0.00427475 0 0 0 -0.00044696 2.50729e-12 -0.00115632 3.18689e-20 0 -1.51079e-19 0 0 0 0 0 0 0 0 0 0 0 0 0 0 0 0 17 0.0008 0 
3983 3 0.00819856 -0.0609356 -0.00439505 0 0 0 -0.00553958 1.7898e-05 -0.00619281 -1.29591e-10 -9.14607e-08 9.75917e-11 0 0 0 0 0 0 0 0 0 0 0 0 0 0 0 0 2 0.0008 0 
7431 2 0.00979514 -0.0609356 -0.00412408 0 0 0 -0.00707782 -9.55993e-10 0.0285377 1.89971e-15 4.09407e-12 -7.6617e-15 0 0 0 0 0 0 0 0 0 0 0 0 0 0 0 0 1 0.0008 0 
4164 1 0.0131806 -0.0609356 -0.00419387 0 0 0 0.0358292 4.06425e-10 0.0289521 4.11887e-15 -5.00907e-12 3.32823e-15 0 0 0 0 0 0 0 0 0 0 0 0 0 0 0 0 15 0.0008 0 
7844 8 0.0164075 -0.0609356 -0.00391192 0 0 0 0.050928 2.43216e-08 0.00520215 3.18394e-13 2.23203e-09 3.2523e-14 0 0 0 0 0 0 0 0 0 0 0 0 0 0 0 0 5 0.0008 0 
9680 4 0.00216187 -0.0609356 -0.00308584 0 0 0 0.00346753 1.51057e-05 0.00696658 -1.96747e-05 6.91764e-06 -1.92773e-05 0 0 0 1 0 0 0 0 0 0 0 0 0 0 0 0 3 0.0008 0 
6408 2 0.00470399 -0.0609356 -0.00351937 0 0 0 -0.0019472 1.74737e-05 -0.00688022 -1.68178e-07 -1.44796e-06 1.65182e-07 0 0 0 0 0 0 0 0 0 0 0 0 0 0 0 0 6 0.0008 0 
4185 5 0.00723741 -0.0609356 -0.00311375 0 0 0 -0.00221854 -2.50113e-05 -0.00189507 1.3519e-10 -2.67866e-08 -2.56579e-11 0 0 0 0 0 0 0 0 0 0 0 0 0 0 0 0 24 0.0008 0 
9639 4 0.00887946 -0.0609282 -0.00277111 0 0 0 -0.00241974 -0.000698832 0.00180527 0 -1.05196e-05 0 0 0 0 0 0 0 0 0 0 0 0 0 0 0 0 0 3 0.0008 0 
1887 11 0.0113239 -0.0609356 -0.00360963 0 0 0 0.00571135 -8.18153e-12 0.0025599 -1.01885e-17 -2.0202e-12 -4.57341e-18 0 0 0 0 0 0 0 0 0 0 0 0 0 0 0 0 13 0.0008 0 
1200 7 0.000800002 -0.0609356 -0.00224592 0 0 0 0.000596102 0.00041032 0.00568935 2.57013e-07 -8.22693e-07 2.02932e-06 0 0 0 0 0 0 0 0 0 0 0 0 0 0 0 0 11 0.0008 0 
3512 5 0.00359299 -0.0609356 -0.00236767 0 0 0 0.00677993 -0.000176682 0.00364847 -5.89214e-06 3.29648e-06 -3.60602e-06 0 0 0 0 0 0 0 0 0 0 0 0 0 0 0 0 24 0.0008 0 
6702 2 0.00584394 -0.0609356 -0.00231815 0 0 0 0.00163672 8.95942e-13 -0.00645002 -9.8288e-20 0 1.20336e-18 0 0 0 0 0 0 0 0 0 0 0 0 0 0 0 0 4 0.0008 0 
3427 4 0.0105522 -0.0609356 -0.00197143 0 0 0 0.00070191 2.66843e-12 0.0159838 7.55406e-20 0 2.41717e-18 0 0 0 0 0 0 0 0 0 0 0 0 0 0 0 0 9 0.0008 0 
1871 2 0.000801815 -0.0609356 -0.000645054 0 0 0 0.000226724 -0.00011666 0.00794261 -2.41825e-07 -5.99873e-07 -4.95394e-06 0 0 0 0 0 0 0 0 0 0 0 0 0 0 0 0 18 0.0008 0 
414 7 0.00225051 -0.0609356 -0.00148833 0 0 0 0.00088817 -1.37158e-05 -0.000289619 1.96911e-05 -5.63874e-06 1.30515e-05 0 0 0 1 0 0 0 0 0 0 0 0 0 0 0 0 10 0.0008 0 
553 2 0.00469709 -0.0609356 -0.00119771 0 0 0 0.00265357 1.05708e-12 -0.00503997 -2.99492e-19 0 5.99019e-19 0 0 0 0 0 0 0 0 0 0 0 0 0 0 0 0 11 0.0008 0 
72 4 0.00783392 -0.0609356 -0.0015596 0 0 0 -0.00234826 0.000137148 0.00217628 -2.88378e-09 2.20655e-07 1.28744e-08 0 0 0 0 0 0 0 0 0 0 0 0 0 0 0 0 8 0.0008 0 
4095 1 0.00928462 -0.0609356 -0.000854858 0 0 0 -0.00958114 2.18502e-12 0.0126219 1.19805e-18 0 -1.19798e-18 0 0 0 0 0 0 0 0 0 0 0 0 0 0 0 0 14 0.0008 0 
3491 3 0.0129949 -0.0609356 -0.000687278 0 0 0 0.036193 -2.16562e-12 0.0589777 4.83423e-18 0 -2.55633e-18 0 0 0 0 0 0 0 0 0 0 0 0 0 0 0 0 11 0.0008 0 
5313 7 0.0160158 -0.0609356 -0.00106732 0 0 0 0.0743135 1.70162e-12 0.0570598 -1.02003e-18 0 -9.62608e-18 0 0 0 0 0 0 0 0 0 0 0 0 0 0 0 0 9 0.0008 0 
690 7 0.00220855 -0.0609356 0.000118927 0 0 0 -0.00108053 2.66845e-12 0.000689216 -1.51067e-19 -1.28749e-19 7.48697e-20 0 0 0 0 0 0 0 0 0 0 0 0 0 0 0 0 15 0.0008 0 
101 5 0.00380943 -0.0609356 0.000137044 0 0 0 -0.00321784 -0.000269933 -0.00775569 1.09998e-07 1.69135e-06 4.4447e-08 0 0 0 0 0 0 0 0 0 0 0 0 0 0 0 0 24 0.0008 0 
1002 3 0.00663059 -0.0609356 -0.000502395 0 0 0 -0.00470244 -0.000128496 0.00263811 -8.49712e-08 3.20886e-06 2.97016e-08 0 0 0 0 0 0 0 0 0 0 0 0 0 0 0 0 18 0.0008 0 
4165 3 0.00804515 -0.0609356 0.000279993 0 0 0 -0.0139405 2.66843e-12 0.0120532 2.40662e-18 -1.69407e-21 1.20864e-18 0 0 0 0 0 0 0 0 0 0 0 0 0 0 0 0 5 0.0008 0 
1367 1 0.0109486 -0.0609356 -0.000284545 0 0 0 -0.00336833 -4.26038e-12 0.0234734 -6.01686e-19 0 -1.77502e-18 0 0 0 0 0 0 0 0 0 0 0 0 0 0 0 0 44 0.0008 0 
206 1 0.000837178 -0.0609356 0.000955228 0 0 0 -0.00635361 -2.68444e-06 -0.00505664 5.00329e-12 -5.7949e-08 3.8551e-12 0 0 0 0 0 0 0 0 0 0 0 0 0 0 0 0 36 0.0008 0 
585 3 0.00537101 -0.0609357 0.000488521 0 0 0 -0.00304006 0.000404163 0.00564603 5.24447e-06 1.57303e-06 -3.00886e-06 0 0 0 0 0 0 0 0 0 0 0 0 0 0 0 0 15 0.0008 0 
1470 6 0.0067916 -0.0609356 0.00127877 0 0 0 -0.0116554 2.50729e-12 0.0155591 6.85423e-19 3.38813e-21 -1.43411e-18 0 0 0 0 0 0 0 0 0 0 0 0 0 0 0 0 33 0.0008 0 
4938 7 0.00958554 -0.0609356 0.000736467 0 0 0 -0.0140296 -2.48789e-12 0.0150545 -2.4067e-18 -1.69407e-21 1.39099e-18 0 0 0 0 0 0 0 0 0 0 0 0 0 0 0 0 46 0.0008 0 
7185 2 0.0125636 -0.0609356 0.00145318 0 0 0 -0.0434839 5.42013e-07 0.0644744 -6.67648e-12 -7.21767e-09 9.89935e-12 0 0 0 0 0 0 0 0 0 0 0 0 0 0 0 0 11 0.0008 0 
1972 6 0.000813385 -0.0609356 0.00257076 0 0 0 0.000847748 -1.62654e-13 -0.00163434 -1.51738e-19 1.6484e-15 3.03779e-19 0 0 0 0 0 0 0 0 0 0 0 0 0 0 0 0 55 0.0008 0 
280 2 0.00223106 -0.0609356 0.00174439 0 0 0 -0.00966911 -7.35275e-06 0.00396426 3.46666e-10 6.17042e-08 6.80807e-11 0 0 0 0 0 0 0 0 0 0 0 0 0 0 0 0 36 0.0008 0 
317 1 0.00381114 -0.0609356 0.00200972 0 0 0 -0.0066698 3.77042e-06 -0.00176296 -7.9931e-10 3.91451e-07 -1.14515e-10 0 0 0 0 0 0 0 0 0 0 0 0 0 0 0 0 17 0.0008 0 
2069 4 0.00540546 -0.0609355 0.00215837 0 0 0 -0.00656244 -0.00121736 0.00429547 0 -1.05196e-05 0 0 0 0 0 0 0 0 0 0 0 0 0 0 0 0 0 53 0.0008 0 
1920 3 0.00829988 -0.0609356 0.00189074 0 0 0 -0.0244369 -3.13243e-12 0.0161897 2.39596e-18 0 2.39583e-18 0 0 0 0 0 0 0 0 0 0 0 0 0 0 0 0 12 0.0008 0 
7843 6 0.0146474 -0.0609356 0.00245822 0 0 0 -0.034536 -3.13243e-12 0.15621 4.83447e-18 0 -1.91673e-17 0 0 0 0 0 0 0 0 0 0 0 0 0 0 0 0 10 0.0008 0 
1894 5 0.00221647 -0.0609356 0.00334488 0 0 0 -0.0022051 -1.57169e-06 0.00467552 1.19973e-12 1.05411e-07 -1.37521e-11 0 0 0 0 0 0 0 0 0 0 0 0 0 0 0 0 73 0.0008 0 
154 3 0.00706547 -0.0609356 0.00358436 0 0 0 -0.00799816 5.72999e-12 0.0254259 1.19797e-18 0 -3.93294e-19 0 0 0 0 0 0 0 0 0 0 0 0 0 0 0 0 57 0.0008 0 
1890 2 0.0112049 -0.0609356 0.00349918 0 0 0 0.0162688 -7.93597e-06 0.0147023 1.17736e-09 -8.26909e-07 -1.06919e-09 0 0 0 0 0 0 0 0 0 0 0 0 0 0 0 0 33 0.0008 0 
1118 3 0.0129703 -0.0609356 0.00304418 0 0 0 0.0312389 -8.05665e-09 0.0623775 -7.06655e-14 2.46824e-11 -1.41105e-13 0 0 0 0 0 0 0 0 0 0 0 0 0 0 0 0 21 0.0008 0 
316 1 0.018105 -0.0609356 0.0031707 0 0 0 0.0519001 -6.83854e-12 0.141693 -4.43191e-18 0 -1.93376e-17 0 0 0 0 0 0 0 0 0 0 0 0 0 0 0 0 18 0.0008 0 
733 3 0.00081034 -0.0609356 0.00417084 0 0 0 0.0010174 1.78124e-12 -0.00171389 3.45614e-19 4.76265e-13 -5.84179e-19 0 0 0 0 0 0 0 0 0 0 0 0 0 0 0 0 72 0.0008 0 
1705 8 0.00380599 -0.0609356 0.00448336 0 0 0 0.00680348 0.000100095 -0.00133387 2.534e-07 -1.19798e-06 -3.79206e-07 0 0 0 0 0 0 0 1 0 0 0 0 0 0 0 0 80 0.0008 0 
531 10 0.00526694 -0.0609356 0.0038293 0 0 0 0.00902535 3.23087e-07 0.00338892 8.18589e-13 -2.95162e-09 3.0687e-13 0 0 0 0 0 0 0 0 0 0 0 0 0 0 0 0 81 0.0008 0 
4532 9 0.00993235 -0.0609355 0.00447038 0 0 0 0.016131 -0.000157169 0.0165691 -3.87823e-07 -8.84029e-06 -4.83987e-07 0 0 0 0 0 0 0 0 0 0 0 0 0 0 0 0 14 0.0008 0 
6574 6 0.0124406 -0.0609354 0.00459611 0 0 0 0.00218694 0.00498497 0.0353661 0 -1.05196e-05 0 0 0 0 0 0 0 0 0 0 0 0 0 0 0 0 0 29 0.0008 0 
2966 5 0.0147517 -0.0609099 0.00454736 0 0 0 0.0687645 -0.00482707 0.0698446 0 -1.05196e-05 0 0 0 0 0 0 0 0 0 0 0 0 0 0 0 0 0 16 0.0008 0 
4298 7 0.0165527 -0.0609332 0.00468141 0 0 0 0.0412749 0.00530043 0.145067 0 -1.05196e-05 0 0 0 0 0 0 0 0 0 0 0 0 0 0 0 0 0 8 0.0008 0 
210 4 0.00223845 -0.0609356 0.00499019 0 0 0 0.00112224 3.19748e-10 0.00076476 9.83652e-17 7.73799e-12 6.70351e-17 0 0 0 0 0 0 0 0 0 0 0 0 0 0 0 0 68 0.0008 0 
2116 2 0.00521858 -0.0609356 0.0056321 0 0 0 0.00181993 2.97334e-05 0.00116654 -6.70458e-11 -3.22995e-07 -2.29541e-09 0 0 0 0 0 0 0 0 0 0 0 0 0 0 0 0 74 0.0008 0 
3087 1 0.00677316 -0.0609356 0.00525054 0 0 0 0.0115871 9.15563e-06 0.0365728 1.03711e-08 -1.89454e-07 -1.68759e-09 0 0 0 0 0 0 0 0 0 0 0 0 0 0 0 0 56 0.0008 0 
18 2 0.0083532 -0.0609356 0.0049982 0 0 0 0.0131882 -1.47888e-05 0.0448449 4.92453e-09 1.67407e-07 -8.59364e-10 0 0 0 0 0 0 0 0 0 0 0 0 0 0 0 0 28 0.0008 0 
9210 2 0.0113022 -0.0609213 0.00572447 0 0 0 0.0150618 0.010645 0.0497807 -1.36109e-07 3.94135e-05 -1.31326e-05 0 0 0 0 0 0 0 0 0 0 0 0 0 0 0 0 2 0.0008 0 
604 2 0.0178519 -0.0609325 0.00566696 0 0 0 0.0769327 0.00965301 0.0813671 2.14443e-05 0.000256107 -5.66764e-05 0 0 0 0 0 0 0 0 0 0 0 0 0 0 0 0 14 0.0008 0 
2641 8 0.000841883 -0.0609118 0.00577374 0 0 0 -0.000363782 -0.000788141 -0.00421617 7.05583e-17 -2.53694e-07 -1.35713e-06 0 0 0 0 0 0 0 0 0 0 0 0 0 0 0 0 67 0.0008 0 
3865 4 0.00223574 -0.0607251 0.0067729 0 0 0 0.00158031 0.000743888 0.00402877 -3.65612e-07 -1.06564e-07 -8.09676e-07 0 0 0 1 0 0 0 0 0 0 0 0 0 0 0 0 54 0.0008 0 
2352 2 0.0036698 -0.0608554 0.0060755 0 0 0 -0.00167684 -0.00038182 -0.00215187 3.06392e-07 -2.54224e-07 -1.21018e-06 0 0 0 1 0 0 0 1 0 0 0 0 0 0 0 0 73 0.0008 0 
4248 10 0.00822767 -0.0607529 0.00662396 0 0 0 0.00486986 0.00598733 0.0322838 -3.05723e-10 2.27096e-07 -1.44853e-06 0 0 0 0 0 0 0 0 0 0 0 0 0 0 0 0 36 0.0008 0 
1036 2 0.00971951 -0.0608593 0.00605456 0 0 0 -0.00130765 0.00383097 0.01349 4.14876e-07 -1.41748e-05 -5.90089e-07 0 0 0 0 0 0 0 0 0 0 0 0 0 0 0 0 5 0.0008 0 
8439 3 0.0137886 -0.0609019 0.00582672 0 0 0 0.0295665 0.00741635 0.0397027 -3.3755e-11 -2.66139e-07 -1.35444e-06 0 0 0 0 0 0 0 0 0 0 0 0 0 0 0 0 3 0.0008 0 
1039 2 0.0156277 -0.060849 0.00610981 0 0 0 0.0444663 0.0215463 0.115807 -1.26178e-09 -1.23011e-07 -1.37833e-06 0 0 0 0 0 0 0 0 0 0 0 0 0 0 0 0 26 0.0008 0 
5113 5 0.000800361 -0.0605947 0.00747048 0 0 0 0.000715643 1.06721e-05 0.00033528 -2.95519e-09 -1.16738e-07 -1.38172e-06 0 0 0 0 0 0 0 0 0 0 0 0 0 0 0 0 41 0.0008 0 
3869 8 0.00366757 -0.0605613 0.007649 0 0 0 -0.000137178 -0.000488256 -0.00261126 4.8667e-15 -2.49354e-07 -1.35797e-06 0 0 0 0 0 0 0 0 0 0 0 0 0 0 0 0 48 0.0008 0 
1045 8 0.00521068 -0.0606438 0.00720786 0 0 0 0.000510369 8.97433e-05 0.000545178 4.61566e-09 -4.34671e-07 -1.26784e-06 0 0 0 0 0 0 0 0 0 0 0 0 0 0 0 0 25 0.0008 0 
12 4 0.00682768 -0.0606109 0.00738671 0 0 0 0.00443921 0.00157882 0.0138977 7.19821e-06 0.000163565 -4.35022e-05 0 0 0 0 0 0 0 0 0 0 0 0 0 0 0 0 4 0.0008 0 
9818 2 0.0109994 -0.0606239 0.00731413 0 0 0 0.0255565 0.0111038 0.0593999 1.15412e-06 -1.28105e-06 -6.85415e-06 0 0 0 0 0 0 0 0 0 0 0 0 0 0 0 0 0 0.0008 0 
5900 8 0.0125399 -0.0607084 0.00686213 0 0 0 0.0247646 0.00996561 0.0533093 2.57817e-12 -2.59572e-07 -1.356e-06 0 0 0 0 0 0 0 0 0 0 0 0 0 0 0 0 11 0.0008 0 
6493 9 0.0147989 -0.0605318 0.00757735 0 0 0 0.053294 0.0110289 0.0151235 0 -1.05196e-05 0 0 0 0 0 0 0 0 0 0 0 0 0 0 0 0 0 16 0.0008 0 
5191 1 0.0170985 -0.0606714 0.00705978 0 0 0 0.0513982 0.0144647 0.0732915 1.0232e-06 -6.97412e-06 -2.363e-06 0 0 0 0 0 0 0 0 0 0 0 0 0 0 0 0 23 0.0008 0 
1165 1 0.00223248 -0.0604298 0.00835253 0 0 0 0.000940786 0.000535265 0.00286337 2.39534e-15 -2.55052e-07 -1.35687e-06 0 0 0 0 0 0 0 0 0 0 0 0 0 0 0 0 67 0.0008 0 
6544 1 0.00844611 -0.0604105 0.00842368 0 0 0 0.0163196 0.00597259 0.0418974 0 -1.05196e-05 0 0 0 0 0 0 0 0 0 0 0 0 0 0 0 0 0 15 0.0008 0 
7315 2 0.0123658 -0.0603997 0.00849034 0 0 0 -0.050803 -0.0023762 0.0626902 0 -1.05196e-05 0 0 0 0 0 0 0 0 0 0 0 0 0 0 0 0 0 1 0.0008 0 
833 7 0.0162027 -0.0603672 0.00868757 0 0 0 0.0458114 0.0215494 0.115279 -2.12228e-18 -2.53692e-07 -1.35713e-06 0 0 0 0 0 0 0 0 0 0 0 0 0 0 0 0 23 0.0008 0 
4325 3 0.000817074 -0.0602846 0.00912906 0 0 0 0.00433752 0.000482094 0.00267778 -2.79717e-10 -3.76806e-07 -1.33168e-06 0 0 0 0 0 0 0 0 0 0 0 0 0 0 0 0 29 0.0008 0 
9441 6 0.00366749 -0.060262 0.00925 0 0 0 -0.00653444 -0.000791065 -0.00423182 -1.28618e-17 -2.53692e-07 -1.35713e-06 0 0 0 0 0 0 0 0 0 0 0 0 0 0 0 0 5 0.0008 0 
6076 6 0.00526065 -0.0602967 0.00906465 0 0 0 -0.00426952 0.00301811 0.0161457 5.64032e-14 -2.537e-07 -1.35713e-06 0 0 0 0 0 0 0 0 0 0 0 0 0 0 0 0 14 0.0008 0 
3877 5 0.00685929 -0.0603164 0.00895921 0 0 0 -0.00426157 0.00344963 0.0185046 1.1702e-07 2.23449e-06 -1.93273e-06 0 0 0 0 0 0 0 0 0 0 0 0 0 0 0 0 6 0.0008 0 
3561 10 0.0186544 -0.0602647 0.00923585 0 0 0 -0.0158696 0.00475451 0.0254344 4.73448e-14 -2.53688e-07 -1.35713e-06 0 0 0 0 0 0 0 0 0 0 0 0 0 0 0 0 13 0.0008 0 
2858 2 0.00224209 -0.0601277 0.00996869 0 0 0 0.00243918 0.000747126 0.00399732 -6.76367e-14 -2.56216e-07 -1.35663e-06 0 0 0 0 0 0 0 0 0 0 0 0 0 0 0 0 26 0.0008 0 
8214 2 0.00967747 -0.0582491 0.00933094 0 0 0 -10.748 5.72466 22.6869 -0.00290871 0.00767622 0.000884076 0 0 0 0 0 0 0 0 0 0 0 0 0 0 0 0 11 0.0008 0 
5875 2 0.00080991 -0.0599903 0.0107034 0 0 0 -0.00466877 0.000776682 0.00406137 2.47725e-11 -2.4185e-07 -1.36048e-06 0 0 0 0 0 0 0 0 0 0 0 0 0 0 0 0 16 0.0008 0 
8682 5 0.00652707 -0.0599344 0.0110028 0 0 0 -0.0678245 0.00613564 0.0328227 8.20586e-18 -2.53692e-07 -1.35713e-06 0 0 0 0 0 0 0 0 0 0 0 0 0 0 0 0 0 0.0008 0 
9650 1 0.0084584 -0.0600377 0.0104501 0 0 0 0.00342796 0.016977 0.090819 4.09828e-19 -2.53692e-07 -1.35713e-06 0 0 0 0 0 0 0 0 0 0 0 0 0 0 0 0 0 0.0008 0 
4050 3 0.00211428 -0.0598176 0.0116275 0 0 0 -0.0104357 0.00124011 0.00663401 -9.55432e-19 -2.53692e-07 -1.35713e-06 0 0 0 0 0 0 0 0 0 0 0 0 0 0 0 0 13 0.0008 0 
8267 8 0.00397525 -0.0597981 0.0117317 0 0 0 0.00998619 0.00826824 0.0442312 -7.98515e-19 -2.53692e-07 -1.35713e-06 0 0 0 0 0 0 0 0 0 0 0 0 0 0 0 0 4 0.0008 0 
4459 4 0.0096065 -0.0598226 0.0116008 0 0 0 0.107163 0.00487648 0.0252627 -4.22132e-06 5.72645e-07 1.24858e-06 0 0 0 0 0 0 0 0 0 0 0 0 0 0 0 0 3 0.0008 0 
3081 3 0.00769847 -0.0596931 0.0122803 0 0 0 -0.112805 -0.0145069 -0.11579 0 -1.05196e-05 0 0 0 0 0 0 0 0 0 0 0 0 0 0 0 0 0 36 0.0008 0 
11559 4 0.00632197 -0.0557485 0.0194249 0 0 0 -11.5108 9.9682 24.5605 -0.0141398 0.111009 -0.0497403 0 0 0 0 0 0 0 0 0 0 0 0 0 0 0 0 0 0.0008 0 
1541 1 0.0111087 -0.0527733 0.0305202 0 0 0 -0.351868 -0.0805535 -0.130099 5.37307e-17 -2.08228e-06 -3.363e-06 0 0 0 0 0 0 0 0 0 0 0 0 0 0 0 0 18 0.0008 0 
11587 4 0.0141001 -0.0489478 0.032538 0 0 0 1.85459 4.3965 6.32882 0 -1.05196e-05 0 0 0 0 0 0 0 0 0 0 0 0 0 0 0 0 0 0 0.0008 0 
10479 4 0.0148879 -0.0494706 0.0356723 0 0 0 0.349248 -0.300633 -0.617686 0 -1.05196e-05 0 0 0 0 0 0 0 0 0 0 0 0 0 0 0 0 0 0 0.0008 0 
10425 1 0.00105453 -0.0489223 0.0366858 0 0 0 0.0301945 -0.530156 -0.473876 0 -1.05196e-05 0 0 0 0 0 0 0 0 0 0 0 0 0 0 0 0 0 0 0.0008 0 
4852 4 0.00694992 -0.0450542 0.0380655 0 0 0 -2.54748 10.1923 10.0375 0 -1.05196e-05 0 0 0 0 0 0 0 0 0 0 0 0 0 0 0 0 0 24 0.0008 0 
11642 1 0.0134176 -0.0413167 0.0420288 0 0 0 0.0645041 10.6249 9.24524 0 -1.05196e-05 0 0 0 0 0 0 0 0 0 0 0 0 0 0 0 0 0 0 0.0008 0 
11606 1 0.0114535 -0.0223996 0.0547741 0 0 0 -1.0146 4.92033 3.20305 0 -1.05196e-05 0 0 0 0 0 0 0 0 0 0 0 0 0 0 0 0 0 0 0.0008 0 
11570 8 0.00614517 -0.0108189 0.0578091 0 0 0 -0.288937 8.08899 1.84642 0 -1.05196e-05 0 0 0 0 0 0 0 0 0 0 0 0 0 0 0 0 0 0 0.0008 0 
10146 8 0.0154636 -0.00322491 0.0585627 0 0 0 -3.88942 30.0872 5.19136 0 -1.05196e-05 0 0 0 0 0 0 0 0 0 0 0 0 0 0 0 0 0 6 0.0008 0 
8846 2 0.0165208 -0.00910967 0.0602152 0 0 0 -0.0151926 -0.316308 -0.0351154 0 -1.05196e-05 0 0 0 0 0 0 0 0 0 0 0 0 0 0 0 0 0 6 0.0008 0 
818 5 0.0132059 0.0120021 -0.0595074 0 0 0 0.00134618 -0.313601 -0.0514367 0 -1.05196e-05 0 0 0 0 0 0 0 0 0 0 0 0 0 0 0 0 0 25 0.0008 0 
8040 3 0.0171803 0.0186685 -0.0577352 0 0 0 0.000237998 -0.0501931 -0.053766 0 -1.05196e-05 0 0 0 0 0 0 0 0 0 0 0 0 0 0 0 0 0 11 0.0008 0 
1063 5 0.0126583 0.0244461 -0.0557496 0 0 0 0.00941137 -0.253178 -0.079653 0 -1.05196e-05 0 0 0 0 0 0 0 0 0 0 0 0 0 0 0 0 0 24 0.0008 0 
6066 9 0.00359877 0.0177712 -0.0529479 0 0 0 3.89362 -33.4944 -14.4009 0 -1.05196e-05 0 0 0 0 0 0 0 0 0 0 0 0 0 0 0 0 0 17 0.0008 0 
7893 2 0.0170063 0.0291803 -0.0531697 0 0 0 0.100939 -0.223196 -0.122733 0 -1.05196e-05 0 0 0 0 0 0 0 0 0 0 0 0 0 0 0 0 0 14 0.0008 0 
2675 3 0.0168527 0.0106054 -0.0503854 0 0 0 0.513558 -1.11501 -1.3466 0 -1.05196e-05 0 0 0 0 0 0 0 0 0 0 0 0 0 0 0 0 0 25 0.0008 0 
4670 3 0.00176236 0.0204233 -0.0503727 0 0 0 2.08498 -1.60735 -10.5515 0.012958 0.00102105 0.00639633 0 0 0 0 0 0 0 0 0 0 0 0 0 0 0 0 20 0.0008 0 
7645 5 0.00661069 0.0220892 -0.0491891 0 0 0 1.18853 -20.0946 -8.92549 0 -1.05196e-05 0 0 0 0 0 0 0 0 0 0 0 0 0 0 0 0 0 25 0.0008 0 
4932 2 0.011505 0.0298605 -0.0489567 0 0 0 2.38283 -8.04136 -3.54208 0 -1.05196e-05 0 0 0 0 0 0 0 0 0 0 0 0 0 0 0 0 0 17 0.0008 0 
7779 5 0.0106334 0.0379873 -0.044254 0 0 0 0.27608 -1.11753 -0.87461 0 -1.05196e-05 0 0 0 0 0 0 0 0 0 0 0 0 0 0 0 0 0 18 0.0008 0 
11657 5 0.00631824 0.0351672 -0.0427201 0 0 0 -1.63578 -2.75327 -12.2223 0 -1.05196e-05 0 0 0 0 0 0 0 0 0 0 0 0 0 0 0 0 0 0 0.0008 0 
11503 7 0.00359723 0.01484 -0.0354011 0 0 0 0.227268 -2.1722 -2.0803 0 -1.05196e-05 0 0 0 0 0 0 0 0 0 0 0 0 0 0 0 0 0 0 0.0008 0 
1921 6 0.0184753 0.0415501 -0.0349966 0 0 0 -1.27739 -2.75102 -1.79533 0 -1.05196e-05 0 0 0 0 0 0 0 0 0 0 0 0 0 0 0 0 0 25 0.0008 0 
2321 7 0.0103076 0.0510907 -0.0355 0 0 0 5.67311e-16 8.88517e-17 3.53505e-12 -5.57776e-18 -3.07219e-18 2.22045e-16 0 0 0 0 0 0 0 0 0 0 0 0 0 0 0 0 0 0.0008 0 
283 5 0.0079295 0.052223 -0.0355 0 0 0 1.27605e-147 7.54129e-20 4.72344e-12 -8.94441e-148 -8.47033e-22 2.22045e-16 0 0 0 0 0 0 0 0 0 0 0 0 0 0 0 0 0 0.0008 0 
478 2 0.00645355 0.0529587 -0.0355 0 0 0 -7.35024e-303 7.54069e-20 3.53499e-12 -9.31231e-308 8.47033e-22 -2.22045e-16 0 0 0 0 0 0 0 0 0 0 0 0 0 0 0 0 0 0.0008 0 
7581 4 0.010213 0.0535058 -0.0355001 0 0 0 -3.82089e-17 -6.86199e-17 1.7709e-12 -1.0842e-19 -4.33681e-19 0 0 0 0 1 0 0 0 0 0 0 0 0 0 0 0 0 33 0.0008 0 
871 8 0.00608638 0.0559147 -0.0355 0 0 0 4.29875e-302 -1.8635e-20 -2.36058e-12 9.41049e-308 0 2.22045e-16 0 0 0 0 0 0 0 0 0 0 0 0 0 0 0 0 1 0.0008 0 
5520 7 0.00960607 0.0549682 -0.0354999 0 0 0 3.69771e-17 6.70102e-17 1.77111e-12 -4.33681e-19 0 0 0 0 0 1 0 0 0 0 0 0 0 0 0 0 0 0 29 0.0008 0 
9691 4 0.0139213 0.0551115 -0.0355 0 0 0 -9.93362e-290 1.87127e-20 1.18144e-12 1.50108e-290 0 2.22045e-16 0 0 0 0 0 0 0 0 0 0 0 0 0 0 0 0 0 0.0008 0 
6540 8 0.00803831 0.0564616 -0.0355001 0 0 0 -1.97417e-17 6.7303e-17 5.89861e-12 -3.25261e-19 -8.67362e-19 0 0 0 0 0 0 0 0 1 0 0 0 0 0 0 0 0 42 0.0008 0 
2565 7 0.00831901 0.0580136 -0.0354999 0 0 0 1.95849e-17 -6.17028e-17 5.89853e-12 1.0842e-19 0 0 0 0 0 0 0 0 0 1 0 0 0 0 0 0 0 0 42 0.0008 0 
10198 9 0.00996402 0.0577278 -0.0355004 0 0 0 2.98811e-17 -1.98028e-17 -5.30792e-12 0 2.1684e-19 0 0 0 0 0 0 0 0 0 1 0 0 0 0 0 0 0 16 0.0008 0 
5323 6 0.0115237 0.057829 -0.0354996 0 0 0 -8.71426e-17 1.94662e-17 -5.30881e-12 0 -2.1684e-19 0 0 0 0 0 0 0 0 0 1 0 0 0 0 0 0 0 26 0.0008 0 
1583 3 0.0133936 0.0576786 -0.0355 0 0 0 3.31056e-285 -8.44338e-20 -2.15243e-15 -8.59906e-286 0 0 0 0 0 0 0 0 0 0 0 0 0 0 0 0 0 0 7 0.0008 0 
8195 2 0.015332 0.0581076 -0.0355 0 0 0 3.69319e-302 -7.52966e-20 4.72345e-12 -9.43534e-308 0 -2.22045e-16 0 0 0 0 0 0 0 0 0 0 0 0 0 0 0 0 0 0.0008 0 
7394 6 0.00896436 0.0602765 -0.0355 0 0 0 -3.70658e-303 -5.65549e-20 -1.18145e-12 -9.31443e-308 0 2.22045e-16 0 0 0 0 0 0 0 0 0 0 0 0 0 0 0 0 0 0.0008 0 
10333 5 0.0171215 0.0610103 -0.0355 0 0 0 4.38193e-302 -8.49143e-20 3.53498e-12 9.18438e-308 -8.47033e-22 -2.22045e-16 0 0 0 0 0 0 0 0 0 0 0 0 0 0 0 0 0 0.0008 0 
3089 3 0.0107012 0.0617458 -0.0355 0 0 0 -3.7282e-96 1.87918e-20 -5.89791e-12 8.97756e-98 0 2.22045e-16 0 0 0 0 0 0 0 0 0 0 0 0 0 0 0 0 0 0.0008 0 
3064 5 0.00572085 0.0664199 -0.0355 0 0 0 3.62096e-302 6.60917e-20 1.18143e-12 9.43406e-308 0 -2.22045e-16 0 0 0 0 0 0 0 0 0 0 0 0 0 0 0 0 0 0.0008 0 
7839 6 0.012257 0.0669978 -0.0355 0 0 0 3.82186e-302 8.49774e-20 -4.72344e-12 -7.28198e-308 0 2.22045e-16 0 0 0 0 0 0 0 0 0 0 0 0 0 0 0 0 0 0.0008 0 
5230 4 0.00286291 0.0725754 -0.0355 0 0 0 -3.11414e-302 -9.64991e-21 2.36059e-12 9.17181e-308 0 -2.22045e-16 0 0 0 0 0 0 0 0 0 0 0 0 0 0 0 0 0 0.0008 0 
2130 11 0.0169244 0.0756741 -0.0355021 0 0 0 2.69281e-16 3.02632e-17 -3.54137e-12 0 -8.67362e-19 0 0 0 0 0 0 0 0 0 0 0 1 0 0 0 0 0 57 0.0008 0 
4708 6 0.0184167 0.0757554 -0.0354979 0 0 0 -4.27998e-16 -7.27522e-18 -3.54003e-12 6.93889e-18 8.67362e-19 0 0 0 0 0 0 0 0 0 0 0 1 0 0 0 0 0 60 0.0008 0 
1962 1 0.00586647 0.0767904 -0.0355 0 0 0 -3.1314e-302 4.72695e-20 3.53506e-12 -9.42881e-308 0 2.22045e-16 0 0 0 0 0 0 0 0 0 0 0 0 0 0 0 0 3 0.0008 0 
5274 5 0.0152254 0.0938764 -0.0355 0 0 0 3.63112e-303 -5.65925e-20 4.72347e-12 9.51712e-308 0 -2.22045e-16 0 0 0 0 0 0 0 0 0 0 0 0 0 0 0 0 0 0.0008 0 
291 2 0.00585706 0.0471565 -0.0338228 0 0 0 1.16674 -4.12115 -0.62915 0 -1.05196e-05 0 0 0 0 0 0 0 0 0 0 0 0 0 0 0 0 0 21 0.0008 0 
1775 2 0.0122315 0.0483986 -0.0336391 0 0 0 -2.60728 -1.26406 -1.76035 0 -1.05196e-05 0 0 0 0 0 0 0 0 0 0 0 0 0 0 0 0 0 16 0.0008 0 
8111 4 0.00208326 0.0540104 -0.0340225 0 0 0 -0.102043 -1.8838 -1.21393 0 -1.05196e-05 0 0 0 0 0 0 0 0 0 0 0 0 0 0 0 0 0 18 0.0008 0 
11281 1 0.0115117 0.054841 -0.0334154 0 0 0 -0.855522 -0.624751 -0.95338 0 -1.05196e-05 0 0 0 0 0 0 0 0 0 0 0 0 0 0 0 0 0 0 0.0008 0 
11510 2 0.00774124 0.0575622 -0.0336365 0 0 0 0.277065 -0.546906 -0.242504 0 -1.05196e-05 0 0 0 0 0 0 0 0 0 0 0 0 0 0 0 0 0 0 0.0008 0 
3494 6 0.0172561 0.0776435 -0.0339277 0 0 0 -1.68394 0.109294 0.204016 0 -1.05196e-05 0 0 0 0 0 0 0 0 0 0 0 0 0 0 0 0 0 26 0.0008 0 
2025 2 0.00277472 0.0891564 -0.0338175 0 0 0 0.51835 -0.587829 -0.848061 0 -1.05196e-05 0 0 0 0 0 0 0 0 0 0 0 0 0 0 0 0 0 24 0.0008 0 
2926 3 0.00343765 0.0922442 -0.0336437 0 0 0 0.681033 -0.407459 0.100014 0.00190916 0.0146962 -0.0119685 0 0 1 0 0 0 0 0 0 0 0 0 0 0 0 0 22 0.0008 0 
6092 3 0.0185326 0.092607 -0.0338752 0 0 0 -0.360856 -0.985213 0.133104 0 -1.05196e-05 0 0 0 0 0 0 0 0 0 0 0 0 0 0 0 0 0 20 0.0008 0 
3585 2 0.0170126 0.0978428 -0.0340611 0 0 0 0.169391 -0.296208 0.115581 0 -1.05196e-05 0 0 0 0 0 0 0 0 0 0 0 0 0 0 0 0 0 32 0.0008 0 
7665 5 0.018502 0.0987402 -0.0341798 0 0 0 0.113993 -0.216975 -0.00217321 0 -1.05196e-05 0 0 0 0 0 0 0 0 0 0 0 0 0 0 0 0 0 13 0.0008 0 
9724 1 0.00424187 0.0998954 -0.0341392 0 0 0 0.139522 0.344163 0.199631 0 -1.05196e-05 0 0 0 0 0 0 0 0 0 0 0 0 0 0 0 0 0 12 0.0008 0 
11395 4 0.0018375 0.100864 -0.0337918 0 0 0 0.0156589 0.0619917 -0.193641 0 -1.05196e-05 0 0 0 0 0 0 0 0 0 0 0 0 0 0 0 0 0 0 0.0008 0 
5743 4 0.00658911 0.100467 -0.0335404 0 0 0 0.173944 -0.1307 -0.466938 0 -1.05196e-05 0 0 0 0 0 0 0 0 0 0 0 0 0 0 0 0 0 19 0.0008 0 
9388 8 0.00793661 0.10111 -0.0341912 0 0 0 0.327371 0.542608 0.18615 0 -1.05196e-05 0 0 0 0 0 0 0 0 0 0 0 0 0 0 0 0 0 6 0.0008 0 
8315 5 0.0139754 0.100915 -0.0335599 0 0 0 -0.00620917 -0.252637 0.234988 0 -1.05196e-05 0 0 0 0 0 0 0 0 0 0 0 0 0 0 0 0 0 15 0.0008 0 
10556 8 0.0185801 0.101216 -0.0340914 0 0 0 0.0614779 0.0794636 0.0758122 0 -1.05196e-05 0 0 0 0 0 0 0 0 0 0 0 0 0 0 0 0 0 2 0.0008 0 
10434 1 0.00490709 0.101923 -0.0341232 0 0 0 -0.225901 0.0193312 0.136403 -0.000646241 0.00102347 0.000358413 1 0 0 0 0 0 0 0 0 0 0 0 0 0 0 0 9 0.0008 0 
11419 2 0.015552 0.101746 -0.0339474 0 0 0 -0.0452637 -0.0154412 0.157089 0 -1.05196e-05 0 0 0 0 0 0 0 0 0 0 0 0 0 0 0 0 0 3 0.0008 0 