ITEM: TIMESTEP
17800000
ITEM: NUMBER OF ATOMS
2154
ITEM: BOX BOUNDS ff ff ff
-0.01 0.45
-0.15 0.15
-0.08 0.1
ITEM: ATOMS id type x y z ix iy iz vx vy vz fx fy fz c_cc_1 c_cc_2 c_cc_3 c_cc_4 c_cc_5 c_cc_6 c_cc_7 c_cc_8 c_cc_9 c_cc_10 c_cc_11 c_cc_12 c_cc_13 c_cc_14 c_cc_15 c_cc_16 f_fppacc radius 
1981 13 0.00402814 -0.0577804 0.000742647 0 0 0 -16.3813 1.69593 28.4586 -0.0408281 -0.129474 0.0754401 0 0 0 0 0 0 0 0 0 0 0 0 0 0 0 0 27 0.002 
486 2 0.0152886 -0.0526529 0.0164496 0 0 0 0.258876 -0.840143 2.93254 0 -0.000164368 0 0 0 0 0 0 0 0 0 0 0 0 0 0 0 0 0 118 0.002 
471 5 0.00882403 -0.0495057 0.028705 0 0 0 1.01558 2.05683 4.0918 0 -0.000164368 0 0 0 0 0 0 0 0 0 0 0 0 0 0 0 0 0 153 0.002 
2206 6 0.0115597 -0.0426978 0.038923 0 0 0 -0.432928 3.35116 3.79204 -0.0152434 0.0420932 -0.103767 0 0 0 0 0 0 0 0 0 0 0 0 0 0 0 0 0 0.002 
1814 5 0.0173635 -0.0377091 0.0437458 0 0 0 1.03774 4.52336 4.47561 0 -0.000164368 0 0 0 0 0 0 0 0 0 0 0 0 0 0 0 0 0 18 0.002 
131 7 0.016485 -0.0318632 0.0480382 0 0 0 3.40581 5.27435 6.636 0 -0.000164368 0 0 0 0 0 0 0 0 0 0 0 0 0 0 0 0 0 171 0.002 
245 1 0.0168628 0.00433533 -0.0513332 0 0 0 1.13205 -6.85794 -1.63368 0 -0.000164368 0 0 0 0 0 0 0 0 0 0 0 0 0 0 0 0 0 113 0.002 
875 2 0.0058307 0.0240892 -0.0386967 0 0 0 0.100636 -2.48076 -0.696047 0 -0.000164368 0 0 0 0 0 0 0 0 0 0 0 0 0 0 0 0 0 75 0.002 
1388 1 0.00988962 0.00833412 -0.0446884 0 0 0 0.364575 -13.4039 -19.2181 0 -0.000164368 0 0 0 0 0 0 0 0 0 0 0 0 0 0 0 0 0 118 0.002 
589 5 0.011136 0.0277547 -0.0264415 0 0 0 1.187 1.06692 -1.00108 0 -0.000164368 0 0 0 0 0 0 0 0 0 0 0 0 0 0 0 0 0 152 0.002 
1460 2 0.00706449 0.0291144 -0.0256591 0 0 0 0.330962 -2.90605 0.409918 0 -0.000164368 0 0 0 0 0 0 0 0 0 0 0 0 0 0 0 0 0 97 0.002 
597 6 0.00965113 0.0371413 -0.02125 0 0 0 0.564049 0.344724 -0.419527 0 -0.000164368 0 0 0 0 0 0 0 0 0 0 0 0 0 0 0 0 0 142 0.002 
2175 1 0.00379895 0.035736 -0.0174552 0 0 0 0.0925933 -1.56251 0.794696 0 -0.000164368 0 0 0 0 0 0 0 0 0 0 0 0 0 0 0 0 0 0 0.002 
1344 1 0.0163965 0.0369104 -0.0135427 0 0 0 0.853075 -9.3695 5.84574 0 -0.000164368 0 0 0 0 0 0 0 0 0 0 0 0 0 0 0 0 0 93 0.002 
562 3 0.00585727 0.0284016 0.0303708 0 0 0 0.976262 -2.42593 2.78926 0 -0.000164368 0 0 0 0 0 0 0 0 0 0 0 0 0 0 0 0 0 112 0.002 
403 8 0.00316166 0.0199882 0.0372844 0 0 0 0.255855 0.818509 -0.920152 0 -0.000164368 0 0 0 0 0 0 0 0 0 0 0 0 0 0 0 0 0 178 0.002 
811 5 0.00332179 0.0244532 0.0415039 0 0 0 2.38395 -0.215469 -3.53152 0 -0.000164368 0 0 0 0 0 0 0 0 0 0 0 0 0 0 0 0 0 132 0.002 
661 2 0.0138438 0.0279344 0.0503747 0 0 0 2.68168 19.9151 -11.3957 0 -0.000164368 0 0 0 0 0 0 0 0 0 0 0 0 0 0 0 0 0 171 0.002 
463 9 0.00524323 0.00393549 0.0578297 0 0 0 -23.9514 40.1055 -4.03248 0.062358 -0.248417 -1.33514 0 0 0 0 0 0 0 0 0 0 0 0 0 0 0 0 138 0.002 
41 1 0.0150676 0.0528701 -0.035501 0 0 0 4.90451e-16 -1.4962e-15 4.77129e-12 2.77556e-17 -5.55112e-17 0 1 0 0 0 0 0 0 0 0 0 0 0 0 0 0 0 143 0.002 
480 3 0.0160523 0.0564901 -0.035499 0 0 0 -5.1434e-16 1.57921e-15 4.7721e-12 -1.38778e-17 5.55112e-17 0 1 0 0 0 0 0 0 0 0 0 0 0 0 0 0 0 187 0.002 
1707 1 0.0127336 0.0625969 -0.0355 0 0 0 -2.02254e-107 -1.82489e-19 6.17506e-12 1.78772e-107 0 0 0 0 0 0 0 0 0 0 0 0 0 0 0 0 0 0 1 0.002 
286 14 0.015847 0.0688574 -0.0355 0 0 0 4.62337e-28 -8.40074e-23 2.24234e-12 -2.13242e-28 -1.35525e-20 -3.55271e-15 0 0 0 0 0 0 0 0 0 0 0 0 0 0 0 0 131 0.002 
2210 8 0.00830755 0.0426069 -0.0320909 0 0 0 0.164814 -1.90228 -0.287163 0 -0.000164368 0 0 0 0 0 0 0 0 0 0 0 0 0 0 0 0 0 1 0.002 
1263 2 0.00945989 0.0736936 -0.0231893 0 0 0 5.65354 -4.49679 -5.28171 0 -0.000164368 0 0 0 0 0 0 0 0 0 0 0 0 0 0 0 0 0 119 0.002 
1763 7 0.00333271 0.0548771 -0.027681 0 0 0 0.677663 -0.415622 -0.112119 0 -0.000164368 0 0 0 0 0 0 0 0 0 0 0 0 0 0 0 0 0 66 0.002 
479 9 0.00998087 0.0669803 -0.0291738 0 0 0 -0.916507 -1.62202 -0.651262 0 -0.000164368 0 0 0 0 0 0 0 0 0 0 0 0 0 0 0 0 0 137 0.002 
13 4 0.0172125 0.0430847 -0.0255695 0 0 0 -0.221204 -2.95247 0.435864 0 -0.000164368 0 0 0 0 0 0 0 0 0 0 0 0 0 0 0 0 0 81 0.002 
1550 2 0.00898497 0.0510124 -0.0169823 0 0 0 -0.784364 -1.99893 2.45665 0 -0.000164368 0 0 0 0 0 0 0 0 0 0 0 0 0 0 0 0 0 41 0.002 
1459 3 0.0132576 0.0734314 -0.0203 0 0 0 -2.60054 0.891831 -1.70896 0 -0.000164368 0 0 0 0 0 0 0 0 0 0 0 0 0 0 0 0 0 100 0.002 
1039 3 0.0162214 0.0734886 -0.0244245 0 0 0 -8.01566 8.95818 -27.4673 0 -0.000164368 0 0 0 0 0 0 0 0 0 0 0 0 0 0 0 0 0 140 0.002 
1711 12 0.00485932 0.0643377 -0.0092276 0 0 0 -14.1623 3.80041 11.9971 0 -0.000164368 0 0 0 0 0 0 0 0 0 0 0 0 0 0 0 0 0 79 0.002 
1831 1 0.00576373 0.0464894 0.00439593 0 0 0 -0.964823 -1.0809 0.106311 0.011486 -0.0171011 0.013985 1 0 0 0 0 0 0 0 0 0 0 0 0 0 0 0 52 0.002 
1946 8 0.00439376 0.0501424 0.00364771 0 0 0 0.615973 -0.0619399 1.87993 -0.011486 0.0167724 -0.013985 1 0 0 0 0 0 0 0 0 0 0 0 0 0 0 0 49 0.002 
968 2 0.00337257 0.0687945 -0.0059493 0 0 0 -1.95118 -1.04488 0.808783 0 -0.000164368 0 0 0 0 0 0 0 0 0 0 0 0 0 0 0 0 0 120 0.002 
440 5 0.00815523 0.0617755 -0.00556028 0 0 0 -11.7532 -0.683493 -1.84227 0 -0.000164368 0 0 0 0 0 0 0 0 0 0 0 0 0 0 0 0 0 91 0.002 
1620 1 0.00887464 0.0705578 0.0117282 0 0 0 -0.0955034 -0.75992 -0.65779 0 -0.000164368 0 0 0 0 0 0 0 0 0 0 0 0 0 0 0 0 0 56 0.002 
632 6 0.00406422 0.074906 0.0143967 0 0 0 0.125269 0.281737 0.3763 0 -0.000164368 0 0 0 0 0 0 0 0 0 0 0 0 0 0 0 0 0 192 0.002 
1558 2 0.0030148 0.0689659 0.0163849 0 0 0 0.0160589 0.135308 -0.708075 0 -0.000164368 0 0 0 0 0 0 0 0 0 0 0 0 0 0 0 0 0 112 0.002 
3 2 0.0160073 0.0700256 0.0140283 0 0 0 -3.90432 0.961056 -1.98023 0 -0.000164368 0 0 0 0 0 0 0 0 0 0 0 0 0 0 0 0 0 74 0.002 
1801 1 0.0101346 0.071322 0.0162834 0 0 0 0.131435 -0.246965 -0.505716 0 -0.000164368 0 0 0 0 0 0 0 0 0 0 0 0 0 0 0 0 0 71 0.002 
751 3 0.00441221 0.0407503 0.0208903 0 0 0 -1.97096 -3.37038 3.96461 0 -0.000164368 0 0 0 0 0 0 0 0 0 0 0 0 0 0 0 0 0 160 0.002 
156 4 0.00667817 0.0697077 0.0179162 0 0 0 -0.0158713 -0.12851 -0.591787 0 -0.000164368 0 0 0 0 0 0 0 0 0 0 0 0 0 0 0 0 0 161 0.002 
1280 1 0.0109653 0.0524886 0.0202275 0 0 0 -2.21497 -1.54675 2.44793 0 -0.000164368 0 0 0 0 0 0 0 0 0 0 0 0 0 0 0 0 0 106 0.002 
1420 4 0.00428213 0.0669257 0.0200703 0 0 0 0.143186 0.223279 -0.367942 0 -0.000164368 0 0 0 0 0 0 0 0 0 0 0 0 0 0 0 0 0 67 0.002 
182 2 0.00881498 0.066509 0.0196624 0 0 0 0.309367 -0.0853891 -0.637432 0 -0.000164368 0 0 0 0 0 0 0 0 0 0 0 0 0 0 0 0 0 199 0.002 
2012 11 0.0159139 0.0702859 0.0204994 0 0 0 -1.29824 1.13363 0.085456 0 -0.000164368 0 0 0 0 0 0 0 0 0 0 0 0 0 0 0 0 0 55 0.002 
294 1 0.00336062 0.0719974 0.0195355 0 0 0 -0.156775 -0.273369 -0.117684 0 -0.000164368 0 0 0 0 0 0 0 0 0 0 0 0 0 0 0 0 0 143 0.002 
1117 1 0.0120134 0.0740276 0.0206665 0 0 0 0.0230138 -0.318584 -0.0548222 0 -0.000164368 0 0 0 0 0 0 0 0 0 0 0 0 0 0 0 0 0 155 0.002 
1560 6 0.0162234 0.0742856 0.0198831 0 0 0 0.180034 -0.17402 -0.154056 0.000201226 -0.00182904 0.00040041 0 0 0 0 0 1 0 0 0 0 0 0 0 0 0 0 84 0.002 
1465 4 0.00316368 0.0614688 0.0228277 0 0 0 0.118915 -0.370262 -0.585361 0 -0.000164368 0 0 0 0 0 0 0 0 0 0 0 0 0 0 0 0 0 95 0.002 
1423 7 0.0101102 0.0632095 0.0217736 0 0 0 0.516201 -0.0484936 -0.568234 0 -0.000164368 0 0 0 0 0 0 0 0 0 0 0 0 0 0 0 0 0 129 0.002 
1369 12 0.0177728 0.0632237 0.0224103 0 0 0 -1.25886 0.36274 -0.471691 0 -0.000164368 0 0 0 0 0 0 0 0 0 0 0 0 0 0 0 0 0 110 0.002 
1454 8 0.013888 0.066454 0.0211696 0 0 0 0.277912 -0.0937579 -0.515211 0 -0.000164368 0 0 0 0 0 0 0 0 0 0 0 0 0 0 0 0 0 42 0.002 
325 6 0.00810829 0.0716441 0.0229659 0 0 0 0.323671 0.260922 -0.407897 0 -0.000164368 0 0 0 0 0 0 0 0 0 0 0 0 0 0 0 0 0 143 0.002 
703 3 0.0157829 0.0623504 0.025814 0 0 0 -0.517278 -0.441959 0.527457 0 -0.000164368 0 0 0 0 0 0 0 0 0 0 0 0 0 0 0 0 0 162 0.002 
1696 5 0.0163819 0.0675485 0.0242835 0 0 0 -0.778895 0.395337 -0.507843 0 -0.000164368 0 0 0 0 0 0 0 0 0 0 0 0 0 0 0 0 0 115 0.002 
753 6 0.0129661 0.0696549 0.0241382 0 0 0 0.344381 -0.242942 -0.0196764 0 -0.000164368 0 0 0 0 0 0 0 0 0 0 0 0 0 0 0 0 0 201 0.002 
1271 4 0.00308583 0.0718192 0.0240221 0 0 0 0.0431437 -0.117322 -0.1134 0 -0.000164368 0 0 0 0 0 0 0 0 0 0 0 0 0 0 0 0 0 131 0.002 
1427 4 0.0114333 0.0734961 0.0252675 0 0 0 -0.0444464 -0.20354 -0.0485694 0 -0.000164368 0 0 0 0 0 0 0 0 0 0 0 0 0 0 0 0 0 109 0.002 
615 3 0.0154569 0.0739521 0.0244764 0 0 0 0.0141714 0.0658122 -0.0597033 0.0175099 -0.0223531 0.00532627 0 0 1 0 0 0 0 0 0 0 0 0 0 0 0 0 80 0.002 
300 1 0.00693337 0.0674071 0.0257594 0 0 0 0.0828782 0.0574105 -0.320255 0 -0.000164368 0 0 0 0 0 0 0 0 0 0 0 0 0 0 0 0 0 163 0.002 
1576 5 0.00324884 0.068772 0.0266219 0 0 0 0.0573027 -0.145641 -0.136735 0 -0.000164368 0 0 0 0 0 0 0 0 0 0 0 0 0 0 0 0 0 99 0.002 
411 1 0.00978688 0.0698306 0.0271897 0 0 0 0.0612701 0.0304057 0.0306413 0 -0.000164368 0 0 0 0 0 0 0 0 0 0 0 0 0 0 0 0 0 117 0.002 
1509 6 0.0164586 0.0707883 0.0267474 0 0 0 -0.202924 0.185991 0.232371 0.000766084 0.000374325 9.41251e-06 0 0 0 0 0 1 0 0 0 0 0 0 0 0 0 0 93 0.002 
972 3 0.00728109 0.0741263 0.0268407 0 0 0 0.0481948 -0.0352581 -0.0482852 0 -0.000164368 0 0 0 0 0 0 0 0 0 0 0 0 0 0 0 0 0 174 0.002 
880 6 0.00923344 0.0531765 0.0301877 0 0 0 -0.221837 -0.505383 -0.0107977 0 -0.000164368 0 0 0 0 0 0 0 0 0 0 0 0 0 0 0 0 0 47 0.002 
350 8 0.0159677 0.0559237 0.0283484 0 0 0 -3.1758 0.457551 -1.72945 0 -0.000164368 0 0 0 0 0 0 0 0 0 0 0 0 0 0 0 0 0 199 0.002 
1823 7 0.0103808 0.0601817 0.0284363 0 0 0 1.71989 1.30935 -0.777173 0 -0.000164368 0 0 0 0 0 0 0 0 0 0 0 0 0 0 0 0 0 73 0.002 
1992 2 0.0111034 0.0649915 0.0291644 0 0 0 -0.207151 -0.408472 0.277041 0 -0.000164368 0 0 0 0 0 0 0 0 0 0 0 0 0 0 0 0 0 39 0.002 
1912 2 0.00521667 0.0667987 0.0299227 0 0 0 0.245785 0.140743 -0.25097 0 -0.000164368 0 0 0 0 0 0 0 0 0 0 0 0 0 0 0 0 0 32 0.002 
1362 8 0.0147288 0.0668591 0.0287037 0 0 0 0.193563 -0.16161 0.585587 0.00167119 -0.00220621 -0.00221199 0 0 0 0 0 0 0 1 0 0 0 0 0 0 0 0 87 0.002 
1218 8 0.00303881 0.0721647 0.0297158 0 0 0 0.0112065 -0.01668 -0.0320634 0 -0.000164368 0 0 0 0 0 0 0 0 0 0 0 0 0 0 0 0 0 165 0.002 
2003 2 0.0129393 0.0702695 0.0297658 0 0 0 -0.059849 -0.166472 0.0495186 0.00515778 0.00345447 -0.0183619 0 3 0 0 0 0 0 1 0 0 0 0 0 0 0 0 60 0.002 
2041 1 0.0109202 0.073945 0.0294973 0 0 0 0.0323309 -0.133129 0.0576029 -0.00118878 0.000528943 0.000228463 1 0 0 0 0 0 0 0 0 0 0 0 0 0 0 0 51 0.002 
815 10 0.0148879 0.0736896 0.0290897 0 0 0 0.0144226 -0.200147 -0.0216489 -0.00081557 -0.00126854 0.00167467 1 1 0 0 0 0 0 0 0 1 0 0 0 0 0 0 188 0.002 
1658 1 0.00462934 0.0555266 0.0324042 0 0 0 -0.511265 -0.19972 -0.109548 0 -0.000164368 0 0 0 0 0 0 0 0 0 0 0 0 0 0 0 0 0 79 0.002 
2005 6 0.0145658 0.0536881 0.031928 0 0 0 -0.273464 -0.462308 -0.10954 0 -0.000164368 0 0 0 0 0 0 0 0 0 0 0 0 0 0 0 0 0 29 0.002 
323 7 0.0152295 0.0591983 0.0313554 0 0 0 -2.16422 -0.155429 0.551094 0 -0.000164368 0 0 0 0 0 0 0 0 0 0 0 0 0 0 0 0 0 154 0.002 
1023 1 0.00707359 0.0636347 0.03206 0 0 0 0.33856 0.217341 -0.0664276 0 -0.000164368 0 0 0 0 0 0 0 0 0 0 0 0 0 0 0 0 0 145 0.002 
1387 4 0.00969754 0.0677217 0.0318632 0 0 0 0.152655 -0.0224604 -0.059976 0 -0.000164368 0 0 0 0 0 0 0 0 0 0 0 0 0 0 0 0 0 132 0.002 
572 3 0.0179516 0.0692091 0.0302044 0 0 0 0.0243417 0.110971 -0.209631 -0.0322769 -0.02533 0.00539902 0 0 2 0 0 0 0 0 0 0 0 0 0 0 0 0 124 0.002 
1418 6 0.0181151 0.0748335 0.0314074 0 0 0 0.0251131 -0.154441 0.00431602 0.000407497 -0.000769719 0.000119682 0 0 0 0 0 1 0 0 0 0 0 0 0 0 0 0 69 0.002 
468 8 0.0117461 0.0506577 0.032492 0 0 0 -0.297178 -0.417391 -0.191392 0 -0.000164368 0 0 0 0 0 0 0 0 0 0 0 0 0 0 0 0 0 184 0.002 
1975 1 0.00939628 0.0565429 0.0327825 0 0 0 0.0803886 -1.14306 -0.215093 0 -0.000164368 0 0 0 0 0 0 0 0 0 0 0 0 0 0 0 0 0 40 0.002 
1175 4 0.0115015 0.0631217 0.0329926 0 0 0 0.432769 -0.0239563 0.00245294 0 -0.000164368 0 0 0 0 0 0 0 0 0 0 0 0 0 0 0 0 0 140 0.002 
1279 4 0.0160647 0.0629766 0.032614 0 0 0 0.166992 -0.0216361 0.042171 -0.0156131 -0.0158323 -0.0118833 0 0 0 1 0 0 0 0 0 0 0 0 0 0 0 0 103 0.002 
675 1 0.018035 0.0664078 0.0330179 0 0 0 -0.0545766 0.0478515 -0.0946491 -0.00769984 -0.00895503 -0.00103863 1 0 1 1 0 0 0 0 0 0 0 0 0 0 0 0 113 0.002 
1789 2 0.0030544 0.0695385 0.0327832 0 0 0 -0.000851928 -0.0280863 -0.0234946 0 -0.000164368 0 0 0 0 0 0 0 0 0 0 0 0 0 0 0 0 0 76 0.002 
878 12 0.0140284 0.0682064 0.0330032 0 0 0 0.143741 -0.142693 0.0367351 -0.00218299 0.000770128 -0.00132195 0 1 0 0 0 0 0 0 0 0 0 0 0 0 0 0 144 0.002 
263 2 0.00678071 0.0711697 0.0329817 0 0 0 0.0624968 -0.106495 -0.000784968 0 -0.000164368 0 0 0 0 0 0 0 0 0 0 0 0 0 0 0 0 0 160 0.002 
644 7 0.0107788 0.071503 0.0328578 0 0 0 -0.147454 -0.0540547 0.249512 -0.00816223 -0.0020499 0.0173557 0 1 0 0 0 0 0 0 0 0 0 0 0 0 0 0 187 0.002 
638 6 0.015697 0.0718962 0.0328141 0 0 0 0.0593468 -0.168108 -0.0247142 0 -0.000164368 0 0 0 0 0 0 0 0 0 0 0 0 0 0 0 0 0 123 0.002 
937 4 0.00307327 0.0745427 0.0329335 0 0 0 0.00907672 -0.0464468 -0.0041736 0 -0.000164368 0 0 0 0 0 0 0 0 0 0 0 0 0 0 0 0 0 137 0.002 
953 3 0.00369525 0.0531815 0.0262577 0 0 0 -6.1047 18.4354 -22.4415 0 -0.000164368 0 0 0 0 0 0 0 0 0 0 0 0 0 0 0 0 0 128 0.002 
1060 2 0.0187113 0.0737389 0.0153243 0 0 0 -0.11283 0.590407 -0.652826 0 -0.000164368 0 0 0 0 0 0 0 0 0 0 0 0 0 0 0 0 0 132 0.002 
1969 4 0.0127735 0.074977 0.0329979 0 0 0 0.0225378 -0.228716 -0.00268789 0 -0.000164368 0 0 0 0 0 0 0 0 0 0 0 0 0 0 0 0 0 63 0.002 
186 11 0.00352065 0.0799078 -0.0316998 0 0 0 0.617011 0.657003 0.214979 0 -0.000164368 0 0 0 0 0 0 0 0 0 0 0 0 0 0 0 0 0 74 0.002 
926 2 0.00929704 0.0836967 -0.0327388 0 0 0 1.25545 -0.218519 0.492486 0 -0.000164368 0 0 0 0 0 0 0 0 0 0 0 0 0 0 0 0 0 143 0.002 
1827 1 0.00355126 0.0865084 -0.0326183 0 0 0 0.0786897 0.538257 -0.155426 -0.0433559 0.172713 -0.403949 1 0 0 0 0 0 0 0 0 0 0 0 0 0 0 0 51 0.002 
212 5 0.0149379 0.0870391 -0.0327907 0 0 0 1.76508 1.24535 -0.0970965 -0.0823385 -0.0974184 -0.105699 0 0 0 0 1 0 0 0 0 0 0 0 0 0 0 0 22 0.002 
1673 6 0.00916113 0.0880967 -0.0327938 0 0 0 0.614094 -0.467653 0.0223673 0 -0.000164368 0 0 0 0 0 0 0 0 0 0 0 0 0 0 0 0 0 87 0.002 
1074 10 0.010536 0.0922421 -0.0325395 0 0 0 0.545159 0.918975 -0.316668 -0.000669493 -0.00337371 0.0178207 0 0 0 0 0 0 0 0 0 1 0 0 0 0 0 0 148 0.002 
2197 3 0.0150637 0.0948316 -0.0326702 0 0 0 0.517651 0.0339072 0.0180333 0 -0.000164368 0 0 0 0 0 0 0 0 0 0 0 0 0 0 0 0 0 0 0.002 
929 3 0.0106719 0.0962847 -0.0330073 0 0 0 0.162944 -0.0618686 0.0273133 -0.00275568 0.00220014 0.00726214 0 0 0 0 0 0 0 0 0 0 0 0 0 0 0 0 145 0.002 
1261 5 0.00579476 0.0993032 -0.0329737 0 0 0 0.222325 -0.258952 0.00445267 0 -0.000164368 0 0 0 0 0 0 0 0 0 0 0 0 0 0 0 0 0 96 0.002 
413 11 0.0113415 0.100281 -0.032956 0 0 0 0.325347 -0.0150063 0.0171346 0.00280599 -0.00303787 -0.00209233 0 0 0 0 0 0 0 0 0 0 1 0 0 0 0 0 95 0.002 
1852 2 0.0154906 0.0989142 -0.0322935 0 0 0 0.189521 0.0333776 -0.0620915 -0.000908675 -0.000347083 0.000563392 0 1 0 0 0 0 0 0 0 0 0 0 0 0 0 0 47 0.002 
784 7 0.00811127 0.102624 -0.0327724 0 0 0 0.229392 -0.240483 0.0940166 -0.00280599 0.00270914 0.00209233 0 0 0 0 0 0 0 0 0 0 1 0 0 0 0 0 167 0.002 
1126 4 0.0148473 0.102958 -0.0324907 0 0 0 0.0972487 0.166237 0.139594 0 -0.000164368 0 0 0 0 0 0 0 0 0 0 0 0 0 0 0 0 0 136 0.002 
1300 2 0.00380677 0.103185 -0.0319263 0 0 0 0.256697 -0.136538 0.152133 0 -0.000164368 0 0 0 0 0 0 0 0 0 0 0 0 0 0 0 0 0 123 0.002 
985 4 0.018564 0.104962 -0.0329986 0 0 0 0.267407 0.136059 0.0185888 0 -0.000164368 0 0 0 0 0 0 0 0 0 0 0 0 0 0 0 0 0 115 0.002 
450 2 0.00360073 0.107715 -0.032905 0 0 0 0.160446 -0.0701778 -0.0206933 0 -0.000164368 0 0 0 0 0 0 0 0 0 0 0 0 0 0 0 0 0 140 0.002 
1690 9 0.00840318 0.1067 -0.0325059 0 0 0 0.0511525 -0.073776 -0.00981551 -0.0124617 -0.00382485 -0.000247546 0 0 0 0 0 0 0 0 1 0 0 0 0 0 0 0 83 0.002 
2123 2 0.0122388 0.106095 -0.0316634 0 0 0 0.26855 0.0224296 0.15034 0.0124617 0.00349611 0.000247546 0 0 0 0 0 0 0 0 1 0 0 0 0 0 0 0 8 0.002 
524 5 0.0158477 0.107895 -0.032839 0 0 0 0.15865 -0.0501334 0.04985 0 -0.000164368 0 0 0 0 0 0 0 0 0 0 0 0 0 0 0 0 0 165 0.002 
1841 8 0.0155882 0.0904274 -0.0309095 0 0 0 0.265729 0.471199 0.483557 0.0823385 0.0970897 0.105699 0 0 0 0 1 0 0 0 0 0 0 0 0 0 0 0 50 0.002 
2025 2 0.0031232 0.0956245 -0.0312562 0 0 0 0.0441483 -0.369354 0.305276 0 -0.000164368 0 0 0 0 0 0 0 0 0 0 0 0 0 0 0 0 0 39 0.002 
2195 3 0.00718371 0.0944388 -0.0291832 0 0 0 0.171698 -0.0722325 0.677975 0 -0.000164368 0 0 0 0 0 0 0 0 0 0 0 0 0 0 0 0 0 0 0.002 
1027 1 0.00339082 0.0994568 -0.0295407 0 0 0 0.0560528 -0.0628083 0.0220036 0 -0.000164368 0 0 0 0 0 0 0 0 0 0 0 0 0 0 0 0 0 148 0.002 
1415 2 0.0042543 0.0849016 -0.0291212 0 0 0 1.65012 0.718886 -4.86876 0.0242733 -0.182969 0.475927 1 2 0 0 0 0 0 0 0 0 0 0 0 0 0 0 98 0.002 
1685 2 0.013719 0.0843961 -0.0274906 0 0 0 0.415486 -0.958693 1.01135 0 -0.000164368 0 0 0 0 0 0 0 0 0 0 0 0 0 0 0 0 0 81 0.002 
218 4 0.00353864 0.0887208 -0.0282504 0 0 0 -0.301936 0.0366324 -0.450074 0.0067342 -0.0161277 -0.0129682 0 1 0 0 0 0 0 0 0 0 0 0 0 0 0 0 121 0.002 
1228 8 0.0094911 0.0901196 -0.0293483 0 0 0 0.0652414 0.0324076 -0.12404 0.000669493 0.00304497 -0.0178207 0 0 0 0 0 0 0 0 0 1 0 0 0 0 0 0 132 0.002 
1671 3 0.00310576 0.0929089 -0.0278373 0 0 0 0.116085 -0.0280352 0.371694 0 -0.000164368 0 0 0 0 0 0 0 0 0 0 0 0 0 0 0 0 0 66 0.002 
420 3 0.00839906 0.0974208 -0.0267103 0 0 0 0.311449 -0.21555 0.564483 0.0092067 -8.20712e-05 -0.00615756 0 0 2 0 0 0 0 0 0 0 0 0 0 0 0 0 66 0.002 
1999 7 0.011785 0.0995061 -0.0271253 0 0 0 0.235959 -0.0990255 0.300935 0.000194714 -0.000299393 0.000793914 0 0 1 0 0 0 1 0 0 0 0 0 0 0 0 0 14 0.002 
1921 3 0.00803114 0.10201 -0.027629 0 0 0 0.416035 0.0685272 0.245012 0 -0.000164368 0 0 0 0 0 0 0 0 0 0 0 0 0 0 0 0 0 4 0.002 
1531 3 0.0151156 0.100967 -0.0288321 0 0 0 0.240894 -0.0575338 0.143809 0.00362742 -0.00266314 -0.00592095 0 0 1 0 0 0 0 0 0 0 0 0 0 0 0 0 74 0.002 
1257 5 0.00348535 0.103314 -0.0279161 0 0 0 0.0168294 -0.191802 0.205038 0 -0.000164368 0 0 0 0 0 0 0 0 0 0 0 0 0 0 0 0 0 32 0.002 
1984 2 0.0129358 0.103984 -0.0274098 0 0 0 0.500916 0.0248622 0.306056 -0.0111635 0.00577342 0.00268684 0 0 1 0 0 0 0 0 0 0 0 0 0 0 0 0 51 0.002 
708 1 0.0165692 0.104818 -0.028878 0 0 0 0.1494 -0.0410262 0.0732308 0 -0.000164368 0 0 0 0 0 0 0 0 0 0 0 0 0 0 0 0 0 144 0.002 
717 2 0.00309956 0.107335 -0.0281776 0 0 0 0.0385389 -0.140021 -0.0212587 0 -0.000164368 0 0 0 0 0 0 0 0 0 0 0 0 0 0 0 0 0 172 0.002 
2128 3 0.00777529 0.106134 -0.0282344 0 0 0 0.255284 -0.102034 0.228381 0 -0.000164368 0 0 0 0 0 0 0 0 0 0 0 0 0 0 0 0 0 31 0.002 
650 3 0.0119502 0.107874 -0.0275997 0 0 0 0.289525 -0.0116754 0.149405 0 -0.000164368 0 0 0 0 0 0 0 0 0 0 0 0 0 0 0 0 0 152 0.002 
2213 4 0.00404982 0.0791148 -0.0275084 0 0 0 0.437873 0.865446 -1.76921 0 -0.000164368 0 0 0 0 0 0 0 0 0 0 0 0 0 0 0 0 0 0 0.002 
964 2 0.0156168 0.0876653 -0.0246836 0 0 0 0.974597 -0.598415 0.970165 0 -0.000164368 0 0 0 0 0 0 0 0 0 0 0 0 0 0 0 0 0 113 0.002 
742 3 0.00305898 0.0964764 -0.0260147 0 0 0 -0.0336224 -0.0197115 0.462519 0 -0.000164368 0 0 0 0 0 0 0 0 0 0 0 0 0 0 0 0 0 134 0.002 
698 6 0.0167568 0.097287 -0.0266375 0 0 0 0.562918 -0.131846 0.572572 0 -0.000164368 0 0 0 0 0 0 0 0 0 0 0 0 0 0 0 0 0 147 0.002 
1098 3 0.0184865 0.101129 -0.0267079 0 0 0 0.104124 0.221359 0.323905 0.00497773 -0.00225641 0.00140585 0 0 1 0 0 0 0 0 0 0 0 0 0 0 0 0 100 0.002 
730 3 0.00537697 0.107353 -0.0246782 0 0 0 -0.12689 -0.192314 0.175525 0 -0.000164368 0 0 0 0 0 0 0 0 0 0 0 0 0 0 0 0 0 124 0.002 
1089 6 0.0156739 0.107969 -0.0260068 0 0 0 0.331598 -0.00730567 0.205923 0 -0.000164368 0 0 0 0 0 0 0 0 0 0 0 0 0 0 0 0 0 141 0.002 
1482 1 0.00329084 0.0851225 -0.0253171 0 0 0 -1.11408 4.56676 -3.41447 0.360991 -0.494072 -0.394188 0 1 0 0 0 0 0 0 0 0 0 0 0 0 0 0 124 0.002 
357 7 0.00548637 0.0913549 -0.0235241 0 0 0 2.04836 5.07032 -2.03586 0.299394 0.273201 -0.0202 0 0 0 0 0 0 1 0 0 0 0 0 0 0 0 0 170 0.002 
1246 3 0.0109367 0.092516 -0.0221444 0 0 0 2.27821 -0.286914 -1.9796 0.5272 0.240526 -0.5532 0 0 1 0 0 0 0 0 0 0 0 0 0 0 0 0 39 0.002 
1609 14 0.00572284 0.0991834 -0.0243241 0 0 0 0.387521 -0.200243 0.256143 -0.00872339 0.048025 -0.0759923 0 0 1 0 0 0 0 0 0 0 0 0 0 1 0 0 105 0.002 
1746 2 0.0105571 0.100344 -0.0233837 0 0 0 0.505452 -0.0635144 0.424718 -0.00385815 -0.000640684 -0.000171003 0 1 0 0 0 0 0 0 0 0 0 0 0 0 0 0 76 0.002 
1886 9 0.0143284 0.0992165 -0.0240558 0 0 0 0.561084 0.323128 0.142349 0.000322339 0.000840804 -0.00494022 0 1 0 0 0 0 1 0 1 0 0 0 0 0 0 0 47 0.002 
581 6 0.0178569 0.0987798 -0.0222465 0 0 0 0.522063 -0.0340437 0.192796 0.000823146 -0.00471463 -0.00614828 0 0 0 0 0 0 0 0 1 0 0 0 0 0 0 0 161 0.002 
802 4 0.00299906 0.103445 -0.0239104 0 0 0 -0.0404819 -0.1858 0.128882 0.00272115 -4.14631e-05 -0.00135501 0 0 0 0 0 0 0 0 0 0 0 0 0 0 0 0 149 0.002 
974 2 0.00909763 0.104201 -0.0237676 0 0 0 0.449408 -0.136446 0.299022 0 -0.000164368 0 0 0 0 0 0 0 0 0 0 0 0 0 0 0 0 0 148 0.002 
1332 5 0.0159745 0.103646 -0.0239954 0 0 0 0.0110441 0.219799 0.360034 0 -0.000164368 0 0 0 0 0 0 0 0 0 0 0 0 0 0 0 0 0 129 0.002 
1469 6 0.0137367 0.106625 -0.0223896 0 0 0 0.0859858 0.286835 0.382671 0 -0.000164368 0 0 0 0 0 0 0 0 0 0 0 0 0 0 0 0 0 123 0.002 
1730 4 0.00968564 0.107856 -0.0222123 0 0 0 -0.028407 0.0435798 0.268837 0 -0.000164368 0 0 0 0 0 0 0 0 0 0 0 0 0 0 0 0 0 80 0.002 
56 7 0.00290649 0.0788253 -0.0209817 0 0 0 5.58482 8.00785 -8.64634 -0.543875 0.171802 -0.377144 0 0 0 0 0 0 0 0 0 0 0 0 0 0 0 0 177 0.002 
1535 4 0.0175378 0.0912147 -0.0201126 0 0 0 -1.88001 -0.0709978 0.320448 0 -0.000164368 0 0 0 0 0 0 0 0 0 0 0 0 0 0 0 0 0 36 0.002 
2217 2 0.00321333 0.0974498 -0.0217858 0 0 0 -0.891605 1.13372 -1.2581 -0.222478 0.372434 -0.584028 0 1 0 0 0 0 0 0 0 0 0 0 0 1 0 0 2 0.002 
1602 3 0.00959585 0.096195 -0.0208166 0 0 0 0.409235 -0.684955 -0.155817 0.0142572 -0.0228817 -0.0320618 0 0 1 0 0 0 0 0 0 0 0 0 0 0 0 0 83 0.002 
745 7 0.0135904 0.097568 -0.0198352 0 0 0 0.627489 0.563837 -0.409753 0.0936322 0.287361 -0.252836 0 0 0 0 0 0 1 0 0 0 0 0 0 0 0 0 105 0.002 
1568 2 0.00743715 0.100819 -0.0203561 0 0 0 0.232171 -0.119662 0.313253 0 -0.000164368 0 0 0 0 0 0 0 0 0 0 0 0 0 0 0 0 0 95 0.002 
1972 3 0.0129231 0.102616 -0.0210815 0 0 0 0.420196 0.133821 0.389325 0 -0.000164368 0 0 0 0 0 0 0 0 0 0 0 0 0 0 0 0 0 36 0.002 
369 6 0.0167342 0.103043 -0.0199135 0 0 0 0.391361 0.156572 0.452597 0 -0.000164368 0 0 0 0 0 0 0 0 0 0 0 0 0 0 0 0 0 158 0.002 
1295 8 0.0179105 0.106659 -0.0220844 0 0 0 0.329549 0.171674 0.309189 0 -0.000164368 0 0 0 0 0 0 0 0 0 0 0 0 0 0 0 0 0 113 0.002 
2036 13 0.00307281 0.107816 -0.0213531 0 0 0 0.0121194 -0.0291882 0.314516 0 -0.000164368 0 0 0 0 0 0 0 0 0 0 0 0 0 0 0 0 0 20 0.002 
1540 1 0.0029055 0.0886684 -0.0240376 0 0 0 -0.299079 4.17986 -5.22239 -0.142472 0.00376396 0.284028 0 0 0 0 0 0 1 0 0 0 0 0 0 0 0 0 94 0.002 
427 6 0.00854355 0.0915607 -0.0194604 0 0 0 1.04011 1.14574 -2.25582 -0.5272 -0.240855 0.5532 0 0 1 0 0 0 0 0 0 0 0 0 0 0 0 0 141 0.002 
845 3 0.00413934 0.095586 -0.0186519 0 0 0 0.00070442 2.52632 -2.86595 0.222135 -0.420817 0.666109 0 1 0 0 0 0 0 0 0 0 0 0 0 0 0 0 149 0.002 
2187 8 0.0185493 0.0952286 -0.0196348 0 0 0 -0.0685679 0.129129 -0.302123 0 -0.000164368 0 0 0 0 0 0 0 0 0 0 0 0 0 0 0 0 0 0 0.002 
251 6 0.0179274 0.0989382 -0.0182668 0 0 0 0.264864 -7.23911e-05 0.217987 0.00219834 0.00421712 -0.0109916 0 0 0 0 0 0 0 0 0 0 0 0 0 0 0 0 89 0.002 
1780 6 0.00372897 0.102871 -0.0193407 0 0 0 0.138924 -0.18426 0.282907 0 -0.000164368 0 0 0 0 0 0 0 0 0 0 0 0 0 0 0 0 0 55 0.002 
1610 3 0.00943248 0.104643 -0.0193755 0 0 0 0.222843 0.00903286 0.453253 0 -0.000164368 0 0 0 0 0 0 0 0 0 0 0 0 0 0 0 0 0 81 0.002 
574 5 0.0130886 0.104739 -0.0176889 0 0 0 0.217146 -0.00763034 0.513187 -0.000578968 -0.000474188 -0.00119291 0 0 0 0 2 0 0 0 0 0 0 0 0 0 0 0 146 0.002 
1715 4 0.00708777 0.10789 -0.0191649 0 0 0 0.0488372 -0.07536 0.159638 2.14677e-06 -0.000162237 7.20747e-06 0 0 0 1 0 0 0 0 0 0 0 0 0 0 0 0 95 0.002 
2120 5 0.0152219 0.107917 -0.0189064 0 0 0 0.191986 0.113039 0.514868 0 -0.000164368 0 0 0 0 0 0 0 0 0 0 0 0 0 0 0 0 0 20 0.002 
1349 14 0.0137151 0.0786732 -0.0162589 0 0 0 0.746916 -0.384652 -1.04265 0 -0.000164368 0 0 0 0 0 0 0 0 0 0 0 0 0 0 0 0 0 127 0.002 
1628 6 0.00547373 0.086056 -0.0191457 0 0 0 1.13026 5.29665 -6.53787 0 -0.000164368 0 0 0 0 0 0 0 0 0 0 0 0 0 0 0 0 0 84 0.002 
2037 10 0.00948568 0.083058 -0.0172009 0 0 0 -0.998626 -0.76681 -0.622925 0 -0.000164368 0 0 0 0 0 0 0 0 0 0 0 0 0 0 0 0 0 35 0.002 
1544 8 0.0119625 0.0947459 -0.017761 0 0 0 1.4008 1.68275 -0.545856 -0.0936322 -0.28769 0.252836 0 0 0 0 0 0 1 0 0 0 0 0 0 0 0 0 73 0.002 
967 2 0.00811011 0.0978159 -0.0175422 0 0 0 0.251124 1.43667 -0.692859 0.00361499 0.0590971 0.0145963 0 1 1 0 0 0 0 0 0 0 0 0 0 0 0 0 130 0.002 
452 8 0.00301246 0.100016 -0.0165775 0 0 0 0.0029614 -0.0707042 0.0318629 0 -0.000164368 0 0 0 0 0 0 0 0 0 0 0 0 0 0 0 0 0 132 0.002 
2176 1 0.0101836 0.101185 -0.0173506 0 0 0 1.51115 2.27593 -0.566509 -0.125031 -0.0942509 -0.0184277 1 1 0 0 0 0 0 0 0 0 0 0 0 0 0 0 3 0.002 
356 7 0.0138553 0.101225 -0.0159027 0 0 0 0.363028 0.103842 0.485405 0.107158 0.0573781 0.0358931 1 0 0 0 0 0 0 0 0 0 0 0 0 0 0 0 215 0.002 
710 2 0.00687343 0.103705 -0.0161575 0 0 0 0.185154 0.736869 0.162649 0.014861 0.151814 -0.165499 0 1 0 0 0 0 0 0 0 0 0 0 0 0 0 0 136 0.002 
1472 8 0.0165733 0.10458 -0.0156322 0 0 0 0.25181 -0.0490853 0.411618 -0.00264174 0.00294172 0.000241331 0 0 0 0 0 0 0 2 0 0 0 0 0 0 0 0 89 0.002 
288 1 0.00364213 0.106373 -0.0173648 0 0 0 0.149982 -0.247142 0.311656 0 -0.000164368 0 0 0 0 0 0 0 0 0 0 0 0 0 0 0 0 0 161 0.002 
1017 2 0.0105229 0.107719 -0.0169537 0 0 0 0.145478 -0.0141026 0.228329 0.00051087 0.000117004 0.00122862 0 0 0 0 1 0 0 0 0 0 0 0 0 0 0 0 68 0.002 
1649 3 0.00645513 0.0803193 0.00977694 0 0 0 -0.0689797 0.380965 -0.476784 0 -0.000164368 0 0 0 0 0 0 0 0 0 0 0 0 0 0 0 0 0 55 0.002 
771 7 0.0138542 0.0831711 -0.0144696 0 0 0 1.7247 -1.2208 -1.40232 0 -0.000164368 0 0 0 0 0 0 0 0 0 0 0 0 0 0 0 0 0 47 0.002 
33 2 0.0156166 0.0891413 -0.0154304 0 0 0 0.832975 0.00775229 -1.26835 0 -0.000164368 0 0 0 0 0 0 0 0 0 0 0 0 0 0 0 0 0 78 0.002 
1247 3 0.00966292 0.0937741 -0.014299 0 0 0 0.368247 2.54272 0.437707 0 -0.000164368 0 0 0 0 0 0 0 0 0 0 0 0 0 0 0 0 0 115 0.002 
266 1 0.00654681 0.0965493 -0.0140846 0 0 0 -0.105169 1.60306 0.162262 -0.0087419 -0.0704868 -0.0295033 2 0 0 0 0 0 0 0 0 0 0 0 0 0 0 0 104 0.002 
826 5 0.0112211 0.0974518 -0.0148354 0 0 0 0.200396 -0.242894 0.393416 0 -0.000164368 0 0 0 0 0 0 0 0 0 0 0 0 0 0 0 0 0 157 0.002 
96 2 0.0148615 0.0982541 -0.013329 0 0 0 0.176369 -0.0563511 0.257754 -0.000637983 0.00471078 -0.0072939 0 1 0 0 0 0 0 0 0 0 0 0 0 0 0 0 170 0.002 
814 13 0.0152771 0.107729 0.00988378 0 0 0 -0.0157523 -0.062901 0.159488 0 -0.000164368 0 0 0 0 0 0 0 0 0 0 0 0 0 0 0 0 0 185 0.002 
209 9 0.0067051 0.10051 -0.0139394 0 0 0 -0.13721 0.831866 -0.286691 0.0286644 -0.200822 0.111415 1 1 0 0 0 0 0 0 2 0 0 0 0 0 0 0 120 0.002 
619 6 0.0183479 0.101072 -0.0149352 0 0 0 0.0990589 -0.114668 0.309849 0.00557042 0.0146314 -0.0202478 0 0 0 0 0 3 0 1 0 0 0 0 0 0 0 0 173 0.002 
1407 4 0.00324958 0.103421 -0.0142845 0 0 0 0.0575508 -0.160705 0.240617 0 -0.000164368 0 0 0 0 0 0 0 0 0 0 0 0 0 0 0 0 0 67 0.002 
577 2 0.0105865 0.104296 -0.0145997 0 0 0 -0.0102158 -0.00792956 0.340481 6.80979e-05 -0.00013592 -3.57168e-05 0 0 0 0 1 0 0 0 0 0 0 0 0 0 0 0 96 0.002 
641 1 0.0142651 0.107654 -0.01454 0 0 0 0.155684 -0.053984 0.268628 -0.00031881 0.000309193 0.000519519 0 0 0 0 0 0 0 1 0 0 0 0 0 0 0 0 145 0.002 
1358 8 0.00306583 0.107827 -0.0136059 0 0 0 0.0231096 -0.0597204 0.267297 0 -0.000164368 0 0 0 0 0 0 0 0 0 0 0 0 0 0 0 0 0 104 0.002 
2072 3 0.00680401 0.107808 -0.0151805 0 0 0 0.0757883 -0.0141952 0.212992 -2.14677e-06 -0.000166499 -7.20747e-06 0 0 0 1 0 0 0 0 0 0 0 0 0 0 0 0 26 0.002 
1232 7 0.0103366 0.107986 -0.0129545 0 0 0 0.031642 -0.0291908 0.259793 0 -0.000164368 0 0 0 0 0 0 0 0 0 0 0 0 0 0 0 0 0 157 0.002 
2218 7 0.00478048 0.08233 -0.0156511 0 0 0 -1.72415 10.1767 -4.60451 0 -0.000164368 0 0 0 0 0 0 0 0 0 0 0 0 0 0 0 0 0 0 0.002 
695 2 0.00459323 0.0929577 -0.0154748 0 0 0 -4.17594 0.66338 -1.17977 0 -0.000164368 0 0 0 0 0 0 0 0 0 0 0 0 0 0 0 0 0 141 0.002 
1340 1 0.0122011 0.0906114 -0.0122544 0 0 0 0.491268 0.550672 -0.320363 0 -0.000164368 0 0 0 0 0 0 0 0 0 0 0 0 0 0 0 0 0 112 0.002 
1049 4 0.00304047 0.0939356 -0.0119075 0 0 0 -1.79917 1.04281 0.851269 0 -0.000164368 0 0 0 0 0 0 0 0 0 0 0 0 0 0 0 0 0 113 0.002 
825 1 0.00370079 0.0989288 -0.0114384 0 0 0 -0.124576 -0.110955 0.443058 0 -0.000164368 0 0 0 0 0 0 0 0 0 0 0 0 0 0 0 0 0 134 0.002 
1196 5 0.00943615 0.100979 -0.0111 0 0 0 0.466981 0.418277 0.64755 -0.0472772 -0.0526124 -0.0537973 0 0 0 0 2 0 0 0 1 0 0 0 0 0 0 0 157 0.002 
1107 3 0.0164813 0.101775 -0.0114775 0 0 0 0.130935 -0.0312829 0.314357 -0.00127767 0.00240545 0.00331443 0 0 0 0 0 1 0 0 0 0 0 0 0 0 0 0 110 0.002 
392 1 0.00654245 0.103818 -0.0119698 0 0 0 0.140342 2.05882 0.690784 0.0179133 -0.349776 -0.0789613 3 0 0 0 0 0 0 0 1 0 0 0 0 0 0 0 171 0.002 
1759 5 0.0136215 0.104589 -0.0118409 0 0 0 0.0895619 -0.0889681 0.260928 0 -0.000164368 0 0 0 0 0 0 0 0 0 0 0 0 0 0 0 0 0 64 0.002 
1718 11 0.00634307 0.107584 -0.0111985 0 0 0 -0.119839 1.02092 0.833176 -0.0330661 0.366306 0.0946179 1 0 0 0 0 0 0 0 0 0 1 0 0 0 0 0 71 0.002 
500 5 0.016446 0.107645 -0.0111659 0 0 0 0.0931257 -0.0370134 0.289051 -0.00420809 0.000156194 0.000535601 0 0 0 0 1 0 0 0 0 0 0 0 0 0 0 0 35 0.002 
303 3 0.0151496 0.0876231 -0.0093901 0 0 0 -0.104008 0.353613 -0.402577 0 -0.000164368 0 0 0 0 0 0 0 0 0 0 0 0 0 0 0 0 0 130 0.002 
2204 4 0.0137009 0.0944701 -0.00982449 0 0 0 -0.185931 0.603082 0.0407627 0.0484318 -0.0296611 0.0325479 0 0 0 3 0 0 0 0 0 0 0 0 0 0 0 0 3 0.002 
211 2 0.00737463 0.0973868 -0.010285 0 0 0 -0.0547321 0.510285 1.03386 -0.0493665 0.0364402 -0.0702059 1 1 0 0 0 0 0 0 0 0 0 0 0 0 0 0 158 0.002 
1055 1 0.0119859 0.0979659 -0.0104957 0 0 0 -0.0369381 0.113009 -0.0507307 -0.0135871 0.0753932 -0.0419033 0 0 0 1 1 0 0 0 0 0 0 0 0 0 0 0 116 0.002 