ITEM: TIMESTEP
8700000
ITEM: NUMBER OF ATOMS
1066
ITEM: BOX BOUNDS ff ff ff
-0.01 0.45
-0.15 0.15
-0.08 0.1
ITEM: ATOMS id type x y z ix iy iz vx vy vz fx fy fz c_cc_1 c_cc_2 c_cc_3 c_cc_4 c_cc_5 c_cc_6 c_cc_7 c_cc_8 c_cc_9 c_cc_10 c_cc_11 c_cc_12 c_cc_13 c_cc_14 c_cc_15 c_cc_16 f_fppacc radius 
1060 2 0.00547321 -0.0501569 0.0288874 0 0 0 -0.482683 9.70995 15.6007 -0.000566386 0.446775 -0.310037 0 0 0 0 0 0 0 0 0 0 0 0 0 0 0 0 0 0.002 
383 6 0.010566 -0.0443061 0.0372154 0 0 0 -10.2107 10.0153 13.3116 0.265091 0.356789 -0.425448 0 0 0 0 0 0 0 0 0 0 0 0 0 0 0 0 25 0.002 
603 7 0.0128978 -0.00526441 -0.0575996 0 0 0 -8.64188 -58.28 5.13771 0.253104 0.0228534 0.508524 0 0 0 0 0 0 0 0 0 0 0 0 0 0 0 0 18 0.002 
491 2 0.0142246 -0.0281075 0.0507371 0 0 0 -7.60831 34.9797 16.785 -0.144576 0.460932 -1.2267 0 0 0 0 0 0 0 0 0 0 0 0 0 0 0 0 17 0.002 
1082 1 0.0117505 0.0142987 -0.0555596 0 0 0 1.80874 -6.25852 -16.897 0 -0.000164368 0 0 0 0 0 0 0 0 0 0 0 0 0 0 0 0 0 0 0.002 
951 10 0.0132458 0.0261112 0.0492122 0 0 0 -0.288993 -3.58633 1.48563 0 -0.000164368 0 0 0 0 0 0 0 0 0 0 0 0 0 0 0 0 0 8 0.002 
767 5 0.00405119 0.0392874 -0.0397275 0 0 0 -0.41394 1.96696 -8.58522 0 -0.000164368 0 0 0 0 0 0 0 0 0 0 0 0 0 0 0 0 0 22 0.002 
41 1 0.0151265 0.0528557 -0.0355 0 0 0 -2.22508e-308 -2.43625e-19 1.69033e-12 0 0 0 0 0 0 0 0 0 0 0 0 0 0 0 0 0 0 0 1 0.002 
772 4 0.00719098 0.0410468 -0.0295341 0 0 0 0.598235 -2.41491 0.54885 0 -0.000164368 0 0 0 0 0 0 0 0 0 0 0 0 0 0 0 0 0 16 0.002 
1083 8 0.0135826 0.0659716 -0.0321994 0 0 0 7.19187 -9.42649 4.03166 0 -0.000164368 0 0 0 0 0 0 0 0 0 0 0 0 0 0 0 0 0 0 0.002 
588 16 0.00476147 0.073556 -0.0276952 0 0 0 0.666475 -1.68768 -0.198167 0 -0.000164368 0 0 0 0 0 0 0 0 0 0 0 0 0 0 0 0 0 18 0.002 
714 4 0.0133864 0.0406485 -0.024127 0 0 0 1.03183 -1.86821 -0.803529 0 -0.000164368 0 0 0 0 0 0 0 0 0 0 0 0 0 0 0 0 0 20 0.002 
956 1 0.00417504 0.0739986 -0.0226085 0 0 0 0.186651 -1.28839 0.984289 0 -0.000164368 0 0 0 0 0 0 0 0 0 0 0 0 0 0 0 0 0 5 0.002 
375 4 0.012312 0.0542298 -0.0109924 0 0 0 -0.724167 -1.37977 1.14086 0 -0.000164368 0 0 0 0 0 0 0 0 0 0 0 0 0 0 0 0 0 25 0.002 
65 2 0.00821531 0.0581476 -0.0127321 0 0 0 0.925489 -1.00889 0.214118 0 -0.000164368 0 0 0 0 0 0 0 0 0 0 0 0 0 0 0 0 0 18 0.002 
400 7 0.00323507 0.0692567 -0.00952152 0 0 0 0.0840744 -0.508445 -0.769166 0 -0.000164368 0 0 0 0 0 0 0 0 0 0 0 0 0 0 0 0 0 28 0.002 
593 1 0.00801385 0.0456015 -0.0081958 0 0 0 0.507087 -0.286495 -0.599344 0 -0.000164368 0 0 0 0 0 0 0 0 0 0 0 0 0 0 0 0 0 15 0.002 
296 2 0.00566898 0.0666171 -0.00415012 0 0 0 -0.20772 -0.832468 -0.150715 0 -0.000164368 0 0 0 0 0 0 0 0 0 0 0 0 0 0 0 0 0 14 0.002 
1018 8 0.00493876 0.0606955 0.000890592 0 0 0 -0.809397 -0.89657 -1.98022 0 -0.000164368 0 0 0 0 0 0 0 0 0 0 0 0 0 0 0 0 0 2 0.002 
657 3 0.00792196 0.0639039 0.00183689 0 0 0 0.650596 -1.37963 -1.12687 0 -0.000164368 0 0 0 0 0 0 0 0 0 0 0 0 0 0 0 0 0 12 0.002 
486 2 0.00341931 0.0737733 0.00394702 0 0 0 0.392005 -0.60372 0.055746 0 -0.000164368 0 0 0 0 0 0 0 0 0 0 0 0 0 0 0 0 0 23 0.002 
404 6 0.004273 0.0503097 0.00447353 0 0 0 -0.49292 -0.603982 -17.1129 0 -0.000164368 0 0 0 0 0 0 0 0 0 0 0 0 0 0 0 0 0 16 0.002 
534 13 0.0111143 0.0405722 -0.00376575 0 0 0 -3.81763 10.441 -10.6451 0 -0.000164368 0 0 0 0 0 0 0 0 0 0 0 0 0 0 0 0 0 24 0.002 
122 5 0.0104757 0.069666 0.0116882 0 0 0 0.633434 0.367251 -0.0648225 0 -0.000164368 0 0 0 0 0 0 0 0 0 0 0 0 0 0 0 0 0 39 0.002 
1067 10 0.0161332 0.0395028 0.0143183 0 0 0 0.819694 -0.716416 2.06022 0 -0.000164368 0 0 0 0 0 0 0 0 0 0 0 0 0 0 0 0 0 0 0.002 
125 10 0.0073397 0.0749675 0.0266459 0 0 0 0.0568336 0.0684573 -0.0286904 -0.00059604 0.0167432 -0.00967615 0 0 0 0 0 0 0 0 0 1 0 0 0 0 0 0 29 0.002 
830 7 0.00750581 0.060164 0.016562 0 0 0 -0.871071 0.0593441 -1.46237 0.0710734 0.509872 -0.467034 0 0 0 0 0 0 1 0 0 0 0 0 0 0 0 0 22 0.002 
61 8 0.0182466 0.0724202 0.017922 0 0 0 -0.209979 -0.0900772 -0.26969 0 -0.000164368 0 0 0 0 0 0 0 0 0 0 0 0 0 0 0 0 0 6 0.002 
1070 1 0.00880866 0.0572762 0.0186814 0 0 0 0.672479 1.8942 -3.27005 -0.0710734 -0.5102 0.467034 0 0 0 0 0 0 1 0 0 0 0 0 0 0 0 0 1 0.002 
139 6 0.0134589 0.0701339 0.0207971 0 0 0 -0.717251 -0.150686 -0.221388 0 -0.000164368 0 0 0 0 0 0 0 0 0 0 0 0 0 0 0 0 0 41 0.002 
807 5 0.0116811 0.0645611 0.0203869 0 0 0 0.421468 0.626465 -2.22999 0 -0.000164368 0 0 0 0 0 0 0 0 0 0 0 0 0 0 0 0 0 16 0.002 
465 4 0.00873389 0.0710224 0.022325 0 0 0 -0.356353 0.112172 -0.224899 0 -0.000164368 0 0 0 0 0 0 0 0 0 0 0 0 0 0 0 0 0 27 0.002 
1009 1 0.00327368 0.0727237 0.0215121 0 0 0 0.0585502 -0.20326 -0.0571545 0 -0.000164368 0 0 0 0 0 0 0 0 0 0 0 0 0 0 0 0 0 2 0.002 
526 2 0.015643 0.0741005 0.0219408 0 0 0 -0.0219211 -0.194763 0.00774977 0 -0.000164368 0 0 0 0 0 0 0 0 0 0 0 0 0 0 0 0 0 8 0.002 
679 5 0.00860196 0.0611066 0.0227209 0 0 0 0.511707 1.9767 -3.53762 0 -0.000164368 0 0 0 0 0 0 0 0 0 0 0 0 0 0 0 0 0 24 0.002 
548 4 0.00304013 0.0635522 0.0239492 0 0 0 0.33945 0.747565 -0.882157 0 -0.000164368 0 0 0 0 0 0 0 0 0 0 0 0 0 0 0 0 0 30 0.002 
264 10 0.0109136 0.0637987 0.0248295 0 0 0 1.2847 0.564183 -0.810069 0 -0.000164368 0 0 0 0 0 0 0 0 0 0 0 0 0 0 0 0 0 26 0.002 
300 1 0.0133248 0.0699243 0.0253468 0 0 0 0.17369 0.586618 -0.0263437 0.023153 -0.00938649 -0.00641567 1 0 0 0 0 0 0 0 0 0 0 0 0 0 0 0 20 0.002 
1011 6 0.0184399 0.0690329 0.0251413 0 0 0 0.0991707 -0.784849 0.111789 0 -0.000164368 0 0 0 0 0 0 0 0 0 0 0 0 0 0 0 0 0 4 0.002 
95 5 0.00532763 0.0702817 0.0244021 0 0 0 -0.23639 -0.339054 0.071598 0 -0.000164368 0 0 0 0 0 0 0 0 0 0 0 0 0 0 0 0 0 39 0.002 
741 5 0.0105971 0.0728149 0.0256482 0 0 0 0.0487286 0.0741924 -0.111767 -0.023153 0.00905775 0.00641567 1 0 0 0 0 0 0 0 0 0 0 0 0 0 0 0 17 0.002 
318 4 0.0167397 0.0589949 0.0255872 0 0 0 -1.13322 -0.155531 -0.972965 -0.0147612 0.0202809 0.000607241 0 0 0 1 0 0 0 0 0 0 0 0 0 0 0 0 32 0.002 
459 5 0.0144934 0.0620454 0.0268314 0 0 0 -0.921904 0.590227 -0.156661 0.0147612 -0.0206096 -0.000607241 0 0 0 1 0 0 0 0 0 0 0 0 0 0 0 0 18 0.002 
326 4 0.00715678 0.0674039 0.0265968 0 0 0 -0.663892 0.957852 -0.315249 0.00153678 0.000214458 0.00107728 0 0 0 1 0 0 0 0 0 0 0 0 0 0 0 0 26 0.002 
915 9 0.0136298 0.0662904 0.0272359 0 0 0 0.99632 0.365825 0.761469 0 -0.000164368 0 0 0 0 0 0 0 0 0 0 0 0 0 0 0 0 0 23 0.002 
517 2 0.0149803 0.0734156 0.0275931 0 0 0 -0.0867703 -0.360801 -0.069374 0.000981919 0.000723009 -0.000452185 0 0 0 0 0 0 0 0 0 0 0 0 0 0 0 0 8 0.002 
900 1 0.00299637 0.0569908 0.0300097 0 0 0 0.0315008 0.856112 -0.364729 0.000932394 6.37344e-05 0.000406582 0 0 0 0 0 0 0 0 0 0 0 0 0 0 0 0 14 0.002 
497 3 0.0109201 0.0593728 0.0285584 0 0 0 -0.159409 -0.149242 -0.0742746 0 -0.000164368 0 0 0 0 0 0 0 0 0 0 0 0 0 0 0 0 0 13 0.002 
230 6 0.0181542 0.0598552 0.0302341 0 0 0 -0.163439 -0.508092 0.0436763 0 -0.000164368 0 0 0 0 0 0 0 0 0 0 0 0 0 0 0 0 0 38 0.002 
854 2 0.0054468 0.0621125 0.0276863 0 0 0 1.08897 0.939765 -0.677498 0 -0.000164368 0 0 0 0 0 0 0 0 0 0 0 0 0 0 0 0 0 11 0.002 
739 2 0.00426421 0.065782 0.0288867 0 0 0 -0.40226 0.245903 0.132896 0 -0.000164368 0 0 0 0 0 0 0 0 0 0 0 0 0 0 0 0 0 13 0.002 
696 4 0.0181688 0.0639646 0.0296774 0 0 0 -0.0911178 -0.518641 -0.0964823 0 -0.000164368 0 0 0 0 0 0 0 0 0 0 0 0 0 0 0 0 0 30 0.002 
63 6 0.0030628 0.0696529 0.0288708 0 0 0 -0.490034 0.676857 0.133899 0.0188175 -0.0694523 0.00816372 0 0 0 0 0 1 0 0 0 0 0 0 0 0 0 0 22 0.002 
883 2 0.00983915 0.0698554 0.0282632 0 0 0 0.214084 -0.0746962 -0.0216103 0.0205451 -0.0210868 -0.00725402 0 1 0 1 0 0 0 0 0 0 0 0 0 0 0 0 15 0.002 
527 8 0.0066078 0.0719721 0.0291573 0 0 0 0.231793 0.0999315 0.084607 -0.00894704 -0.00236808 -0.00986367 0 1 0 0 0 0 0 2 0 1 0 0 0 0 0 0 22 0.002 
909 2 0.0137148 0.0702218 0.0296392 0 0 0 0.0970723 -0.222848 0.189189 -0.000981919 -0.00105175 0.000452185 0 0 0 0 0 0 0 0 0 0 0 0 0 0 0 0 14 0.002 
919 2 0.0176841 0.0707814 0.0292865 0 0 0 0.307214 -0.35254 -0.0691846 0 -0.000164368 0 0 0 0 0 0 0 0 0 0 0 0 0 0 0 0 0 17 0.002 
164 4 0.00299256 0.0735261 0.0297444 0 0 0 0.0293641 0.00560569 -0.0204697 -0.0284581 0.0671479 -0.00592758 0 0 0 1 0 1 0 1 0 0 0 0 0 0 0 0 35 0.002 
305 5 0.01038 0.0736031 0.0299121 0 0 0 -0.0533427 0.461521 -0.0718844 -0.0127984 -0.00634225 -0.0149026 0 0 0 0 1 0 0 0 0 0 0 0 0 0 0 0 30 0.002 
553 7 0.00618111 0.0580668 0.0324813 0 0 0 0.380934 0.125231 0.254178 0 -0.000164368 0 0 0 0 0 0 0 0 0 0 0 0 0 0 0 0 0 17 0.002 
784 7 0.0116267 0.0568306 0.0321831 0 0 0 0.209702 -0.29591 -0.0128675 0 -0.000164368 0 0 0 0 0 0 0 0 0 0 0 0 0 0 0 0 0 15 0.002 
482 4 0.00314013 0.0611237 0.032217 0 0 0 0.176069 0.138168 0.392177 0 -0.000164368 0 0 0 0 0 0 0 0 0 0 0 0 0 0 0 0 0 23 0.002 
112 6 0.00682847 0.0627149 0.0325841 0 0 0 0.047523 0.247487 0.423778 0 -0.000164368 0 0 0 0 0 0 0 0 0 0 0 0 0 0 0 0 0 37 0.002 
1021 3 0.0141441 0.0615831 0.0309887 0 0 0 -0.139904 -0.430066 0.0318455 0 -0.000164368 0 0 0 0 0 0 0 0 0 0 0 0 0 0 0 0 0 0 0.002 
979 4 0.00996583 0.0643255 0.0306889 0 0 0 0.175902 -0.313841 -0.0724324 0 -0.000164368 0 0 0 0 0 0 0 0 0 0 0 0 0 0 0 0 0 6 0.002 
863 1 0.00301459 0.0666298 0.0327335 0 0 0 -0.327548 0.339332 0.661486 0 -0.000164368 0 0 0 0 0 0 0 0 0 0 0 0 0 0 0 0 0 7 0.002 
291 1 0.00708613 0.0676589 0.0318316 0 0 0 -0.0231782 -0.234438 0.0313776 0 -0.000164368 0 0 0 0 0 0 0 0 0 0 0 0 0 0 0 0 0 28 0.002 
842 11 0.0081113 0.053193 0.0328523 0 0 0 0.282502 -0.455615 -0.0357953 0 -0.000164368 0 0 0 0 0 0 0 0 0 0 0 0 0 0 0 0 0 20 0.002 
373 7 0.0105132 0.0608718 0.0329612 0 0 0 0.179916 -0.430107 0.00624026 0 -0.000164368 0 0 0 0 0 0 0 0 0 0 0 0 0 0 0 0 0 22 0.002 
145 6 0.0159567 0.0653586 0.0329329 0 0 0 -0.0893767 -0.346302 -0.03797 0 -0.000164368 0 0 0 0 0 0 0 0 0 0 0 0 0 0 0 0 0 30 0.002 
53 3 0.012368 0.0672072 0.0329966 0 0 0 -0.0271216 -0.211603 0.000478856 4.8181e-05 -0.000282249 6.44422e-05 0 0 1 0 0 0 0 0 0 0 0 0 0 0 0 0 32 0.002 
402 1 0.00302217 0.0711865 0.0329994 0 0 0 -0.00104013 -0.146364 -0.00713934 0 -0.000164368 0 0 0 0 0 0 0 0 0 0 0 0 0 0 0 0 0 27 0.002 
394 6 0.010087 0.0704843 0.032775 0 0 0 0.00427865 -0.187533 -0.014506 -4.8181e-05 -4.64872e-05 -6.44422e-05 0 0 1 0 0 0 0 0 0 0 0 0 0 0 0 0 30 0.002 
278 11 0.0160017 0.0702682 0.0329787 0 0 0 -0.0134495 -0.210684 -0.00996561 0 -0.000164368 0 0 0 0 0 0 0 0 0 0 0 0 0 0 0 0 0 27 0.002 
906 5 0.00676106 0.0729057 0.0330157 0 0 0 0.0288657 0.123893 0.0629175 0.00064406 -0.00518787 -0.0106172 0 0 0 0 1 0 0 1 0 0 0 0 0 0 0 0 17 0.002 
874 1 0.0128577 0.0738657 0.0330106 0 0 0 -0.0113255 0.0837288 -0.0574144 0.00159245 -0.0131807 0.00980681 1 0 0 0 1 0 0 0 0 0 0 0 0 0 0 0 15 0.002 
819 2 0.016841 0.0742405 0.0329824 0 0 0 0.0598386 -0.164058 0.0710414 -0.00110739 0.000135182 -0.00012783 0 1 0 0 0 0 0 0 0 0 0 0 0 0 0 0 13 0.002 
475 2 0.00924536 0.0933732 -0.0320307 0 0 0 -3.37309 0.514538 -2.00813 0 -0.000164368 0 0 0 0 0 0 0 0 0 0 0 0 0 0 0 0 0 25 0.002 
634 2 0.00711198 0.100585 -0.0309816 0 0 0 -0.767262 -1.01912 -0.282314 0 -0.000164368 0 0 0 0 0 0 0 0 0 0 0 0 0 0 0 0 0 18 0.002 
538 1 0.0153366 0.0904157 -0.0311814 0 0 0 -2.03326 2.32201 -5.21527 0 -0.000164368 0 0 0 0 0 0 0 0 0 0 0 0 0 0 0 0 0 20 0.002 
453 3 0.0105166 0.101617 -0.0281105 0 0 0 0.597566 -0.401719 -0.687735 0 -0.000164368 0 0 0 0 0 0 0 0 0 0 0 0 0 0 0 0 0 16 0.002 
775 2 0.00901913 0.107596 -0.0286877 0 0 0 -2.16088 1.43827 0.147613 0 -0.000164368 0 0 0 0 0 0 0 0 0 0 0 0 0 0 0 0 0 11 0.002 
592 7 0.00591328 0.0936129 -0.0251363 0 0 0 -0.0538013 -1.04048 -3.35903 0 -0.000164368 0 0 0 0 0 0 0 0 0 0 0 0 0 0 0 0 0 25 0.002 
492 4 0.00446653 0.107135 -0.0243725 0 0 0 -2.8058 1.01852 -1.61782 0 -0.000164368 0 0 0 0 0 0 0 0 0 0 0 0 0 0 0 0 0 18 0.002 
865 7 0.0155871 0.0951333 -0.020121 0 0 0 -0.364923 6.76674 1.0932 0 -0.000164368 0 0 0 0 0 0 0 0 0 0 0 0 0 0 0 0 0 7 0.002 
179 1 0.00804267 0.0952687 -0.0216718 0 0 0 1.87423 -4.36048 -3.26498 0 -0.000164368 0 0 0 0 0 0 0 0 0 0 0 0 0 0 0 0 0 29 0.002 
303 3 0.011849 0.100928 -0.0226613 0 0 0 -0.860157 0.268101 -1.32281 0 -0.000164368 0 0 0 0 0 0 0 0 0 0 0 0 0 0 0 0 0 21 0.002 
1050 1 0.00817235 0.0881021 -0.0250957 0 0 0 1.0076 6.20141 -19.4194 0 -0.000164368 0 0 0 0 0 0 0 0 0 0 0 0 0 0 0 0 0 0 0.002 
692 7 0.017411 0.10541 -0.0188112 0 0 0 -0.578124 0.706814 -0.7027 0 -0.000164368 0 0 0 0 0 0 0 0 0 0 0 0 0 0 0 0 0 21 0.002 
1064 5 0.00970425 0.106589 -0.0181467 0 0 0 -2.35247 -0.162197 1.41271 0 -0.000164368 0 0 0 0 0 0 0 0 0 0 0 0 0 0 0 0 0 0 0.002 
1077 1 0.00461363 0.100597 -0.0152795 0 0 0 -4.00898 2.72691 -1.25225 0 -0.000164368 0 0 0 0 0 0 0 0 0 0 0 0 0 0 0 0 0 0 0.002 
414 7 0.00689003 0.0888207 -0.0117368 0 0 0 0.626707 -0.877742 0.601062 0 -0.000164368 0 0 0 0 0 0 0 0 0 0 0 0 0 0 0 0 0 28 0.002 
773 5 0.00261843 0.0930628 -0.021241 0 0 0 4.36156 11.3332 -10.8738 2.58714 -1.10941 0.665503 0 0 0 0 0 0 0 0 0 0 0 0 0 0 0 0 10 0.002 
464 6 0.0139276 0.104192 -0.00629577 0 0 0 0.325427 3.92376 -0.113919 0 -0.000164368 0 0 0 0 0 0 0 0 0 0 0 0 0 0 0 0 0 21 0.002 
350 8 0.00346943 0.103731 -0.00646836 0 0 0 -0.137063 -0.413207 0.0602902 0 -0.000164368 0 0 0 0 0 0 0 0 0 0 0 0 0 0 0 0 0 15 0.002 
763 3 0.017762 0.0856819 -0.00539405 0 0 0 1.83367 -2.00886 0.87076 0 -0.000164368 0 0 0 0 0 0 0 0 0 0 0 0 0 0 0 0 0 21 0.002 
392 1 0.00623326 0.0946828 -0.00458769 0 0 0 0.272159 1.11084 -1.10845 0 -0.000164368 0 0 0 0 0 0 0 0 0 0 0 0 0 0 0 0 0 27 0.002 
1081 4 0.00782295 0.105791 -0.00588483 0 0 0 0.551277 -0.626724 -1.48808 0 -0.000164368 0 0 0 0 0 0 0 0 0 0 0 0 0 0 0 0 0 0 0.002 
113 10 0.00775003 0.0890903 -0.00332884 0 0 0 0.898806 1.37475 -1.43205 0 -0.000164368 0 0 0 0 0 0 0 0 0 0 0 0 0 0 0 0 0 11 0.002 
652 4 0.01518 0.0990154 -0.00395703 0 0 0 1.56665 1.16971 -0.325002 0 -0.000164368 0 0 0 0 0 0 0 0 0 0 0 0 0 0 0 0 0 16 0.002 
961 1 0.0031359 0.101586 -0.00159649 0 0 0 -0.0298145 -0.463046 0.229521 0 -0.000164368 0 0 0 0 0 0 0 0 0 0 0 0 0 0 0 0 0 3 0.002 
433 9 0.00780141 0.0774234 -0.000199107 0 0 0 -0.173155 0.135494 -1.1596 0 -0.000164368 0 0 0 0 0 0 0 0 0 0 0 0 0 0 0 0 0 24 0.002 
378 2 0.00495342 0.0980072 -0.000101588 0 0 0 0.722428 2.695 -1.83629 0 -0.000164368 0 0 0 0 0 0 0 0 0 0 0 0 0 0 0 0 0 24 0.002 
934 1 0.00490411 0.105632 0.00209802 0 0 0 0.622037 -0.190834 0.477851 0 -0.000164368 0 0 0 0 0 0 0 0 0 0 0 0 0 0 0 0 0 9 0.002 
988 10 0.0112882 0.107107 0.000499799 0 0 0 -0.48423 -0.0277797 -1.40732 0 -0.000164368 0 0 0 0 0 0 0 0 0 0 0 0 0 0 0 0 0 6 0.002 
910 15 0.0164903 0.0873246 0.00158202 0 0 0 0.580206 1.61484 -3.13617 0 -0.000164368 0 0 0 0 0 0 0 0 0 0 0 0 0 0 0 0 0 10 0.002 
546 1 0.00760871 0.0899914 0.00394216 0 0 0 -0.291508 3.26555 -2.7162 0 -0.000164368 0 0 0 0 0 0 0 0 0 0 0 0 0 0 0 0 0 21 0.002 
1065 3 0.0030218 0.107016 0.00541961 0 0 0 -0.0750034 -0.18255 0.0665625 0 -0.000164368 0 0 0 0 0 0 0 0 0 0 0 0 0 0 0 0 0 0 0.002 
473 3 0.00360112 0.098035 0.00748491 0 0 0 0.16113 0.378182 0.179872 0 -0.000164368 0 0 0 0 0 0 0 0 0 0 0 0 0 0 0 0 0 16 0.002 
14 5 0.00857224 0.10364 0.00578226 0 0 0 0.67273 0.607225 0.423134 0 -0.000164368 0 0 0 0 0 0 0 0 0 0 0 0 0 0 0 0 0 12 0.002 
1013 8 0.0157093 0.0892102 0.00861828 0 0 0 0.266633 0.662407 -0.626901 0 -0.000164368 0 0 0 0 0 0 0 0 0 0 0 0 0 0 0 0 0 0 0.002 
625 3 0.00303385 0.0938708 0.00988174 0 0 0 0.0344148 0.807383 0.163421 0 -0.000164368 0 0 0 0 0 0 0 0 0 0 0 0 0 0 0 0 0 11 0.002 
481 2 0.00820714 0.0990599 0.00876314 0 0 0 -0.17733 0.0579079 0.491481 0 -0.000164368 0 0 0 0 0 0 0 0 0 0 0 0 0 0 0 0 0 16 0.002 
809 1 0.00479599 0.105607 0.00872686 0 0 0 -0.309666 0.169017 0.414359 0 -0.000164368 0 0 0 0 0 0 0 0 0 0 0 0 0 0 0 0 0 10 0.002 
126 2 0.0139676 0.104917 0.00855675 0 0 0 -0.272484 -1.16155 1.37684 0 -0.000164368 0 0 0 0 0 0 0 0 0 0 0 0 0 0 0 0 0 11 0.002 
29 5 0.010927 0.107985 0.00951761 0 0 0 -0.308381 -0.155572 0.389307 0 -0.000164368 0 0 0 0 0 0 0 0 0 0 0 0 0 0 0 0 0 33 0.002 
1044 10 0.0179588 0.102616 -0.0277456 0 0 0 -1.67223 0.182987 -0.352255 0 -0.000164368 0 0 0 0 0 0 0 0 0 0 0 0 0 0 0 0 0 0 0.002 
353 6 0.00489596 0.0903282 0.0115938 0 0 0 0.499901 0.486871 -0.414087 0 -0.000164368 0 0 0 0 0 0 0 0 0 0 0 0 0 0 0 0 0 10 0.002 
1063 3 0.00833465 0.0922932 0.0106226 0 0 0 0.390344 0.552754 -0.310512 0 -0.000164368 0 0 0 0 0 0 0 0 0 0 0 0 0 0 0 0 0 0 0.002 
73 3 0.0117214 0.0950452 0.0115953 0 0 0 0.951514 0.356468 0.144829 0 -0.000164368 0 0 0 0 0 0 0 0 0 0 0 0 0 0 0 0 0 26 0.002 
257 6 0.0109321 0.103921 0.0117388 0 0 0 0.476765 0.192993 0.66705 0 -0.000164368 0 0 0 0 0 0 0 0 0 0 0 0 0 0 0 0 0 17 0.002 
123 8 0.00326619 0.10796 0.0120402 0 0 0 0.00100956 -0.0818458 0.40368 0 -0.000164368 0 0 0 0 0 0 0 0 0 0 0 0 0 0 0 0 0 30 0.002 
502 6 0.014797 0.0793188 0.0114998 0 0 0 1.6784 1.30619 -1.87757 0 -0.000164368 0 0 0 0 0 0 0 0 0 0 0 0 0 0 0 0 0 19 0.002 
68 9 0.018523 0.0849997 0.0130554 0 0 0 0.245634 0.389724 -0.442817 0 -0.000164368 0 0 0 0 0 0 0 0 0 0 0 0 0 0 0 0 0 47 0.002 
967 2 0.0156817 0.0899867 0.014023 0 0 0 0.000778415 0.132671 -0.206125 0 -0.000164368 0 0 0 0 0 0 0 0 0 0 0 0 0 0 0 0 0 1 0.002 
508 9 0.00341959 0.0963466 0.013819 0 0 0 0.0224856 0.0026434 -0.0393782 0.000771473 -0.00477445 -0.000843205 0 0 0 0 0 0 0 0 1 0 0 0 0 0 0 0 21 0.002 
907 8 0.00704362 0.0980216 0.0142534 0 0 0 0.143604 -0.139347 0.21798 0 -0.000164368 0 0 0 0 0 0 0 0 0 0 0 0 0 0 0 0 0 10 0.002 
726 1 0.00807478 0.101929 0.0139943 0 0 0 0.0345009 0.00361477 0.174434 0 -0.000164368 0 0 0 0 0 0 0 0 0 0 0 0 0 0 0 0 0 13 0.002 
510 9 0.0058258 0.104906 0.0125289 0 0 0 0.0435731 0.129147 0.323611 0.00605525 0.00709223 -0.00657384 0 0 0 0 0 0 0 0 2 0 0 0 0 0 0 0 38 0.002 
438 2 0.00834503 0.107975 0.0129494 0 0 0 0.119683 -0.00414648 0.402745 0.00498176 0.00299982 -0.00327674 0 0 0 0 0 0 0 0 1 0 0 0 0 0 0 0 26 0.002 
419 10 0.0144618 0.0813789 0.0153182 0 0 0 0.365541 0.900227 -1.3612 0 -0.000164368 0 0 0 0 0 0 0 0 0 0 0 0 0 0 0 0 0 35 0.002 
699 9 0.00592173 0.0880539 0.0164669 0 0 0 0.0410918 -0.0816918 -0.0794931 0 -0.000164368 0 0 0 0 0 0 0 0 0 0 0 0 0 0 0 0 0 13 0.002 
861 8 0.0119954 0.0891207 0.0159321 0 0 0 0.0216213 0.108986 -0.0394528 0 -0.000164368 0 0 0 0 0 0 0 0 0 0 0 0 0 0 0 0 0 16 0.002 
1003 7 0.0031209 0.0924115 0.0149147 0 0 0 0.0386251 0.24053 -0.222183 0 -0.000164368 0 0 0 0 0 0 0 0 0 0 0 0 0 0 0 0 0 1 0.002 
345 6 0.00827712 0.0939402 0.0148676 0 0 0 0.176567 0.366864 0.0198751 0 -0.000164368 0 0 0 0 0 0 0 0 0 0 0 0 0 0 0 0 0 27 0.002 
150 7 0.0166418 0.0936762 0.0156922 0 0 0 -0.504139 -0.172897 0.215629 0 -0.000164368 0 0 0 0 0 0 0 0 0 0 0 0 0 0 0 0 0 10 0.002 
881 1 0.00310147 0.100118 0.0150651 0 0 0 0.00813827 0.0974794 0.065115 -0.0058223 -0.0221245 0.00397832 1 0 0 0 0 0 0 0 1 0 0 0 0 0 0 0 14 0.002 
306 3 0.00307635 0.104084 0.0152886 0 0 0 -0.0419732 0.0713234 0.152144 -0.00599381 0.0154371 0.00574499 1 0 1 0 0 0 0 0 1 0 0 0 0 0 0 0 30 0.002 
221 16 0.00917062 0.105207 0.0160456 0 0 0 0.0913857 -0.0100853 0.0372699 0.000265568 -0.00408153 -0.00290352 0 0 0 0 0 0 0 0 0 0 0 0 0 0 0 1 23 0.002 
681 6 0.0147141 0.103606 0.0154565 0 0 0 0.636181 -0.0137009 0.581921 -0.0369103 -0.0589452 -0.0686708 0 0 0 0 0 1 0 0 0 0 0 0 0 0 0 0 27 0.002 
796 15 0.00430926 0.107662 0.0165983 0 0 0 -0.0745281 -0.0638841 0.322654 0 -0.000164368 0 0 0 0 0 0 0 0 0 0 0 0 0 0 0 0 0 17 0.002 
471 5 0.0131405 0.107623 0.0151863 0 0 0 -0.255802 -0.306635 -0.362908 0 -0.000164368 0 0 0 0 0 0 0 0 0 0 0 0 0 0 0 0 0 20 0.002 
821 3 0.0169601 0.0764307 0.0189121 0 0 0 -0.0873656 -0.201565 -0.124107 0 -0.000164368 0 0 0 0 0 0 0 0 0 0 0 0 0 0 0 0 0 4 0.002 
1053 9 0.00628792 0.0807088 0.0166363 0 0 0 -0.0816052 -0.00405672 -0.412904 0 -0.000164368 0 0 0 0 0 0 0 0 0 0 0 0 0 0 0 0 0 1 0.002 
448 2 0.00359392 0.0841839 0.0188252 0 0 0 0.154547 0.103882 -0.0448569 0 -0.000164368 0 0 0 0 0 0 0 0 0 0 0 0 0 0 0 0 0 13 0.002 
407 4 0.0170047 0.0832819 0.0187713 0 0 0 0.524635 0.170961 0.452032 0 -0.000164368 0 0 0 0 0 0 0 0 0 0 0 0 0 0 0 0 0 25 0.002 
938 2 0.00762018 0.0845737 0.0174941 0 0 0 0.106415 -0.0809432 -0.151466 0 -0.000164368 0 0 0 0 0 0 0 0 0 0 0 0 0 0 0 0 0 5 0.002 
199 4 0.00489436 0.0911141 0.0189036 0 0 0 -0.0680609 -0.115702 -0.0400166 0 -0.000164368 0 0 0 0 0 0 0 0 0 0 0 0 0 0 0 0 0 29 0.002 
450 2 0.00875488 0.090482 0.0179576 0 0 0 -0.0236891 -0.0393508 0.00260385 0 -0.000164368 0 0 0 0 0 0 0 0 0 0 0 0 0 0 0 0 0 21 0.002 
730 3 0.00307288 0.0947458 0.0184412 0 0 0 0.0232144 -0.114179 0.0204416 -3.86783e-05 -0.000193362 -0.000450284 0 0 1 0 0 0 0 0 0 0 0 0 0 0 0 0 8 0.002 
755 2 0.0123497 0.0940242 0.0169483 0 0 0 -0.287211 -0.0597306 0.123479 0.0171491 -0.00667781 -0.00234904 0 1 0 0 0 0 0 0 0 0 0 0 0 0 0 0 5 0.002 
268 5 0.00965963 0.0969473 0.0172695 0 0 0 0.213244 0.177069 0.357321 -0.0171491 0.00634907 0.00234904 0 1 0 0 0 0 0 0 0 0 0 0 0 0 0 0 41 0.002 
1056 1 0.0135487 0.0982414 0.0175961 0 0 0 -1.31667 1.26525 1.18368 0 -0.000164368 0 0 0 0 0 0 0 0 0 0 0 0 0 0 0 0 0 0 0.002 
797 6 0.00402896 0.0986673 0.0186985 0 0 0 0.100662 -0.0610761 0.0270153 0 -0.000164368 0 0 0 0 0 0 0 0 0 0 0 0 0 0 0 0 0 17 0.002 
978 1 0.017182 0.100581 0.0179088 0 0 0 0.430596 -0.254514 -0.181706 0 -0.000164368 0 0 0 0 0 0 0 0 0 0 0 0 0 0 0 0 0 10 0.002 
718 11 0.0103515 0.10089 0.0172184 0 0 0 0.140806 0.21937 0.215692 -5.01818e-05 -8.7256e-05 0.000113971 0 0 0 0 0 0 0 0 0 0 1 0 0 0 0 0 14 0.002 
928 2 0.0173417 0.104563 0.0182668 0 0 0 0.0292574 -0.106369 -0.0262263 0.0369103 0.0586164 0.0686708 0 0 0 0 0 1 0 0 0 0 0 0 0 0 0 0 6 0.002 
1012 7 0.00834204 0.107978 0.0187932 0 0 0 0.234546 0.0311108 0.0920417 0.00501825 0.00730857 -0.00211477 0 0 0 0 0 0 1 0 0 0 0 0 0 0 0 1 5 0.002 
1041 2 0.00657282 0.075549 0.0207782 0 0 0 0.0718273 -0.0628762 -0.0223937 0 -0.000164368 0 0 0 0 0 0 0 0 0 0 0 0 0 0 0 0 0 1 0.002 
991 8 0.010045 0.0863447 0.0201505 0 0 0 0.00562198 -0.119062 -0.00480305 0 -0.000164368 0 0 0 0 0 0 0 0 0 0 0 0 0 0 0 0 0 2 0.002 
416 5 0.00599448 0.0868428 0.0208454 0 0 0 0.00325481 -0.162827 -0.0217874 0 -0.000164368 0 0 0 0 0 0 0 0 0 0 0 0 0 0 0 0 0 33 0.002 
399 3 0.0145154 0.0872645 0.0190022 0 0 0 0.101653 -0.151573 -0.109555 0 -0.000164368 0 0 0 0 0 0 0 0 0 0 0 0 0 0 0 0 0 23 0.002 
165 4 0.0115566 0.0900048 0.0207991 0 0 0 -0.00731012 -0.110313 -0.0406518 0 -0.000164368 0 0 0 0 0 0 0 0 0 0 0 0 0 0 0 0 0 18 0.002 
632 6 0.014978 0.0914781 0.0189927 0 0 0 -0.00271859 -0.0439434 -0.0797572 0 -0.000164368 0 0 0 0 0 0 0 0 0 0 0 0 0 0 0 0 0 22 0.002 
1068 4 0.00686834 0.0952895 0.019678 0 0 0 0.0606916 -0.0315175 0.0519304 0.000206055 -0.000202141 -0.000374039 0 0 0 1 0 0 0 0 0 0 0 0 0 0 0 0 2 0.002 
364 3 0.0138069 0.0961249 0.0210803 0 0 0 -0.373785 -0.090556 0.287031 0.00952501 0.00206428 -0.0144998 0 0 3 0 0 0 0 0 0 0 0 0 0 0 0 0 24 0.002 
1073 6 0.00837198 0.101304 0.0206682 0 0 0 -0.0164215 0.186011 0.145542 0.00013636 -7.17309e-05 -0.000379573 0 0 0 0 0 0 0 0 0 0 1 0 0 0 0 0 1 0.002 
674 10 0.00337834 0.104303 0.0192688 0 0 0 0.0359642 -0.0909195 0.14316 -5.22915e-05 0.000370421 0.00108268 0 0 1 0 0 0 0 0 0 0 0 0 0 0 0 0 15 0.002 
700 2 0.013144 0.103667 0.0204867 0 0 0 0.113821 -0.25486 0.0214404 0 -0.000164368 0 0 0 0 0 0 0 0 0 0 0 0 0 0 0 0 0 8 0.002 
289 3 0.0184908 0.10772 0.0211438 0 0 0 0.0950128 -0.0871382 0.166372 0 -0.000164368 0 0 0 0 0 0 0 0 0 0 0 0 0 0 0 0 0 18 0.002 
662 1 0.0122813 0.10777 0.0199994 0 0 0 0.0282452 -0.146066 0.166147 0 -0.000164368 0 0 0 0 0 0 0 0 0 0 0 0 0 0 0 0 0 17 0.002 
601 8 0.00312671 0.0774605 0.0217555 0 0 0 0.0543534 -0.147741 -0.133177 0 -0.000164368 0 0 0 0 0 0 0 0 0 0 0 0 0 0 0 0 0 30 0.002 
866 4 0.00517573 0.0807467 0.0229872 0 0 0 -0.0330508 -0.180021 -0.0649828 0 -0.000164368 0 0 0 0 0 0 0 0 0 0 0 0 0 0 0 0 0 8 0.002 
167 2 0.0133333 0.0803752 0.0218806 0 0 0 0.206939 -0.202587 -0.184436 0 -0.000164368 0 0 0 0 0 0 0 0 0 0 0 0 0 0 0 0 0 25 0.002 
1062 4 0.0160352 0.0831035 0.0234517 0 0 0 0.0172405 -0.128927 0.0594315 0.000482923 -0.000547522 -0.000332465 0 0 0 2 0 0 0 0 0 0 0 0 0 0 0 0 5 0.002 
283 10 0.00301874 0.0845333 0.022908 0 0 0 0.000594946 -0.234587 0.0698085 0 -0.000164368 0 0 0 0 0 0 0 0 0 0 0 0 0 0 0 0 0 18 0.002 
665 2 0.0184952 0.0857691 0.0216661 0 0 0 0.158408 -0.230121 0.0182096 0 -0.000164368 0 0 0 0 0 0 0 0 0 0 0 0 0 0 0 0 0 15 0.002 
539 8 0.0150459 0.088924 0.0228182 0 0 0 -0.00951229 -0.197801 -0.0220405 -0.000760993 -0.0059284 -9.86879e-05 0 0 0 0 0 0 0 2 0 0 0 0 0 0 0 0 22 0.002 
9 6 0.00304026 0.0890854 0.0224486 0 0 0 0.0268482 -0.134268 -0.025093 0 -0.000164368 0 0 0 0 0 0 0 0 0 0 0 0 0 0 0 0 0 32 0.002 
1046 3 0.00730475 0.0908489 0.0221204 0 0 0 -0.0263171 -0.0778817 -0.0533658 4.25316e-05 -0.000165997 -7.34866e-05 0 0 2 0 0 0 0 0 0 0 0 0 0 0 0 0 3 0.002 
922 5 0.00326408 0.0931963 0.0221174 0 0 0 -0.0281528 -0.124179 0.081204 3.86783e-05 -0.000135375 0.000450284 0 0 1 0 0 0 0 0 0 0 0 0 0 0 0 0 2 0.002 
1037 5 0.0136116 0.0926498 0.0230021 0 0 0 -0.13319 -0.393798 0.16804 0.0121268 0.0216528 -0.0282698 0 0 1 0 3 0 0 1 0 0 0 0 0 0 0 0 6 0.002 
385 7 0.010042 0.0937044 0.021532 0 0 0 0.0340096 -0.107574 0.0435549 7.12135e-07 -0.000162743 -9.03027e-07 0 0 1 0 0 0 0 0 0 0 0 0 0 0 0 0 25 0.002 
931 4 0.0171436 0.0944046 0.0223851 0 0 0 -0.174274 -0.270861 -0.0212294 0.0146722 0.0010993 -0.00795887 0 0 1 2 1 0 0 0 0 0 0 0 0 0 0 0 9 0.002 
792 2 0.00301087 0.0983631 0.0225648 0 0 0 0.00168233 -0.0962079 0.0184102 0 -0.000164368 0 0 0 0 0 0 0 0 0 0 0 0 0 0 0 0 0 13 0.002 
976 5 0.00649892 0.0965848 0.0234417 0 0 0 0.0238901 -0.031063 0.059834 -0.000206055 -0.000126595 0.000374039 0 0 0 1 0 0 0 0 0 0 0 0 0 0 0 0 3 0.002 
56 7 0.011155 0.0987335 0.0224722 0 0 0 -0.299777 0.119187 0.226751 -0.0213178 0.00858632 0.00773877 0 0 1 0 0 0 0 0 0 0 0 0 0 0 0 0 31 0.002 
802 4 0.0161439 0.0994392 0.0230734 0 0 0 -0.0554532 -0.12744 0.146485 0.00430076 0.000406467 0.000936891 0 0 0 1 0 0 0 0 0 0 0 0 0 0 0 0 9 0.002 
1051 10 0.00303122 0.102893 0.0229922 0 0 0 0.0141367 -0.0663695 0.191445 -0.000113208 0.00282471 -0.00400211 0 0 0 0 0 0 0 0 0 1 0 0 0 0 0 0 1 0.002 
814 13 0.0175608 0.103097 0.0221616 0 0 0 0.0821024 -0.102154 0.146549 0 -0.000164368 0 0 0 0 0 0 0 0 0 0 0 0 0 0 0 0 0 19 0.002 
1066 1 0.00526585 0.107997 0.0213314 0 0 0 0.0740355 0.0537701 -0.107092 -0.00528382 -0.00372014 0.00501828 0 0 0 0 0 0 1 0 0 0 0 0 0 0 0 0 1 0.002 
552 8 0.0146134 0.10795 0.0233046 0 0 0 0.0500466 0.0705102 0.223057 0 -0.000164368 0 0 0 0 0 0 0 0 0 0 0 0 0 0 0 0 0 15 0.002 
886 5 0.0155529 0.0772336 0.0244729 0 0 0 -0.00221559 -0.135717 -0.0573433 -0.000100671 -0.000219115 0.000147002 0 0 0 0 1 0 0 0 0 0 0 0 0 0 0 0 10 0.002 
173 3 0.00899918 0.07817 0.0244716 0 0 0 0.0486705 -0.187344 -0.0934378 0 -0.000164368 0 0 0 0 0 0 0 0 0 0 0 0 0 0 0 0 0 12 0.002 
981 4 0.0106327 0.082825 0.0237086 0 0 0 0.347307 -0.025649 -0.124881 0 -0.000164368 0 0 0 0 0 0 0 0 0 0 0 0 0 0 0 0 0 1 0.002 
698 6 0.00710295 0.0850848 0.0251774 0 0 0 0.0760485 -0.227118 0.0249369 0.000122791 -4.76462e-06 -0.0014111 0 0 0 0 0 1 0 0 0 0 0 0 0 0 0 0 20 0.002 
287 6 0.0132482 0.0857082 0.0246529 0 0 0 -0.00332824 -0.126272 -0.0393352 0.000361042 5.67425e-05 -0.000110437 0 0 0 1 0 1 0 0 0 0 0 0 0 0 0 0 21 0.002 
253 2 0.0175139 0.0863523 0.0256611 0 0 0 -0.0329164 0.0683137 -0.022711 0 -0.000164368 0 0 0 0 0 0 0 0 0 0 0 0 0 0 0 0 0 29 0.002 
359 3 0.00975085 0.0878213 0.0238727 0 0 0 -0.0534723 -0.0992621 -0.08595 0 -0.000164368 0 0 0 0 0 0 0 0 0 0 0 0 0 0 0 0 0 24 0.002 
878 12 0.0103717 0.0916049 0.0250615 0 0 0 -0.0809749 -0.186504 0.0627917 -0.0157434 -0.0183291 0.0147436 0 0 0 0 1 0 0 0 0 0 0 0 0 0 0 0 7 0.002 
779 2 0.0166508 0.0914914 0.0257002 0 0 0 0.0289594 -0.202114 0.00129062 0 -0.000164368 0 0 0 0 0 0 0 0 0 0 0 0 0 0 0 0 0 15 0.002 
760 3 0.0030556 0.0956961 0.0255511 0 0 0 -0.0291434 -0.0687898 0.06015 0 -0.000164368 0 0 0 0 0 0 0 0 0 0 0 0 0 0 0 0 0 17 0.002 
703 3 0.0101342 0.0956841 0.0250883 0 0 0 0.0385536 -0.0809244 0.0104885 0 -0.000164368 0 0 0 0 0 0 0 0 0 0 0 0 0 0 0 0 0 15 0.002 
758 4 0.013804 0.0972538 0.0254497 0 0 0 -0.0857 -0.212216 -0.0104059 -0.000470351 -0.00552229 0.00177949 0 0 0 1 0 0 0 0 0 0 0 0 0 0 0 0 14 0.002 
762 6 0.00783111 0.100852 0.0246033 0 0 0 -0.0271185 0.0725166 0.142089 0.00038386 0.00133399 -0.00112202 0 0 0 0 0 1 0 0 0 0 0 0 0 0 0 0 23 0.002 
581 6 0.015383 0.103 0.0255324 0 0 0 -0.0296922 -0.152208 0.0566897 0.0141272 -0.00131794 0.0038025 0 0 0 0 0 0 0 0 0 0 0 0 0 0 0 0 28 0.002 
709 1 0.00682996 0.104623 0.0237102 0 0 0 0.00796937 0.118925 0.254539 0 -0.000164368 0 0 0 0 0 0 0 0 0 0 0 0 0 0 0 0 0 19 0.002 
638 6 0.0116424 0.103373 0.0242261 0 0 0 -0.0355956 -0.178589 -0.027541 -0.0141272 0.000989201 -0.0038025 0 0 0 0 0 0 0 0 0 0 0 0 0 0 0 0 15 0.002 
427 6 0.00318198 0.107939 0.0247794 0 0 0 0.0905867 -0.0323226 -0.146424 0 -0.000164368 0 0 0 0 0 0 0 0 0 0 0 0 0 0 0 0 0 25 0.002 
945 9 0.011353 0.10779 0.0257678 0 0 0 -0.0070484 -0.0676577 0.0870772 0 -0.000164368 0 0 0 0 0 0 0 0 0 0 0 0 0 0 0 0 0 2 0.002 
505 2 0.00344135 0.0758325 0.0262499 0 0 0 0.00466706 -0.136703 -0.0171486 0 -0.000164368 0 0 0 0 0 0 0 0 0 0 0 0 0 0 0 0 0 28 0.002 
540 4 0.00338828 0.107949 0.0329422 0 0 0 0.0359557 -0.0367233 -0.036069 0 -0.000164368 0 0 0 0 0 0 0 0 0 0 0 0 0 0 0 0 0 19 0.002 
844 6 0.012117 0.0765241 0.0263895 0 0 0 0.0581143 -0.160711 0.0966816 0.000100671 -0.000109621 -0.000147002 0 0 0 0 1 0 0 0 0 0 0 0 0 0 0 0 5 0.002 
543 1 0.00625745 0.0789612 0.0273411 0 0 0 0.0110921 -0.150099 -0.0954164 0 -0.000164368 0 0 0 0 0 0 0 0 0 0 0 0 0 0 0 0 0 23 0.002 
314 6 0.00299955 0.0813053 0.0268322 0 0 0 -0.0349883 -0.139967 -0.0423322 0.00178253 0.00559173 0.00141401 0 0 0 0 0 0 0 0 0 0 0 0 0 0 0 0 15 0.002 
321 7 0.0176854 0.0798043 0.0266763 0 0 0 -0.0899893 -0.0494609 -0.0572579 0 -0.000164368 0 0 0 0 0 0 0 0 0 0 0 0 0 0 0 0 0 19 0.002 
439 1 0.0138241 0.0821737 0.0266515 0 0 0 -0.044749 -0.121788 0.00778572 -0.000830184 -0.0013411 -0.00228615 1 0 0 1 0 0 0 0 0 0 0 0 0 0 0 0 17 0.002 
695 2 0.00307229 0.0871759 0.0259707 0 0 0 -0.0189758 -0.119684 0.0359806 0 -0.000164368 0 0 0 0 0 0 0 0 0 0 0 0 0 0 0 0 0 15 0.002 
261 1 0.00644739 0.0894293 0.0257594 0 0 0 0.0355648 -0.0908069 -0.0393684 -4.32437e-05 -0.000164365 7.43897e-05 0 0 1 0 0 0 0 0 0 0 0 0 0 0 0 0 16 0.002 