ITEM: TIMESTEP
9100000
ITEM: NUMBER OF ATOMS
1116
ITEM: BOX BOUNDS ff ff ff
-0.01 0.45
-0.15 0.15
-0.08 0.1
ITEM: ATOMS id type x y z ix iy iz vx vy vz fx fy fz c_cc_1 c_cc_2 c_cc_3 c_cc_4 c_cc_5 c_cc_6 c_cc_7 c_cc_8 c_cc_9 c_cc_10 c_cc_11 c_cc_12 c_cc_13 c_cc_14 c_cc_15 c_cc_16 f_fppacc radius 
706 9 0.0169554 -0.0480578 -0.0305184 0 0 0 1.05872 -1.59941 1.19216 0 -0.000164368 0 0 0 0 0 0 0 0 0 0 0 0 0 0 0 0 0 37 0.002 
111 3 0.0135661 -0.0504389 -0.0278604 0 0 0 0.400285 -1.20105 1.93386 0 -0.000164368 0 0 0 0 0 0 0 0 0 0 0 0 0 0 0 0 0 42 0.002 
535 3 0.0038872 0.0134325 -0.0550435 0 0 0 0.430762 -3.93555 -2.41659 0 -0.000164368 0 0 0 0 0 0 0 0 0 0 0 0 0 0 0 0 0 26 0.002 
1023 1 0.0101639 0.0364019 -0.0173177 0 0 0 -1.29805 -7.05469 2.81387 0 -0.000164368 0 0 0 0 0 0 0 0 0 0 0 0 0 0 0 0 0 8 0.002 
41 1 0.0151253 0.0528571 -0.0355 0 0 0 -3.85149e-240 -6.16607e-20 -4.88148e-15 4.86083e-240 0 0 0 0 0 0 0 0 0 0 0 0 0 0 0 0 0 0 1 0.002 
572 3 0.00423389 0.0736707 -0.0325982 0 0 0 0.12354 1.21476 0.55732 0 -0.000164368 0 0 0 0 0 0 0 0 0 0 0 0 0 0 0 0 0 19 0.002 
112 6 0.0173388 0.070765 -0.0311666 0 0 0 3.48744 1.09416 -2.03163 0 -0.000164368 0 0 0 0 0 0 0 0 0 0 0 0 0 0 0 0 0 37 0.002 
563 1 0.0124226 0.0417413 -0.0264558 0 0 0 -5.19735 -6.22345 -0.736901 0 -0.000164368 0 0 0 0 0 0 0 0 0 0 0 0 0 0 0 0 0 10 0.002 
1027 1 0.00789719 0.0433492 -0.0228235 0 0 0 0.364083 -2.01505 0.197225 0 -0.000164368 0 0 0 0 0 0 0 0 0 0 0 0 0 0 0 0 0 3 0.002 
525 1 0.00412664 0.0557859 -0.0217484 0 0 0 -0.155443 -2.12438 1.20552 0 -0.000164368 0 0 0 0 0 0 0 0 0 0 0 0 0 0 0 0 0 19 0.002 
855 7 0.0177482 0.0396872 -0.00477699 0 0 0 -3.6121 -8.94056 14.2899 1.03617 1.28951 -0.695845 0 0 0 0 0 0 1 0 0 0 0 0 0 0 0 0 34 0.002 
1109 4 0.00894405 0.0556377 -0.00998451 0 0 0 1.90901 -1.2215 1.40535 0 -0.000164368 0 0 0 0 0 0 0 0 0 0 0 0 0 0 0 0 0 0 0.002 
1107 3 0.0131392 0.0600955 -0.0130981 0 0 0 -7.2688 0.905832 -7.26843 0 -0.000164368 0 0 0 0 0 0 0 0 0 0 0 0 0 0 0 0 0 0 0.002 
878 12 0.0159998 0.0401943 -0.00133274 0 0 0 -0.233849 -3.05273 4.47936 -1.03617 -1.28984 0.695845 0 0 0 0 0 0 1 0 0 0 0 0 0 0 0 0 10 0.002 
368 5 0.00518205 0.0745564 0.00483148 0 0 0 -1.87729 -0.186838 0.304744 0 -0.000164368 0 0 0 0 0 0 0 0 0 0 0 0 0 0 0 0 0 28 0.002 
685 7 0.0138581 0.0709009 0.00963005 0 0 0 -0.0193183 -0.296404 -0.328639 0 -0.000164368 0 0 0 0 0 0 0 0 0 0 0 0 0 0 0 0 0 23 0.002 
876 14 0.0101705 0.0736573 0.00872081 0 0 0 -0.0625262 0.0445097 -0.759348 0 -0.000164368 0 0 0 0 0 0 0 0 0 0 0 0 0 0 0 0 0 8 0.002 
1123 3 0.0127717 0.0445567 0.0162807 0 0 0 -0.050102 -0.370677 -0.412425 0 -0.000164368 0 0 0 0 0 0 0 0 0 0 0 0 0 0 0 0 0 0 0.002 
353 6 0.0111362 0.0743407 0.0195973 0 0 0 0.0440329 -0.34487 -0.098414 0 -0.000164368 0 0 0 0 0 0 0 0 0 0 0 0 0 0 0 0 0 14 0.002 
420 3 0.0102328 0.0719359 0.0226666 0 0 0 0.304242 -0.302979 0.0415989 0 -0.000164368 0 0 0 0 0 0 0 0 0 0 0 0 0 0 0 0 0 37 0.002 
550 10 0.00307328 0.0735223 0.0227111 0 0 0 -2.87869e-05 -0.226827 -0.173266 0 -0.000164368 0 0 0 0 0 0 0 0 0 0 0 0 0 0 0 0 0 25 0.002 
640 1 0.0169239 0.0633353 0.0248169 0 0 0 0.194033 -0.407179 -0.063727 0 -0.000164368 0 0 0 0 0 0 0 0 0 0 0 0 0 0 0 0 0 16 0.002 
242 6 0.00372052 0.0696691 0.0243823 0 0 0 0.0411836 -0.204798 -0.0688354 0 -0.000164368 0 0 0 0 0 0 0 0 0 0 0 0 0 0 0 0 0 32 0.002 
831 4 0.0140692 0.0697559 0.023766 0 0 0 0.103575 -0.110023 -0.0704624 0 -0.000164368 0 0 0 0 0 0 0 0 0 0 0 0 0 0 0 0 0 7 0.002 
997 6 0.0185293 0.0683404 0.0250049 0 0 0 0.121826 -0.443778 -0.0904096 0 -0.000164368 0 0 0 0 0 0 0 0 0 0 0 0 0 0 0 0 0 8 0.002 
18 3 0.00745292 0.0712294 0.0263176 0 0 0 0.0321835 -0.185406 -0.0594264 0 -0.000164368 0 0 0 0 0 0 0 0 0 0 0 0 0 0 0 0 0 27 0.002 
469 3 0.0158056 0.0729747 0.0279619 0 0 0 0.210847 -0.161334 -0.00135073 0 -0.000164368 0 0 0 0 0 0 0 0 0 0 0 0 0 0 0 0 0 26 0.002 
777 3 0.0124754 0.0640465 0.0287708 0 0 0 0.155261 -0.297217 0.00165139 0 -0.000164368 0 0 0 0 0 0 0 0 0 0 0 0 0 0 0 0 0 14 0.002 
1033 2 0.00526474 0.0655896 0.0289884 0 0 0 -0.0293352 -0.316067 -0.0780661 0 -0.000164368 0 0 0 0 0 0 0 0 0 0 0 0 0 0 0 0 0 11 0.002 
929 3 0.00963987 0.0695086 0.0295168 0 0 0 0.0269697 -0.232573 0.00632172 0.000627196 -0.00173435 0.000600958 0 0 0 0 0 0 0 0 0 0 0 0 0 0 0 0 23 0.002 
597 6 0.0153416 0.0689194 0.028022 0 0 0 0.173993 -0.171934 -0.0347152 0 -0.000164368 0 0 0 0 0 0 0 0 0 0 0 0 0 0 0 0 0 37 0.002 
748 7 0.00305361 0.0714112 0.0280888 0 0 0 0.00532353 -0.142062 -0.0948387 0 -0.000164368 0 0 0 0 0 0 0 0 0 0 0 0 0 0 0 0 0 23 0.002 
783 3 0.00996277 0.0734044 0.0286839 0 0 0 0.0721576 -0.247646 0.0523767 -0.000627196 0.00140562 -0.000600958 0 0 0 0 0 0 0 0 0 0 0 0 0 0 0 0 32 0.002 
394 6 0.0154824 0.0509519 0.0306597 0 0 0 0.25311 -1.19278 0.0360821 0 -0.000164368 0 0 0 0 0 0 0 0 0 0 0 0 0 0 0 0 0 34 0.002 
562 3 0.0036447 0.0574197 0.032227 0 0 0 -0.0411599 -0.393232 -0.0496958 0 -0.000164368 0 0 0 0 0 0 0 0 0 0 0 0 0 0 0 0 0 23 0.002 
483 1 0.00397515 0.0610831 0.0304662 0 0 0 -0.188514 -0.248482 0.0456174 0 -0.000164368 0 0 0 0 0 0 0 0 0 0 0 0 0 0 0 0 0 23 0.002 
923 10 0.015909 0.0660168 0.0322778 0 0 0 -0.0111573 -0.0549309 -0.0907139 0 -0.000164368 0 0 0 0 0 0 0 0 0 0 0 0 0 0 0 0 0 12 0.002 
144 9 0.0126659 0.0699843 0.0321661 0 0 0 0.113783 -0.258753 -0.0394705 0 -0.000164368 0 0 0 0 0 0 0 0 0 0 0 0 0 0 0 0 0 42 0.002 
898 1 0.00633625 0.0723025 0.0303323 0 0 0 -0.00856016 -0.162215 -0.0449072 0 -0.000164368 0 0 0 0 0 0 0 0 0 0 0 0 0 0 0 0 0 14 0.002 
189 5 0.00866009 0.0653948 0.0330046 0 0 0 -0.0443521 -0.152238 -0.00602667 0.000687543 0.00191428 -0.00437882 0 0 0 0 0 0 0 0 0 0 0 0 0 0 0 0 26 0.002 
449 4 0.00327822 0.068012 0.0328509 0 0 0 0.00736667 -0.148345 -0.0168894 0 -0.000164368 0 0 0 0 0 0 0 0 0 0 0 0 0 0 0 0 0 21 0.002 
380 3 0.00754824 0.0694152 0.0329592 0 0 0 0.0192203 -0.147853 0.0336063 0 -0.000164368 0 0 0 0 0 0 0 0 0 0 0 0 0 0 0 0 0 17 0.002 
902 3 0.00302032 0.0724058 0.0328997 0 0 0 0.00253738 -0.219104 -0.00831826 0 -0.000164368 0 0 0 0 0 0 0 0 0 0 0 0 0 0 0 0 0 10 0.002 
488 6 0.0166103 0.0719276 0.032938 0 0 0 0.0889742 -0.318769 8.94508e-05 0 -0.000164368 0 0 0 0 0 0 0 0 0 0 0 0 0 0 0 0 0 32 0.002 
627 2 0.0185133 0.0707062 0.0176594 0 0 0 -0.96302 3.5157 -1.43016 0 -0.000164368 0 0 0 0 0 0 0 0 0 0 0 0 0 0 0 0 0 35 0.002 
225 4 0.0114302 0.0968097 -0.0314379 0 0 0 1.11942 8.3088 -7.25991 0.0298953 0.45038 -2.40204 0 0 0 1 0 0 0 0 0 0 0 0 0 0 0 0 18 0.002 
141 5 0.00301017 0.099574 -0.031839 0 0 0 2.03828 -0.0308946 2.72089 0 -0.000164368 0 0 0 0 0 0 0 0 0 0 0 0 0 0 0 0 0 44 0.002 
634 2 0.0118885 0.107161 -0.0328897 0 0 0 -0.0739764 -0.27615 0.047068 0 -0.000164368 0 0 0 0 0 0 0 0 0 0 0 0 0 0 0 0 0 21 0.002 
704 9 0.00300208 0.107678 -0.0318828 0 0 0 0.0187436 -0.284664 0.171534 0 -0.000164368 0 0 0 0 0 0 0 0 0 0 0 0 0 0 0 0 0 20 0.002 
65 2 0.00726016 0.107999 -0.0325723 0 0 0 0.145018 -0.0651486 0.0841389 0 -0.000164368 0 0 0 0 0 0 0 0 0 0 0 0 0 0 0 0 0 18 0.002 
741 5 0.00734547 0.0910836 -0.0314504 0 0 0 -1.90611 0.926559 -0.644792 0 -0.000164368 0 0 0 0 0 0 0 0 0 0 0 0 0 0 0 0 0 17 0.002 
69 6 0.0151947 0.107539 -0.030312 0 0 0 -0.304999 -0.18598 0.684947 0 -0.000164368 0 0 0 0 0 0 0 0 0 0 0 0 0 0 0 0 0 25 0.002 
108 2 0.0149695 0.0939778 -0.0297114 0 0 0 4.32645 4.98869 -8.611 0 -0.000164368 0 0 0 0 0 0 0 0 0 0 0 0 0 0 0 0 0 39 0.002 
1129 5 0.0135979 0.102352 -0.0268645 0 0 0 -1.14345 4.07439 2.44369 0.187248 -0.035534 0.00220246 0 0 0 0 1 0 0 0 0 0 0 0 0 0 0 0 1 0.002 
402 1 0.0100743 0.10332 -0.0281397 0 0 0 -1.59528 1.73984 -1.08243 -0.187248 0.0352052 -0.00220246 0 0 0 0 1 0 0 0 0 0 0 0 0 0 0 0 30 0.002 
764 4 0.00793427 0.107627 -0.0281272 0 0 0 0.354004 -0.162894 0.0465745 0 -0.000164368 0 0 0 0 0 0 0 0 0 0 0 0 0 0 0 0 0 31 0.002 
756 2 0.00304932 0.0926781 -0.0257732 0 0 0 0.0772671 -0.57932 -0.296413 0 -0.000164368 0 0 0 0 0 0 0 0 0 0 0 0 0 0 0 0 0 21 0.002 
942 2 0.0094867 0.0990054 -0.0272934 0 0 0 -3.44572 6.47423 -0.431274 0.240067 -0.384363 -0.0135354 0 1 0 0 0 0 0 0 0 0 0 0 0 0 0 0 2 0.002 
434 14 0.00627268 0.102488 -0.0269177 0 0 0 -0.965553 2.48125 -1.01276 0 -0.000164368 0 0 0 0 0 0 0 0 0 0 0 0 0 0 0 0 0 37 0.002 
586 9 0.0173326 0.104529 -0.0248752 0 0 0 -0.279802 0.127723 1.25883 0 -0.000164368 0 0 0 0 0 0 0 0 0 0 0 0 0 0 0 0 0 24 0.002 
287 6 0.0154287 0.107999 -0.024151 0 0 0 -1.15645 -0.0134237 1.47765 0 -0.000164368 0 0 0 0 0 0 0 0 0 0 0 0 0 0 0 0 0 21 0.002 
1058 2 0.00661939 0.0976641 -0.024876 0 0 0 -2.81404 3.1915 -2.62767 -0.0266141 -0.00035989 0.0435885 0 0 0 0 0 0 0 0 0 0 0 0 0 0 0 0 10 0.002 
1114 1 0.00867209 0.10397 -0.0232427 0 0 0 0.0384197 -0.2544 0.64178 0 -0.000164368 0 0 0 0 0 0 0 0 0 0 0 0 0 0 0 0 0 1 0.002 
863 1 0.0135494 0.103086 -0.0220642 0 0 0 -0.661356 -0.807245 2.49792 0 -0.000164368 0 0 0 0 0 0 0 0 0 0 0 0 0 0 0 0 0 7 0.002 
937 4 0.00480653 0.106016 -0.0240898 0 0 0 -0.150625 0.275198 0.15796 0 -0.000164368 0 0 0 0 0 0 0 0 0 0 0 0 0 0 0 0 0 17 0.002 
906 5 0.0108418 0.107493 -0.0238372 0 0 0 -0.18435 -0.174635 0.242513 0 -0.000164368 0 0 0 0 0 0 0 0 0 0 0 0 0 0 0 0 0 19 0.002 
543 1 0.0139689 0.0950715 -0.0207867 0 0 0 0.188984 -0.276961 -1.14167 0 -0.000164368 0 0 0 0 0 0 0 0 0 0 0 0 0 0 0 0 0 27 0.002 
176 2 0.0123209 0.0993285 -0.0211634 0 0 0 1.12209 0.991531 1.2701 0 -0.000164368 0 0 0 0 0 0 0 0 0 0 0 0 0 0 0 0 0 22 0.002 
825 1 0.00373424 0.102247 -0.0218404 0 0 0 -0.0899098 -0.251821 0.0238665 0 -0.000164368 0 0 0 0 0 0 0 0 0 0 0 0 0 0 0 0 0 19 0.002 
699 9 0.0108432 0.10396 -0.0190868 0 0 0 -1.37117 -0.573008 2.1189 0 -0.000164368 0 0 0 0 0 0 0 0 0 0 0 0 0 0 0 0 0 13 0.002 
288 1 0.00306908 0.106737 -0.0203303 0 0 0 0.0254789 0.222552 -0.241269 0 -0.000164368 0 0 0 0 0 0 0 0 0 0 0 0 0 0 0 0 0 24 0.002 
589 5 0.00736822 0.107886 -0.0205368 0 0 0 0.334463 -0.0855295 0.16093 0 -0.000164368 0 0 0 0 0 0 0 0 0 0 0 0 0 0 0 0 0 26 0.002 
1136 1 0.0115702 0.0957702 -0.0282635 0 0 0 2.70405 2.04061 -4.65297 -0.243348 -0.0663153 2.37198 0 1 0 1 0 0 0 0 0 0 0 0 0 0 0 0 2 0.002 
954 5 0.00508429 0.0946329 -0.0176067 0 0 0 -0.165314 -0.253563 1.29477 0.0815925 -0.109157 -0.151627 0 0 0 0 1 0 0 0 0 0 0 0 0 0 0 0 13 0.002 
385 7 0.00325973 0.100008 -0.0181651 0 0 0 -0.349502 -0.382065 0.00286633 0 -0.000164368 0 0 0 0 0 0 0 0 0 0 0 0 0 0 0 0 0 27 0.002 
570 1 0.00637232 0.104254 -0.0186356 0 0 0 -0.222852 -0.0992556 0.279323 0 -0.000164368 0 0 0 0 0 0 0 0 0 0 0 0 0 0 0 0 0 32 0.002 
1024 5 0.0109371 0.107973 -0.0182252 0 0 0 -0.491158 -0.0975498 1.648 0 -0.000164368 0 0 0 0 0 0 0 0 0 0 0 0 0 0 0 0 0 0 0.002 
915 9 0.0126849 0.0996063 -0.0168947 0 0 0 -0.17125 -0.984212 -0.133487 0 -0.000164368 0 0 0 0 0 0 0 0 0 0 0 0 0 0 0 0 0 25 0.002 
118 2 0.00712933 0.107572 -0.0157093 0 0 0 -0.141218 0.276937 0.27983 0 -0.000164368 0 0 0 0 0 0 0 0 0 0 0 0 0 0 0 0 0 28 0.002 
182 2 0.010414 0.0795204 -0.0197748 0 0 0 -3.27378 7.1674 -12.3185 0 -0.000164368 0 0 0 0 0 0 0 0 0 0 0 0 0 0 0 0 0 31 0.002 
430 4 0.00312117 0.0966294 -0.0149163 0 0 0 -0.558984 0.19042 1.04768 -0.0815925 0.108828 0.151627 0 0 0 0 1 0 0 0 0 0 0 0 0 0 0 0 36 0.002 
794 6 0.0172981 0.0988896 -0.0138669 0 0 0 -1.15574 5.42605 0.0778508 0 -0.000164368 0 0 0 0 0 0 0 0 0 0 0 0 0 0 0 0 0 9 0.002 
554 3 0.00304201 0.103074 -0.0150083 0 0 0 -0.03394 -0.250098 0.125446 0 -0.000164368 0 0 0 0 0 0 0 0 0 0 0 0 0 0 0 0 0 8 0.002 
657 3 0.0109518 0.105098 -0.014475 0 0 0 0.252409 0.248642 0.867281 0 -0.000164368 0 0 0 0 0 0 0 0 0 0 0 0 0 0 0 0 0 15 0.002 
798 4 0.0154442 0.107102 -0.0146646 0 0 0 0.727014 0.00488159 0.0477569 0 -0.000164368 0 0 0 0 0 0 0 0 0 0 0 0 0 0 0 0 0 15 0.002 
296 2 0.0115289 0.100032 -0.012678 0 0 0 -0.0307557 -0.0861169 0.32284 0 -0.000164368 0 0 0 0 0 0 0 0 0 0 0 0 0 0 0 0 0 15 0.002 
55 4 0.00809297 0.104742 -0.0112781 0 0 0 -0.126163 0.784747 -0.280514 0.0631434 -0.0286093 0.0167833 0 0 0 1 0 0 0 0 0 0 0 0 0 0 0 0 17 0.002 
654 3 0.0148733 0.103664 -0.0124463 0 0 0 0.79469 0.0238568 0.200078 0 -0.000164368 0 0 0 0 0 0 0 0 0 0 0 0 0 0 0 0 0 31 0.002 
1077 1 0.00475495 0.106849 -0.0117031 0 0 0 0.0741782 -0.203681 0.155102 -0.0631434 0.0282806 -0.0167833 0 0 0 1 0 0 0 0 0 0 0 0 0 0 0 0 4 0.002 
742 3 0.00695003 0.0952732 -0.0111309 0 0 0 -0.346541 1.82059 -3.00019 0 -0.000164368 0 0 0 0 0 0 0 0 0 0 0 0 0 0 0 0 0 17 0.002 
695 2 0.011852 0.09641 -0.0104324 0 0 0 0.011641 -0.188854 -1.15509 0 -0.000164368 0 0 0 0 0 0 0 0 0 0 0 0 0 0 0 0 0 17 0.002 
972 3 0.00314167 0.100671 -0.00887933 0 0 0 0.0326647 -0.140711 -0.102277 0 -0.000164368 0 0 0 0 0 0 0 0 0 0 0 0 0 0 0 0 0 9 0.002 
766 7 0.0116537 0.101452 -0.00880962 0 0 0 -0.00894623 0.277065 0.0712102 0 -0.000164368 0 0 0 0 0 0 0 0 0 0 0 0 0 0 0 0 0 22 0.002 
1119 4 0.00337785 0.0834827 -0.0122856 0 0 0 -0.992351 8.88054 -9.52573 0 -0.000164368 0 0 0 0 0 0 0 0 0 0 0 0 0 0 0 0 0 0 0.002 
195 7 0.0126555 0.0915001 -0.00723991 0 0 0 -1.67592 -0.127597 -2.11271 0 -0.000164368 0 0 0 0 0 0 0 0 0 0 0 0 0 0 0 0 0 31 0.002 
789 5 0.0148356 0.102769 -0.00652802 0 0 0 0.444722 -0.113195 0.556634 0 -0.000164368 0 0 0 0 0 0 0 0 0 0 0 0 0 0 0 0 0 22 0.002 
1011 6 0.00904676 0.107118 -0.00810846 0 0 0 0.150315 -0.0169812 0.31344 0 -0.000164368 0 0 0 0 0 0 0 0 0 0 0 0 0 0 0 0 0 8 0.002 
505 2 0.00478202 0.107991 -0.00763308 0 0 0 0.173849 -0.012468 0.202707 0 -0.000164368 0 0 0 0 0 0 0 0 0 0 0 0 0 0 0 0 0 31 0.002 
314 6 0.00302461 0.0884172 -0.006483 0 0 0 0.0987472 -0.110774 -1.00243 0 -0.000164368 0 0 0 0 0 0 0 0 0 0 0 0 0 0 0 0 0 17 0.002 
1001 4 0.00819077 0.0910527 -0.00527993 0 0 0 -1.17315 0.301356 -0.883496 0 -0.000164368 0 0 0 0 0 0 0 0 0 0 0 0 0 0 0 0 0 13 0.002 
984 3 0.00987247 0.100905 -0.00476529 0 0 0 0.210843 -0.0746012 0.0897598 0 -0.000164368 0 0 0 0 0 0 0 0 0 0 0 0 0 0 0 0 0 14 0.002 
245 1 0.0063021 0.104262 -0.00508381 0 0 0 0.0888039 -0.092077 0.420397 0 -0.000164368 0 0 0 0 0 0 0 0 0 0 0 0 0 0 0 0 0 27 0.002 
261 1 0.017718 0.105299 -0.0053734 0 0 0 -0.0799923 -0.0381338 0.789711 0 -0.000164368 0 0 0 0 0 0 0 0 0 0 0 0 0 0 0 0 0 22 0.002 
54 6 0.00980389 0.104208 -0.00231862 0 0 0 0.138407 -0.0184816 0.303367 0 -0.000164368 0 0 0 0 0 0 0 0 0 0 0 0 0 0 0 0 0 33 0.002 
375 4 0.0136614 0.103248 -0.00136563 0 0 0 0.0108086 -0.344315 0.570285 0 -0.000164368 0 0 0 0 0 0 0 0 0 0 0 0 0 0 0 0 0 25 0.002 
1071 3 0.00422162 0.107781 -0.0029287 0 0 0 0.083282 -0.0939115 0.191055 0 -0.000164368 0 0 0 0 0 0 0 0 0 0 0 0 0 0 0 0 0 0 0.002 
1056 1 0.0118384 0.0918953 0.000216043 0 0 0 0.588439 0.208139 -0.649289 0 -0.000164368 0 0 0 0 0 0 0 0 0 0 0 0 0 0 0 0 0 2 0.002 
601 8 0.0130069 0.0979553 -9.13405e-05 0 0 0 0.395169 -0.801505 0.674792 0 -0.000164368 0 0 0 0 0 0 0 0 0 0 0 0 0 0 0 0 0 32 0.002 
252 6 0.00666191 0.101339 -0.000492517 0 0 0 0.0292652 -0.39994 0.28773 0 -0.000164368 0 0 0 0 0 0 0 0 0 0 0 0 0 0 0 0 0 17 0.002 
250 5 0.00648863 0.107854 0.000457044 0 0 0 0.0609024 0.0345572 0.263579 0 -0.000164368 0 0 0 0 0 0 0 0 0 0 0 0 0 0 0 0 0 31 0.002 
963 3 0.00766871 0.0931515 0.00113306 0 0 0 0.46041 0.371701 -0.0502294 0 -0.000164368 0 0 0 0 0 0 0 0 0 0 0 0 0 0 0 0 0 13 0.002 
206 6 0.00313818 0.101183 0.00251005 0 0 0 0.00460884 -0.294151 0.487066 0 -0.000164368 0 0 0 0 0 0 0 0 0 0 0 0 0 0 0 0 0 31 0.002 
769 5 0.0110353 0.102337 0.00238178 0 0 0 0.14778 0.0427416 0.414706 0 -0.000164368 0 0 0 0 0 0 0 0 0 0 0 0 0 0 0 0 0 16 0.002 
501 2 0.0154026 0.102356 0.00319438 0 0 0 -0.0490162 0.311936 0.65135 0 -0.000164368 0 0 0 0 0 0 0 0 0 0 0 0 0 0 0 0 0 4 0.002 
669 1 0.00301078 0.107832 0.00245059 0 0 0 0.0142483 0.0583757 0.207641 0 -0.000164368 0 0 0 0 0 0 0 0 0 0 0 0 0 0 0 0 0 33 0.002 
130 1 0.0127337 0.10604 0.00147708 0 0 0 0.064736 -0.103875 0.47842 0 -0.000164368 0 0 0 0 0 0 0 0 0 0 0 0 0 0 0 0 0 23 0.002 
337 8 0.0035629 0.0916285 0.00552977 0 0 0 0.139546 -0.757096 0.788358 0 -0.000164368 0 0 0 0 0 0 0 0 0 0 0 0 0 0 0 0 0 35 0.002 
230 6 0.0159628 0.0932232 0.00415918 0 0 0 -0.787382 0.339033 0.132947 0 -0.000164368 0 0 0 0 0 0 0 0 0 0 0 0 0 0 0 0 0 38 0.002 
841 3 0.00575575 0.100273 0.00545594 0 0 0 -0.0818775 -0.207354 0.638977 0 -0.000164368 0 0 0 0 0 0 0 0 0 0 0 0 0 0 0 0 0 17 0.002 
802 4 0.0118472 0.106061 0.00828612 0 0 0 -0.221091 0.0540077 0.498701 0 -0.000164368 0 0 0 0 0 0 0 0 0 0 0 0 0 0 0 0 0 10 0.002 
1036 6 0.0061617 0.105678 0.00391372 0 0 0 -0.00646822 -0.0525192 0.255826 0 -0.000164368 0 0 0 0 0 0 0 0 0 0 0 0 0 0 0 0 0 14 0.002 
1113 4 0.00991245 0.107971 0.00360547 0 0 0 -0.0435731 -0.0290498 0.324579 0 -0.000164368 0 0 0 0 0 0 0 0 0 0 0 0 0 0 0 0 0 0 0.002 
291 1 0.0166941 0.107786 0.00517584 0 0 0 0.0669947 -0.0690957 0.538817 0 -0.000164368 0 0 0 0 0 0 0 0 0 0 0 0 0 0 0 0 0 28 0.002 
1135 5 0.0100708 0.0927474 0.00750829 0 0 0 -0.907467 0.141567 -0.468558 -0.0477612 -0.0410051 -0.0130084 0 0 0 0 1 0 0 0 0 0 0 0 0 0 0 0 1 0.002 
9 6 0.00384052 0.096344 0.00722555 0 0 0 -0.0911104 -0.202081 0.259843 0 -0.000164368 0 0 0 0 0 0 0 0 0 0 0 0 0 0 0 0 0 36 0.002 
830 7 0.0034202 0.104038 0.00705608 0 0 0 0.273371 -0.0300543 0.337258 0 -0.000164368 0 0 0 0 0 0 0 0 0 0 0 0 0 0 0 0 0 22 0.002 
624 7 0.00897967 0.103352 0.00573898 0 0 0 0.127363 -0.0164292 0.118494 0 -0.000164368 0 0 0 0 0 0 0 0 0 0 0 0 0 0 0 0 0 20 0.002 
1104 4 0.00774967 0.107268 0.00746805 0 0 0 -0.160073 -0.0888727 0.431783 0 -0.000164368 0 0 0 0 0 0 0 0 0 0 0 0 0 0 0 0 0 1 0.002 
931 4 0.00304954 0.108001 0.00758106 0 0 0 0.048042 0.0335451 0.259252 -0.00220762 -0.00253628 -0.0033746 0 0 0 0 0 0 0 0 0 0 0 0 0 0 0 0 10 0.002 
77 12 0.013897 0.0932304 0.00824436 0 0 0 -0.313656 -0.016539 0.90552 0.0477612 0.0406764 0.0130084 0 0 0 0 1 0 0 0 0 0 0 0 0 0 0 0 33 0.002 
1026 6 0.0160584 0.0974826 0.00936179 0 0 0 -0.933686 0.747587 0.195441 0 -0.000164368 0 0 0 0 0 0 0 0 0 0 0 0 0 0 0 0 0 13 0.002 
993 8 0.0115345 0.102085 0.00898122 0 0 0 0.186607 -0.127846 0.317267 0 -0.000164368 0 0 0 0 0 0 0 0 0 0 0 0 0 0 0 0 0 8 0.002 
976 5 0.0185434 0.096637 0.00160973 0 0 0 -0.419852 0.0170486 0.538914 0 -0.000164368 0 0 0 0 0 0 0 0 0 0 0 0 0 0 0 0 0 3 0.002 
1060 2 0.0184308 0.103506 0.00937209 0 0 0 0.132985 0.0625499 0.307899 0 -0.000164368 0 0 0 0 0 0 0 0 0 0 0 0 0 0 0 0 0 2 0.002 
781 2 0.0111383 0.0829346 0.00993142 0 0 0 -0.634796 0.61567 -0.450518 0 -0.000164368 0 0 0 0 0 0 0 0 0 0 0 0 0 0 0 0 0 24 0.002 
953 3 0.00338886 0.107349 0.0326033 0 0 0 0.0312583 -0.0727405 0.032031 0 -0.000164368 0 0 0 0 0 0 0 0 0 0 0 0 0 0 0 0 0 5 0.002 
364 3 0.0125046 0.0892853 0.0113391 0 0 0 0.165625 0.204098 -0.758304 0 -0.000164368 0 0 0 0 0 0 0 0 0 0 0 0 0 0 0 0 0 25 0.002 
792 2 0.00349159 0.094589 0.0108347 0 0 0 0.056079 -0.134564 -0.203635 0 -0.000164368 0 0 0 0 0 0 0 0 0 0 0 0 0 0 0 0 0 13 0.002 
730 3 0.00343069 0.0998617 0.0102422 0 0 0 -0.290316 -0.168706 0.317604 0 -0.000164368 0 0 0 0 0 0 0 0 0 0 0 0 0 0 0 0 0 11 0.002 
671 3 0.00373087 0.10409 0.011063 0 0 0 0.127035 -0.0665716 0.43438 0 -0.000164368 0 0 0 0 0 0 0 0 0 0 0 0 0 0 0 0 0 32 0.002 
680 6 0.00505752 0.107901 0.0118932 0 0 0 0.135053 0.0626744 0.384406 0 -0.000164368 0 0 0 0 0 0 0 0 0 0 0 0 0 0 0 0 0 28 0.002 
150 7 0.00903485 0.107819 0.0112981 0 0 0 0.135938 -0.034513 0.344064 0 -0.000164368 0 0 0 0 0 0 0 0 0 0 0 0 0 0 0 0 0 14 0.002 
352 4 0.013515 0.107885 0.0114634 0 0 0 -0.212766 -0.0637783 0.55734 0 -0.000164368 0 0 0 0 0 0 0 0 0 0 0 0 0 0 0 0 0 15 0.002 
868 5 0.0149964 0.0953886 0.0129547 0 0 0 -0.397089 -0.242098 0.439531 0 -0.000164368 0 0 0 0 0 0 0 0 0 0 0 0 0 0 0 0 0 15 0.002 
531 1 0.00777496 0.0976399 0.0124957 0 0 0 0.416555 -0.232751 0.225132 0 -0.000164368 0 0 0 0 0 0 0 0 0 0 0 0 0 0 0 0 0 42 0.002 
990 2 0.0151919 0.0995417 0.0139939 0 0 0 0.124925 -0.197142 0.170317 0.00427245 0.000830371 -0.000507959 0 1 0 0 0 0 0 0 0 0 0 0 0 0 0 0 6 0.002 
1111 4 0.00311545 0.101266 0.0140007 0 0 0 0.0527538 -0.145547 0.528478 0 -0.000164368 0 0 0 0 0 0 0 0 0 0 0 0 0 0 0 0 0 0 0.002 
886 5 0.0136087 0.103063 0.0127194 0 0 0 0.564137 -0.0509335 0.169479 -0.0289552 -0.0265609 -0.00457722 0 0 0 0 1 0 0 0 0 0 0 0 0 0 0 0 14 0.002 
729 9 0.00661906 0.103905 0.0139738 0 0 0 0.156735 0.173107 0.219301 -0.0014502 0.00985014 -0.0062178 0 0 0 0 0 0 0 0 1 0 0 0 0 0 0 0 11 0.002 
399 3 0.0164265 0.105795 0.0132881 0 0 0 0.101775 0.237421 0.614897 0.0302343 0.0249621 -0.0268824 0 0 1 0 1 0 0 0 0 0 0 0 0 0 0 0 26 0.002 
904 3 0.00787355 0.0782869 0.0154551 0 0 0 -0.142917 0.124068 -0.419505 0 -0.000164368 0 0 0 0 0 0 0 0 0 0 0 0 0 0 0 0 0 8 0.002 
760 3 0.00318361 0.0876033 0.0152461 0 0 0 -0.0857851 -0.0373596 -0.0236108 0 -0.000164368 0 0 0 0 0 0 0 0 0 0 0 0 0 0 0 0 0 19 0.002 
718 11 0.00349953 0.0926715 0.0155925 0 0 0 -0.0698644 0.0513722 0.0785517 0 -0.000164368 0 0 0 0 0 0 0 0 0 0 0 0 0 0 0 0 0 20 0.002 
1098 3 0.00769624 0.09169 0.0154547 0 0 0 -0.432179 0.18128 0.413408 0 -0.000164368 0 0 0 0 0 0 0 0 0 0 0 0 0 0 0 0 0 4 0.002 
557 5 0.0142262 0.0918439 0.0146953 0 0 0 -0.0760566 -0.0441945 0.34795 0 -0.000164368 0 0 0 0 0 0 0 0 0 0 0 0 0 0 0 0 0 26 0.002 
979 4 0.00380211 0.0973545 0.0149372 0 0 0 -0.00414663 -0.231805 0.0571305 0 -0.000164368 0 0 0 0 0 0 0 0 0 0 0 0 0 0 0 0 0 8 0.002 
1003 7 0.010502 0.0967085 0.0154927 0 0 0 -0.0654129 0.290806 0.227124 0.00458434 -0.0026703 -0.0105133 0 0 0 0 0 0 1 0 0 0 0 0 0 0 0 0 4 0.002 
892 5 0.0178895 0.0972096 0.0158254 0 0 0 -0.0521077 0.0972338 0.220459 0 -0.000164368 0 0 0 0 0 0 0 0 0 0 0 0 0 0 0 0 0 7 0.002 
1031 3 0.00708893 0.100333 0.0156521 0 0 0 -0.0559708 -0.101161 0.160923 0.0014502 -0.0101789 0.0062178 0 0 0 0 0 0 0 0 1 0 0 0 0 0 0 0 3 0.002 
576 2 0.0143484 0.102737 0.0166406 0 0 0 0.213392 -0.0942692 0.31142 0 -0.000164368 0 0 0 0 0 0 0 0 0 0 0 0 0 0 0 0 0 16 0.002 
1086 9 0.0096543 0.103533 0.0165669 0 0 0 0.274556 -0.115076 0.291634 0 -0.000164368 0 0 0 0 0 0 0 0 0 0 0 0 0 0 0 0 0 0 0.002 
508 9 0.00833252 0.1076 0.0154694 0 0 0 0.00957222 -0.0943921 0.202358 0 -0.000164368 0 0 0 0 0 0 0 0 0 0 0 0 0 0 0 0 0 21 0.002 
734 9 0.0133728 0.107215 0.0165187 0 0 0 0.143642 0.0623957 0.345273 0 -0.000164368 0 0 0 0 0 0 0 0 0 0 0 0 0 0 0 0 0 9 0.002 
455 1 0.00316341 0.107807 0.0155273 0 0 0 0.0565369 -0.0479072 0.273982 0 -0.000164368 0 0 0 0 0 0 0 0 0 0 0 0 0 0 0 0 0 25 0.002 
720 4 0.0048414 0.0804953 0.0176145 0 0 0 -0.403136 -0.000617458 0.123886 0 -0.000164368 0 0 0 0 0 0 0 0 0 0 0 0 0 0 0 0 0 13 0.002 
922 5 0.00447339 0.0845272 0.0176552 0 0 0 0.0506 -0.0461229 -0.0181036 0 -0.000164368 0 0 0 0 0 0 0 0 0 0 0 0 0 0 0 0 0 4 0.002 
758 4 0.00711646 0.0876883 0.0170459 0 0 0 -0.0122856 -0.267265 0.212704 0 -0.000164368 0 0 0 0 0 0 0 0 0 0 0 0 0 0 0 0 0 20 0.002 
517 2 0.0162657 0.0910049 0.0182471 0 0 0 0.150027 -0.35339 0.213249 0 -0.000164368 0 0 0 0 0 0 0 0 0 0 0 0 0 0 0 0 0 12 0.002 
629 8 0.0108235 0.0931953 0.0176247 0 0 0 -0.0358221 -0.0997452 0.253784 0 -0.000164368 0 0 0 0 0 0 0 0 0 0 0 0 0 0 0 0 0 33 0.002 
400 7 0.0138916 0.0955324 0.0187761 0 0 0 0.059313 -0.14984 0.144642 0.000153858 -0.000289689 -0.000241214 0 0 0 0 0 0 1 0 0 0 0 0 0 0 0 0 33 0.002 
639 9 0.00395952 0.096459 0.018878 0 0 0 -0.280904 -0.0615701 0.12149 0.00274918 0.000519645 -0.00313369 0 0 0 0 0 0 0 0 1 0 0 0 0 0 0 0 26 0.002 
726 1 0.00796709 0.0961167 0.018504 0 0 0 -0.153623 -0.00166335 0.217695 -0.0109494 -0.00559087 -0.0112898 1 0 0 0 0 0 1 0 0 0 0 0 0 0 0 0 16 0.002 
907 8 0.00312963 0.100428 0.0184881 0 0 0 -0.0653992 -0.0289513 0.170743 0 -0.000164368 0 0 0 0 0 0 0 0 0 0 0 0 0 0 0 0 0 10 0.002 
1037 5 0.011474 0.100542 0.0185339 0 0 0 0.230229 -0.235299 0.0940623 0 -0.000164368 0 0 0 0 0 0 0 0 0 0 0 0 0 0 0 0 0 7 0.002 
56 7 0.00584436 0.103536 0.0180223 0 0 0 0.115837 0.0629714 0.131341 0 -0.000164368 0 0 0 0 0 0 0 0 0 0 0 0 0 0 0 0 0 31 0.002 
165 4 0.0176817 0.105888 0.0170676 0 0 0 -0.00378512 0.109411 0.265441 -0.00236662 0.000153945 0.0268832 0 0 1 1 0 0 0 0 0 0 0 0 0 0 0 0 22 0.002 
403 8 0.0163568 0.0833575 0.0194777 0 0 0 0.0531082 -0.166889 -0.0731392 0 -0.000164368 0 0 0 0 0 0 0 0 0 0 0 0 0 0 0 0 0 27 0.002 
1092 4 0.0105075 0.0853623 0.0204393 0 0 0 0.0748096 -0.220915 0.102681 0 -0.000164368 0 0 0 0 0 0 0 0 0 0 0 0 0 0 0 0 0 0 0.002 
916 8 0.00877372 0.0892274 0.0204465 0 0 0 -0.0443044 -0.163436 0.100606 0 -0.000164368 0 0 0 0 0 0 0 0 0 0 0 0 0 0 0 0 0 16 0.002 
881 1 0.00589447 0.0924764 0.0195272 0 0 0 0.0218331 -0.0240152 0.086205 0 -0.000164368 0 0 0 0 0 0 0 0 0 0 0 0 0 0 0 0 0 16 0.002 
650 3 0.00697844 0.100108 0.0197622 0 0 0 0.0276834 -0.0368563 0.123932 0.00395963 -0.00174431 -0.00481128 0 0 2 0 0 0 0 0 0 0 0 0 0 0 0 0 18 0.002 
300 1 0.0151972 0.0993552 0.0197673 0 0 0 0.0841249 -0.101976 0.196067 0 -0.000164368 0 0 0 0 0 0 0 0 0 0 0 0 0 0 0 0 0 20 0.002 
811 5 0.0031971 0.104702 0.0211689 0 0 0 0.0261296 0.0643345 0.217987 -0.000797586 0.000814873 -0.00162733 0 0 0 0 1 0 0 0 0 0 0 0 0 0 0 0 20 0.002 
377 4 0.0161151 0.103505 0.0202707 0 0 0 0.0774533 0.100097 0.300526 -0.00120079 -0.000562583 -0.000748133 0 0 0 1 0 0 0 0 0 0 0 0 0 0 0 0 38 0.002 
499 2 0.00471223 0.107933 0.0192668 0 0 0 0.156107 0.0812027 0.212723 0 -0.000164368 0 0 0 0 0 0 0 0 0 0 0 0 0 0 0 0 0 24 0.002 
775 2 0.0167436 0.107881 0.0203975 0 0 0 -0.0422672 0.0415465 0.28366 0.00225429 -0.0012609 0.000664394 0 1 0 1 0 0 0 0 0 0 0 0 0 0 0 0 13 0.002 
700 2 0.015892 0.0796384 0.0223038 0 0 0 0.118979 -0.288657 -0.118803 0 -0.000164368 0 0 0 0 0 0 0 0 0 0 0 0 0 0 0 0 0 15 0.002 
762 6 0.00556921 0.082609 0.0216857 0 0 0 0.0509402 -0.171343 -0.0549685 -0.00019409 0.00185637 -0.0030373 0 0 0 0 0 1 0 0 0 0 0 0 0 0 0 0 30 0.002 
457 6 0.0166651 0.0840971 0.0234039 0 0 0 -0.0580101 -0.199196 -0.0348079 0 -0.000164368 0 0 0 0 0 0 0 0 0 0 0 0 0 0 0 0 0 25 0.002 
522 2 0.00311983 0.0860976 0.0219416 0 0 0 0.0196776 -0.117116 0.17686 0 -0.000164368 0 0 0 0 0 0 0 0 0 0 0 0 0 0 0 0 0 33 0.002 
809 1 0.00654304 0.0878638 0.0234743 0 0 0 -0.00891361 -0.27807 0.210688 0.00327283 0.0084461 -0.011526 1 0 0 0 0 0 0 0 0 0 0 0 0 0 0 0 12 0.002 
534 13 0.0122774 0.0883725 0.0224216 0 0 0 0.0724573 -0.175814 0.0319536 0 -0.000164368 0 0 0 0 0 0 0 0 0 0 0 0 0 0 0 0 0 26 0.002 
859 6 0.0184242 0.0877751 0.0221695 0 0 0 -0.0161139 -0.276161 -0.0291687 0 -0.000164368 0 0 0 0 0 0 0 0 0 0 0 0 0 0 0 0 0 20 0.002 
306 3 0.00353089 0.0902751 0.0223213 0 0 0 0.0554721 -0.230805 -0.0753267 0 -0.000164368 0 0 0 0 0 0 0 0 0 0 0 0 0 0 0 0 0 33 0.002 
719 3 0.0126403 0.0924225 0.0215124 0 0 0 0.120631 -0.151191 0.123014 0 -0.000164368 0 0 0 0 0 0 0 0 0 0 0 0 0 0 0 0 0 15 0.002 
1093 3 0.0166331 0.0929561 0.0217899 0 0 0 0.000645429 -0.119318 0.111491 -0.00160068 0.000174682 -0.000585919 0 0 2 0 0 0 0 0 0 0 0 0 0 0 0 0 7 0.002 
199 4 0.00298826 0.0957292 0.0226851 0 0 0 0.0487087 -0.0964478 0.119659 0.0122542 0.00204741 -0.00602737 0 0 0 1 0 0 0 0 1 0 0 0 0 0 0 0 33 0.002 
73 3 0.00869805 0.0942611 0.0219725 0 0 0 0.00819719 -0.193833 0.26006 -0.00238664 0.00355704 -0.00211692 0 0 1 0 0 0 0 0 0 0 0 0 0 0 0 0 32 0.002 
679 5 0.00997648 0.0980029 0.0213668 0 0 0 -0.037653 -0.143893 0.25071 -0.00239565 0.000978333 -0.000773366 1 0 1 0 2 0 0 0 0 0 0 0 0 0 0 0 29 0.002 
179 1 0.0136061 0.0968493 0.0225393 0 0 0 0.0737672 -0.0850765 0.142206 -0.000605746 0.000844067 -0.0026354 1 0 0 0 1 0 1 0 0 0 0 0 0 0 0 0 33 0.002 
827 2 0.00509074 0.100285 0.023272 0 0 0 0.0746758 -0.046379 0.136366 0.00242492 0.000602581 0.00106637 0 1 1 0 0 0 0 0 0 0 0 0 0 0 0 0 12 0.002 
1103 1 0.0166873 0.100594 0.0234057 0 0 0 0.167759 -0.0342978 0.109149 0 -0.000164368 0 0 0 0 0 0 0 0 0 0 0 0 0 0 0 0 0 1 0.002 
278 11 0.00922953 0.103009 0.0214026 0 0 0 0.109082 0.0487599 0.0101964 0 -0.000164368 0 0 0 0 0 0 0 0 0 0 0 0 0 0 0 0 0 27 0.002 
797 6 0.0128722 0.101528 0.022378 0 0 0 0.125559 0.0924885 0.218177 0 -0.000164368 0 0 0 0 0 0 0 0 0 0 0 0 0 0 0 0 0 20 0.002 
331 7 0.00777291 0.103418 0.0101578 0 0 0 -0.0246589 -0.135683 0.348071 0 -0.000164368 0 0 0 0 0 0 0 0 0 0 0 0 0 0 0 0 0 29 0.002 
268 5 0.0121771 0.105754 0.0218087 0 0 0 0.151296 -0.0937219 0.096598 0 -0.000164368 0 0 0 0 0 0 0 0 0 0 0 0 0 0 0 0 0 41 0.002 
548 4 0.00410752 0.10791 0.0233901 0 0 0 0.00437767 -0.0379528 0.120466 0 -0.000164368 0 0 0 0 0 0 0 0 0 0 0 0 0 0 0 0 0 31 0.002 
1039 3 0.00325577 0.0772001 0.0253399 0 0 0 0.0164353 -0.248193 -0.0790009 0 -0.000164368 0 0 0 0 0 0 0 0 0 0 0 0 0 0 0 0 0 4 0.002 
521 6 0.00744853 0.0760461 0.0255238 0 0 0 0.0301863 -0.106808 -0.00918765 0 -0.000164368 0 0 0 0 0 0 0 0 0 0 0 0 0 0 0 0 0 16 0.002 
948 3 0.0169265 0.0759318 0.0240275 0 0 0 0.257064 -0.0717838 -0.0933803 0 -0.000164368 0 0 0 0 0 0 0 0 0 0 0 0 0 0 0 0 0 11 0.002 
631 1 0.00653872 0.0798405 0.0243917 0 0 0 0.0160398 -0.170045 0.00833643 0.00019409 -0.00218511 0.0030373 0 0 0 0 0 1 0 0 0 0 0 0 0 0 0 0 31 0.002 
1051 10 0.00305172 0.0825319 0.0255147 0 0 0 -0.0354231 -0.151903 -0.0131193 0 -0.000164368 0 0 0 0 0 0 0 0 0 0 0 0 0 0 0 0 0 2 0.002 
1063 3 0.00883979 0.0841073 0.023899 0 0 0 0.0866929 -0.236341 0.135783 0 -0.000164368 0 0 0 0 0 0 0 0 0 0 0 0 0 0 0 0 0 5 0.002 
473 3 0.0124162 0.0821278 0.0247393 0 0 0 0.156203 -0.139701 0.0533402 0 -0.000164368 0 0 0 0 0 0 0 0 0 0 0 0 0 0 0 0 0 21 0.002 
310 2 0.0148372 0.088321 0.0255887 0 0 0 0.126988 -0.155571 0.0627503 0 -0.000164368 0 0 0 0 0 0 0 0 0 0 0 0 0 0 0 0 0 29 0.002 
996 2 0.00988633 0.0911191 0.0241266 0 0 0 0.0861452 -0.249092 0.151754 0.00238664 -0.00388578 0.00211692 0 0 1 0 0 0 0 0 0 0 0 0 0 0 0 0 8 0.002 
419 10 0.0132984 0.0935136 0.0254455 0 0 0 0.098154 -0.0935799 0.276412 0 -0.000164368 0 0 0 0 0 0 0 0 0 0 0 0 0 0 0 0 0 37 0.002 
303 3 0.0169742 0.0917111 0.0256162 0 0 0 0.119732 -0.138016 0.0782045 0 -0.000164368 0 0 0 0 0 0 0 0 0 0 0 0 0 0 0 0 0 25 0.002 
721 5 0.0069596 0.0950813 0.0254836 0 0 0 -0.0251706 -0.0974374 0.411514 0 -0.000164368 0 0 0 0 0 0 0 0 0 0 0 0 0 0 0 0 0 21 0.002 
784 7 0.0159696 0.096724 0.0257454 0 0 0 0.142822 -0.12057 0.0846982 0.00423686 -0.000586671 0.00277137 1 0 0 0 0 0 1 0 0 0 0 0 0 0 0 0 17 0.002 
1116 4 0.00855425 0.0988863 0.0249794 0 0 0 0.0973012 -0.0720595 0.216955 0.00515548 0.00763438 0.0136764 0 0 0 1 1 0 0 0 0 0 0 0 0 0 0 0 3 0.002 
463 9 0.00945019 0.102823 0.0254222 0 0 0 0.0878195 -0.0930675 0.0409871 0 -0.000164368 0 0 0 0 0 0 0 0 0 0 0 0 0 0 0 0 0 23 0.002 