ITEM: TIMESTEP
15500000
ITEM: NUMBER OF ATOMS
1886
ITEM: BOX BOUNDS ff ff ff
-0.01 0.45
-0.15 0.15
-0.08 0.1
ITEM: ATOMS id type x y z ix iy iz vx vy vz fx fy fz c_cc_1 c_cc_2 c_cc_3 c_cc_4 c_cc_5 c_cc_6 c_cc_7 c_cc_8 c_cc_9 c_cc_10 c_cc_11 c_cc_12 c_cc_13 c_cc_14 c_cc_15 c_cc_16 f_fppacc radius 
1762 6 0.00924988 -0.0417966 -0.0374987 0 0 0 0.616687 -1.38694 3.42875 0 -0.000164368 0 0 0 0 0 0 0 0 0 0 0 0 0 0 0 0 0 1 0.002 
1574 3 0.0146066 -0.0558762 -0.0151881 0 0 0 1.04134 -3.12142 9.26973 0 -0.000164368 0 0 0 0 0 0 0 0 0 0 0 0 0 0 0 0 0 44 0.002 
1926 8 0.0182358 -0.0570258 -0.00844957 0 0 0 2.68162 -1.41163 10.566 0 -0.000164368 0 0 0 0 0 0 0 0 0 0 0 0 0 0 0 0 0 0 0.002 
1889 4 0.0117542 -0.00191285 -0.0577036 0 0 0 1.10886 -3.46047 0.680811 0 -0.000164368 0 0 0 0 0 0 0 0 0 0 0 0 0 0 0 0 0 0 0.002 
1875 1 0.0069468 -0.00940141 -0.0346961 0 0 0 0.663965 0.798442 2.72511 0 -0.000164368 0 0 0 0 0 0 0 0 0 0 0 0 0 0 0 0 0 1 0.002 
1413 1 0.00296286 -0.0106569 0.0549264 0 0 0 -0.110387 3.6307 -0.630968 0.127369 -0.0636769 0.0046798 0 0 0 0 0 0 0 0 0 0 0 0 0 0 0 0 48 0.002 
866 4 0.00299204 0.0123496 -0.0545436 0 0 0 3.66908 -2.8684 -5.78095 -0.340074 0.0149962 0.0062345 0 0 0 0 0 0 0 0 0 0 0 0 0 0 0 0 83 0.002 
1939 7 0.00644673 0.0109034 -0.0508429 0 0 0 14.2873 -28.8424 4.04547 0 -0.000164368 0 0 0 0 0 0 0 0 0 0 0 0 0 0 0 0 0 0 0.002 
1714 4 0.0060136 0.0340126 -0.0244923 0 0 0 0.181435 -1.36373 0.486379 0 -0.000164368 0 0 0 0 0 0 0 0 0 0 0 0 0 0 0 0 0 23 0.002 
1710 5 0.0174038 0.0303645 -0.0245625 0 0 0 0.516978 -2.25127 -0.174971 0 -0.000164368 0 0 0 0 0 0 0 0 0 0 0 0 0 0 0 0 0 2 0.002 
1405 6 0.0109437 0.0335177 -0.0169653 0 0 0 0.322744 -1.15501 -1.06749 0 -0.000164368 0 0 0 0 0 0 0 0 0 0 0 0 0 0 0 0 0 69 0.002 
1927 8 0.00994865 0.0119289 0.0421698 0 0 0 0.708273 5.80311 3.00204 0 -0.000164368 0 0 0 0 0 0 0 0 0 0 0 0 0 0 0 0 0 0 0.002 
41 1 0.0150883 0.0528536 -0.0355006 0 0 0 -3.11859e-16 1.46884e-15 3.36622e-12 2.77556e-17 0 0 1 0 0 0 0 0 0 0 0 0 0 0 0 0 0 0 97 0.002 
480 3 0.0160597 0.0564793 -0.0354994 0 0 0 3.1789e-16 -1.32941e-15 3.36661e-12 -1.38778e-17 0 0 1 0 0 0 0 0 0 0 0 0 0 0 0 0 0 0 140 0.002 
1707 1 0.0127417 0.0625883 -0.0355 0 0 0 2.19729e-50 -1.21758e-19 3.92794e-12 5.9797e-50 0 0 0 0 0 0 0 0 0 0 0 0 0 0 0 0 0 0 1 0.002 
392 1 0.0175142 0.0609578 -0.0321582 0 0 0 -1.40155 1.11143 1.33786 0 -0.000164368 0 0 0 0 0 0 0 0 0 0 0 0 0 0 0 0 0 131 0.002 
1257 5 0.00531924 0.0652478 -0.0324889 0 0 0 0.519685 -1.83885 0.385105 0 -0.000164368 0 0 0 0 0 0 0 0 0 0 0 0 0 0 0 0 0 8 0.002 
933 1 0.0134089 0.0688644 -0.0328544 0 0 0 1.51496 0.526671 0.0419866 0 -0.000164368 0 0 0 0 0 0 0 0 0 0 0 0 0 0 0 0 0 83 0.002 
869 7 0.00503687 0.0625049 0.00421384 0 0 0 -0.439624 -1.72236 -1.6425 0 -0.000164368 0 0 0 0 0 0 0 0 0 0 0 0 0 0 0 0 0 114 0.002 
286 14 0.00342682 0.0700388 -0.0301588 0 0 0 0.370824 -2.14457 0.0950527 0 -0.000164368 0 0 0 0 0 0 0 0 0 0 0 0 0 0 0 0 0 130 0.002 
1138 3 0.010318 0.0718674 -0.0300605 0 0 0 -0.0330278 0.590948 0.482968 0 -0.000164368 0 0 0 0 0 0 0 0 0 0 0 0 0 0 0 0 0 57 0.002 
1391 4 0.00679341 0.0682628 -0.0228808 0 0 0 0.400973 -0.955584 1.13654 0 -0.000164368 0 0 0 0 0 0 0 0 0 0 0 0 0 0 0 0 0 7 0.002 
1907 2 0.00327439 0.0463007 -0.0181133 0 0 0 0.19579 -1.18012 0.15759 0 -0.000164368 0 0 0 0 0 0 0 0 0 0 0 0 0 0 0 0 0 1 0.002 
1638 2 0.0170253 0.0570442 -0.0110272 0 0 0 0.161681 1.07406 -0.946508 0 -0.000164368 0 0 0 0 0 0 0 0 0 0 0 0 0 0 0 0 0 42 0.002 
1388 1 0.00328735 0.0652695 -0.0102075 0 0 0 0.419757 8.51003 -5.14301 0 -0.000164368 0 0 0 0 0 0 0 0 0 0 0 0 0 0 0 0 0 80 0.002 
1721 3 0.00536386 0.0439974 -0.00393438 0 0 0 0.234783 0.628554 -3.89774 0 -0.000164368 0 0 0 0 0 0 0 0 0 0 0 0 0 0 0 0 0 29 0.002 
861 8 0.00409309 0.063642 0.0138612 0 0 0 0.733193 -1.34155 -1.07065 0 -0.000164368 0 0 0 0 0 0 0 0 0 0 0 0 0 0 0 0 0 136 0.002 
768 6 0.0126971 0.0708595 0.0163552 0 0 0 -0.96651 -0.94685 -0.0874657 0 -0.000164368 0 0 0 0 0 0 0 0 0 0 0 0 0 0 0 0 0 79 0.002 
1274 6 0.0157205 0.0594005 0.0187071 0 0 0 -0.0123278 -0.510712 -0.326168 0 -0.000164368 0 0 0 0 0 0 0 0 0 0 0 0 0 0 0 0 0 69 0.002 
121 2 0.00865795 0.067924 0.0169563 0 0 0 -0.0646531 0.240713 -3.11952 0 -0.000164368 0 0 0 0 0 0 0 0 0 0 0 0 0 0 0 0 0 106 0.002 
491 2 0.00895352 0.0721104 0.0175045 0 0 0 0.102651 0.320627 -1.54432 0 -0.000164368 0 0 0 0 0 0 0 0 0 0 0 0 0 0 0 0 0 121 0.002 
653 9 0.00339269 0.0551105 0.0193597 0 0 0 0.394396 -1.56482 0.0378319 0 -0.000164368 0 0 0 0 0 0 0 0 0 0 0 0 0 0 0 0 0 137 0.002 
1264 1 0.0120593 0.0639867 0.0192322 0 0 0 -0.715262 0.933905 -2.55833 0 -0.000164368 0 0 0 0 0 0 0 0 0 0 0 0 0 0 0 0 0 77 0.002 
1124 4 0.00366095 0.0683084 0.0193936 0 0 0 -0.975628 0.498974 -1.61318 0.029582 -0.0172593 0.0466947 0 0 0 1 0 0 0 0 0 0 0 0 0 0 0 0 83 0.002 
1790 9 0.00978359 0.060827 0.0233856 0 0 0 2.79282 -0.0811395 3.7138 0 -0.000164368 0 0 0 0 0 0 0 0 0 0 0 0 0 0 0 0 0 0 0.002 
1185 6 0.00550462 0.0669951 0.0226454 0 0 0 -1.06337 -0.5491 0.0303873 -0.029582 0.0169306 -0.0466947 0 0 0 1 0 0 0 0 0 0 0 0 0 0 0 0 61 0.002 
955 2 0.0143086 0.0669769 0.0226242 0 0 0 -0.26546 -0.0185301 -0.834175 0 -0.000164368 0 0 0 0 0 0 0 0 0 0 0 0 0 0 0 0 0 85 0.002 
691 8 0.0177864 0.0692358 0.0220581 0 0 0 -0.158874 -0.178094 -0.113067 0.00768593 0.00911188 -0.00327389 0 0 0 0 0 0 0 1 0 0 0 0 0 0 0 0 51 0.002 
582 7 0.00785643 0.0708011 0.0234124 0 0 0 0.0463574 0.336815 -0.108207 -0.0110798 -0.000157574 -0.00476589 0 0 0 0 0 0 1 0 0 0 0 0 0 0 0 0 110 0.002 
1599 1 0.00396288 0.0738879 0.0213701 0 0 0 0.240892 -0.132944 0.0676786 0 -0.000164368 0 0 0 0 0 0 0 0 0 0 0 0 0 0 0 0 0 29 0.002 
1030 1 0.00894517 0.0747439 0.0221221 0 0 0 0.317164 0.392786 -0.171405 0.00843316 -0.0875862 0.0494352 1 0 0 0 0 0 0 0 0 0 0 0 0 0 0 0 96 0.002 
821 3 0.00294054 0.0572176 0.0237325 0 0 0 -1.69399 11.6883 -5.37133 0.494875 -0.217994 0.11737 0 0 0 0 0 0 0 0 0 0 0 0 0 0 0 0 111 0.002 
1401 3 0.0175986 0.0649802 0.0253408 0 0 0 -0.174683 -0.357253 0.153135 0 -0.000164368 0 0 0 0 0 0 0 0 0 0 0 0 0 0 0 0 0 48 0.002 
1175 4 0.00307485 0.0724461 0.0251518 0 0 0 -0.0230835 -0.262316 -0.0751103 0 -0.000164368 0 0 0 0 0 0 0 0 0 0 0 0 0 0 0 0 0 79 0.002 
569 3 0.0120182 0.0725133 0.0237253 0 0 0 0.119363 0.0609123 -0.355834 0.0118749 0.0214885 -0.0166921 0 0 0 0 0 0 0 0 0 0 0 0 0 0 0 0 78 0.002 
1018 8 0.0171963 0.0729727 0.0246162 0 0 0 0.0276781 -0.332558 -0.019106 0 -0.000164368 0 0 0 0 0 0 0 0 0 0 0 0 0 0 0 0 0 84 0.002 
529 14 0.00333032 0.0610058 0.0260794 0 0 0 0.309545 -0.018407 0.0686045 0 -0.000164368 0 0 0 0 0 0 0 0 0 0 0 0 0 0 0 0 0 161 0.002 
1522 5 0.017167 0.061209 0.0271411 0 0 0 -0.138205 -0.659807 0.221739 0 -0.000164368 0 0 0 0 0 0 0 0 0 0 0 0 0 0 0 0 0 68 0.002 
350 8 0.00296763 0.0684647 0.0263186 0 0 0 -1.19495 1.0418 -0.92735 0.253474 0.0385216 -0.164156 0 0 0 0 0 0 0 0 0 0 0 0 0 0 0 0 153 0.002 
1201 4 0.00724552 0.0672229 0.0262735 0 0 0 -1.08862 0.709843 -1.82556 0 -0.000164368 0 0 0 0 0 0 0 0 0 0 0 0 0 0 0 0 0 109 0.002 
1459 3 0.0105945 0.069645 0.0260695 0 0 0 0.00293931 0.227294 -0.184951 -0.000795098 -0.021824 0.021458 0 0 0 0 0 0 1 0 0 0 0 0 0 0 0 0 66 0.002 
447 1 0.0151232 0.0697467 0.02606 0 0 0 0.0112166 -0.25055 0.154223 0 -0.000164368 0 0 0 0 0 0 0 0 0 0 0 0 0 0 0 0 0 101 0.002 
1426 5 0.0186385 0.0705467 0.027919 0 0 0 -0.0442838 -0.0360733 -0.0267314 0.00974388 0.0117357 -0.00574118 0 0 0 0 2 0 0 0 0 0 0 0 0 0 0 0 59 0.002 
715 4 0.0172821 0.054745 0.0288753 0 0 0 -0.654496 -1.08637 0.47117 0 -0.000164368 0 0 0 0 0 0 0 0 0 0 0 0 0 0 0 0 0 125 0.002 
1917 4 0.00340514 0.0563149 0.0299044 0 0 0 0.410844 -0.477379 0.23174 0 -0.000164368 0 0 0 0 0 0 0 0 0 0 0 0 0 0 0 0 0 0 0.002 
635 4 0.0123526 0.0671655 0.0290416 0 0 0 0.1796 -0.136231 -0.0683686 -0.0114857 0.00292514 -0.000327242 0 0 0 1 0 0 0 0 0 0 0 0 0 0 0 0 118 0.002 
293 1 0.016226 0.0678945 0.0296449 0 0 0 0.135026 -0.234691 -0.0653289 0.00233963 -0.0139055 0.00567963 1 0 0 1 1 0 0 0 0 0 0 0 0 0 0 0 133 0.002 
565 3 0.00591305 0.0701797 0.0286297 0 0 0 -0.0374675 -0.026045 -0.742546 -0.00581302 0.000864106 0.00126921 0 0 0 0 0 0 0 0 0 0 0 0 0 0 0 0 76 0.002 
229 6 0.0111284 0.0723517 0.0289663 0 0 0 0.0777724 -0.319694 0.130644 0 -0.000164368 0 0 0 0 0 0 0 0 0 0 0 0 0 0 0 0 0 154 0.002 
1424 3 0.00298541 0.0728416 0.0291928 0 0 0 0.0936723 0.234543 0.0605727 0.00124419 -0.00215607 0.00350181 0 0 1 0 0 0 0 0 0 0 0 0 0 0 0 0 73 0.002 
1600 1 0.00673793 0.0740528 0.0296421 0 0 0 0.258675 0.182815 0.0744911 0.0104519 -0.00435863 0.000481033 1 0 1 0 0 0 0 0 0 0 0 0 0 0 0 0 63 0.002 
1694 1 0.0154207 0.0727621 0.0287511 0 0 0 -0.101428 -0.0761701 0.21061 0.00024905 -0.000354713 -0.000249051 0 0 0 0 1 0 0 0 0 0 0 0 0 0 0 0 51 0.002 
1855 3 0.00389477 0.0525717 0.0246151 0 0 0 3.59679 0.269424 -11.2763 0 -0.000164368 0 0 0 0 0 0 0 0 0 0 0 0 0 0 0 0 0 1 0.002 
1640 2 0.00740995 0.0577892 0.031899 0 0 0 -0.29434 -0.529929 0.161881 0 -0.000164368 0 0 0 0 0 0 0 0 0 0 0 0 0 0 0 0 0 46 0.002 
1127 2 0.0153288 0.0570626 0.0320107 0 0 0 -0.293797 0.0746129 -0.204184 0 -0.000164368 0 0 0 0 0 0 0 0 0 0 0 0 0 0 0 0 0 94 0.002 
1152 2 0.0148845 0.0617981 0.0303812 0 0 0 -0.43589 -0.388986 0.241387 0.00186993 -0.0021769 0.004227 0 1 0 0 0 0 0 0 0 0 0 0 0 0 0 0 92 0.002 
167 2 0.00316771 0.064638 0.0325968 0 0 0 -0.00543704 0.02873 0.226314 0 -0.000164368 0 0 0 0 0 0 0 0 0 0 0 0 0 0 0 0 0 91 0.002 
1132 2 0.018669 0.0636156 0.0309119 0 0 0 -0.00348741 -0.113942 -0.157869 0 -0.000164368 0 0 0 0 0 0 0 0 0 0 0 0 0 0 0 0 0 75 0.002 
1683 4 0.00305897 0.0681597 0.0306753 0 0 0 0.128492 0.00712344 0.0279843 5.385e-05 -0.00426548 -0.00604732 0 0 0 1 0 0 0 0 0 0 0 0 0 0 0 0 33 0.002 
1756 2 0.00349879 0.0606659 0.0329466 0 0 0 0.328495 -0.0130512 -0.138024 0 -0.000164368 0 0 0 0 0 0 0 0 0 0 0 0 0 0 0 0 0 38 0.002 
1355 6 0.0120158 0.0593261 0.0328439 0 0 0 -0.10319 -0.19694 -0.255097 0 -0.000164368 0 0 0 0 0 0 0 0 0 0 0 0 0 0 0 0 0 92 0.002 
423 3 0.0175463 0.0603495 0.0329802 0 0 0 -0.0655487 0.029038 0.421581 -0.00186993 0.00184816 -0.004227 0 1 0 0 0 0 0 0 0 0 0 0 0 0 0 0 109 0.002 
1349 14 0.0111957 0.0638382 0.0329985 0 0 0 -0.427769 0.21821 -0.0138283 0 -0.000164368 0 0 0 0 0 0 0 0 0 0 0 0 0 0 0 0 0 82 0.002 
1674 4 0.0070304 0.0657997 0.0323676 0 0 0 0.162448 -0.154021 -0.31798 0 -0.000164368 0 0 0 0 0 0 0 0 0 0 0 0 0 0 0 0 0 24 0.002 
1361 5 0.0105128 0.0677785 0.0325546 0 0 0 0.0895768 0.0767371 -0.161027 0 -0.000164368 0 0 0 0 0 0 0 0 0 0 0 0 0 0 0 0 0 57 0.002 
843 4 0.0143072 0.066581 0.0329988 0 0 0 0.0766709 -0.108537 -0.0126548 0 -0.000164368 0 0 0 0 0 0 0 0 0 0 0 0 0 0 0 0 0 77 0.002 
375 4 0.0182862 0.0671783 0.0329978 0 0 0 0.0839795 -0.0739396 -0.0232828 -0.000148646 -0.00323999 0.00155802 1 0 0 0 0 0 0 0 0 0 0 0 0 0 0 0 106 0.002 
1003 7 0.00300647 0.0713906 0.0330081 0 0 0 0.044437 0.112147 -0.0141867 0.000766362 0.00015545 -0.00402415 0 0 0 1 0 0 0 0 0 0 0 0 0 0 0 0 92 0.002 
477 2 0.00702199 0.0716244 0.0328681 0 0 0 0.18518 -0.0546371 -0.181065 0 -0.000164368 0 0 0 0 0 0 0 0 0 0 0 0 0 0 0 0 0 89 0.002 
711 12 0.0122238 0.0714167 0.0327859 0 0 0 0.04697 0.120169 0.0885489 0 -0.000164368 0 0 0 0 0 0 0 0 0 0 0 0 0 0 0 0 0 103 0.002 
1420 4 0.0161224 0.0705382 0.0329755 0 0 0 0.00803021 -0.155572 -0.0218587 -0.000698234 0.0018531 -0.000920183 0 0 0 0 0 0 0 0 0 0 0 0 0 0 0 0 26 0.002 
118 2 0.00976633 0.0745755 0.0329114 0 0 0 -0.0209493 -0.127339 -0.162753 0 -0.000164368 0 0 0 0 0 0 0 0 0 0 0 0 0 0 0 0 0 117 0.002 
1058 2 0.0164097 0.0745648 0.0330064 0 0 0 0.0329751 -0.173153 -0.00117154 0.000463216 0.000422385 -0.00262386 0 1 0 0 0 0 0 0 0 0 0 0 0 0 0 0 107 0.002 
1038 1 0.0124943 0.0510564 0.0289794 0 0 0 8.59399 20.0333 -25.1916 0 -0.000164368 0 0 0 0 0 0 0 0 0 0 0 0 0 0 0 0 0 66 0.002 
348 6 0.0182959 0.0506078 0.0293736 0 0 0 -9.15849 34.5911 -43.1031 0 -0.000164368 0 0 0 0 0 0 0 0 0 0 0 0 0 0 0 0 0 115 0.002 
452 8 0.0120107 0.0884627 -0.031538 0 0 0 0.571466 -0.376043 0.295816 -0.000309065 -0.000517919 4.60632e-05 0 0 0 0 0 0 0 0 0 0 0 0 0 0 0 0 87 0.002 
1329 3 0.0173817 0.0879514 -0.0323642 0 0 0 -0.273168 -1.57199 0.651739 0 -0.000164368 0 0 0 0 0 0 0 0 0 0 0 0 0 0 0 0 0 58 0.002 
953 3 0.00472178 0.0908791 -0.0329955 0 0 0 0.520587 0.196918 -0.500501 0.0107935 -0.016969 -0.0212398 0 0 1 0 0 0 0 0 0 0 0 0 0 0 0 0 84 0.002 
1553 1 0.00727546 0.0936514 -0.0316256 0 0 0 0.300244 0.648509 -0.174325 0.000773203 -0.000474474 0.000828865 1 0 0 0 0 0 0 0 0 0 0 0 0 0 0 0 31 0.002 
1456 8 0.0130221 0.0922414 -0.032347 0 0 0 1.1474 -0.478479 0.290541 -0.0112138 -0.0144897 0.000241212 0 0 0 0 0 0 0 1 0 0 0 0 0 0 0 0 71 0.002 
389 5 0.00302243 0.0945228 -0.0330061 0 0 0 -0.2947 0.386653 -0.181987 0.00207992 -0.0134614 0.0182769 0 0 0 0 1 0 0 0 0 0 0 0 0 0 0 0 62 0.002 
607 5 0.0157849 0.0950995 -0.032269 0 0 0 0.65997 0.062296 -0.114839 0.000659348 -0.0256474 -0.00139641 0 0 0 0 1 0 0 1 0 0 0 0 0 0 0 0 97 0.002 
92 2 0.0119262 0.0967797 -0.0328416 0 0 0 0.324059 0.0877142 0.080972 0 -0.000164368 0 0 0 0 0 0 0 0 0 0 0 0 0 0 0 0 0 114 0.002 
61 8 0.00803662 0.0985765 -0.0327999 0 0 0 0.123653 -0.115269 -0.00608114 0 -0.000164368 0 0 0 0 0 0 0 0 0 0 0 0 0 0 0 0 0 76 0.002 
787 3 0.0171955 0.0987922 -0.0324808 0 0 0 0.664887 0.172814 0.183628 -0.01475 -0.0137569 0.00325563 0 0 2 0 1 0 0 0 0 0 0 0 0 0 0 0 114 0.002 
1541 2 0.00351173 0.101419 -0.033002 0 0 0 0.0308797 0.0399483 0.0123666 0.00106787 0.000106694 0.0016145 0 3 0 0 0 0 0 0 0 0 0 0 0 0 0 0 36 0.002 
338 6 0.0134163 0.101207 -0.0329867 0 0 0 0.422612 0.368768 -0.0481977 0 -0.000164368 0 0 0 0 0 0 0 0 0 0 0 0 0 0 0 0 0 105 0.002 
1253 2 0.0175973 0.102682 -0.0330138 0 0 0 0.269981 0.328623 0.0840498 -0.0208607 -0.0215847 4.86968e-05 0 2 1 0 0 0 0 0 0 0 0 0 0 0 0 0 70 0.002 
765 1 0.0105106 0.103976 -0.0326002 0 0 0 0.0341241 -0.127578 0.0242159 0 -0.000164368 0 0 0 0 0 0 0 0 0 0 0 0 0 0 0 0 0 109 0.002 
940 2 0.00680184 0.106053 -0.0329739 0 0 0 -0.0701148 0.0306982 -0.0608388 0 -0.000164368 0 0 0 0 0 0 0 0 0 0 0 0 0 0 0 0 0 107 0.002 
1222 3 0.0180034 0.106618 -0.0330124 0 0 0 0.18006 0.648666 0.0103447 -0.00765542 -0.0218304 0.0048307 0 1 2 0 0 0 0 0 0 0 0 0 0 0 0 0 67 0.002 
71 5 0.00344813 0.108 -0.0319208 0 0 0 -0.117197 -0.0149912 0.112655 0 -0.000164368 0 0 0 0 0 0 0 0 0 0 0 0 0 0 0 0 0 28 0.002 
1745 3 0.0101899 0.107992 -0.0321016 0 0 0 -0.0405661 -0.00743234 0.0109371 0 -0.000164368 0 0 0 0 0 0 0 0 0 0 0 0 0 0 0 0 0 27 0.002 
738 5 0.0142681 0.107979 -0.0329837 0 0 0 -0.0699833 0.11015 0.0579111 -0.0142359 0.0148102 0.00117954 0 0 1 0 0 0 0 0 0 0 0 0 0 0 0 0 84 0.002 
1225 1 0.00851671 0.078821 -0.0310781 0 0 0 1.71586 0.542372 0.456529 0.125779 0.0915346 0.117659 0 0 0 0 0 0 0 0 0 0 0 0 0 0 0 0 74 0.002 
699 9 0.0146897 0.0846428 -0.0307723 0 0 0 0.64297 -0.502123 0.369483 0 -0.000164368 0 0 0 0 0 0 0 0 0 0 0 0 0 0 0 0 0 106 0.002 
1935 3 0.00305405 0.0876291 -0.030221 0 0 0 0.370749 -0.579909 1.3557 0 -0.000164368 0 0 0 0 0 0 0 0 0 0 0 0 0 0 0 0 0 0 0.002 
1223 2 0.00981164 0.0956472 -0.0292868 0 0 0 0.56633 0.139357 0.349275 -0.00601769 -0.00956482 -0.0082465 1 2 0 0 0 0 0 0 0 0 0 0 0 0 0 0 41 0.002 
972 3 0.00389953 0.0979195 -0.0311088 0 0 0 0.00778944 0.10427 0.204685 -0.00122577 -0.00125221 -0.00589933 0 1 1 0 1 0 0 0 0 0 0 0 0 0 0 0 102 0.002 
1389 4 0.00684325 0.102521 -0.0310864 0 0 0 0.095382 0.0246877 -0.0121184 -0.00144815 0.00372225 -0.000776085 0 1 0 1 0 0 0 0 0 0 0 0 0 0 0 0 45 0.002 
1218 8 0.00300034 0.104355 -0.0303358 0 0 0 -0.0782498 -0.042237 0.143276 -4.58163e-05 -0.000515434 -0.000818483 0 1 0 0 0 0 0 0 0 0 0 0 0 0 0 0 101 0.002 
638 6 0.0147708 0.104793 -0.0305547 0 0 0 0.33791 -0.0116752 0.256114 -0.0142255 -0.0191445 -0.0127393 0 0 0 0 0 0 0 0 0 0 0 0 0 0 0 0 79 0.002 
592 7 0.0145353 0.0807636 -0.0273534 0 0 0 0.500242 0.444523 1.50594 0 -0.000164368 0 0 0 0 0 0 0 0 0 0 0 0 0 0 0 0 0 110 0.002 
1576 5 0.0036261 0.0915961 -0.029262 0 0 0 0.338789 0.278924 -0.151471 -0.0067201 -0.0491135 -0.0285917 0 0 1 0 1 0 0 0 0 0 0 0 0 0 0 0 28 0.002 
264 10 0.00761441 0.0923493 -0.0272354 0 0 0 0.11702 0.223638 0.0326603 0 -0.000164368 0 0 0 0 0 0 0 0 0 0 0 0 0 0 0 0 0 110 0.002 
661 2 0.0114412 0.0917185 -0.028631 0 0 0 -0.0801989 -0.140991 -0.0257585 0 -0.000164368 0 0 0 0 0 0 0 0 0 0 0 0 0 0 0 0 0 124 0.002 
1105 7 0.00300603 0.0949778 -0.0273399 0 0 0 0.220854 0.199192 0.0311823 0.0249937 0.0147823 0.0214077 0 0 0 0 1 0 1 0 0 0 0 0 0 0 0 0 99 0.002 
550 10 0.0148695 0.0953946 -0.0282953 0 0 0 0.540037 -0.147294 0.0704632 0.00322827 -0.00240934 -0.00328857 0 0 0 0 0 0 0 0 0 1 0 0 0 0 0 0 94 0.002 
3 2 0.00616272 0.0975505 -0.0278506 0 0 0 -0.00238414 -0.0382145 0.168021 0.00575185 0.0044792 0.0112929 0 0 1 0 0 0 0 0 0 0 0 0 0 0 0 0 24 0.002 
1647 6 0.0124113 0.0986569 -0.0290222 0 0 0 0.566046 0.123185 0.163933 0.00745237 0.00710428 0.00382077 0 1 0 0 0 0 0 0 0 0 0 0 0 0 0 0 26 0.002 
427 6 0.0171953 0.0999743 -0.0286788 0 0 0 0.132273 0.151661 0.156086 0.00178206 -0.00278491 0.0171578 0 0 1 0 0 0 0 0 0 0 0 0 0 0 0 0 107 0.002 
845 3 0.00300226 0.101035 -0.0278885 0 0 0 -0.194227 0.436664 -0.226398 -0.00825565 -0.00943255 0.000623749 0 0 2 0 0 0 0 0 0 0 0 0 0 0 0 0 105 0.002 
937 4 0.00852296 0.100912 -0.0277452 0 0 0 0.0496075 -0.0647648 0.0282748 0 -0.000164368 0 0 0 0 0 0 0 0 0 0 0 0 0 0 0 0 0 97 0.002 
894 9 0.0124574 0.102578 -0.0281255 0 0 0 0.206884 0.152586 0.348217 0 -0.000164368 0 0 0 0 0 0 0 0 0 0 0 0 0 0 0 0 0 68 0.002 
1685 2 0.00911058 0.10476 -0.0286689 0 0 0 0.151015 -0.00852296 0.0782932 0.0143534 0.00190019 -0.000101332 0 1 0 1 0 0 0 0 0 0 0 0 0 0 0 0 26 0.002 
1659 1 0.0161876 0.103532 -0.0269739 0 0 0 0.2708 0.21279 0.210733 0 -0.000164368 0 0 0 0 0 0 0 0 0 0 0 0 0 0 0 0 0 18 0.002 
583 1 0.00299903 0.106624 -0.0270374 0 0 0 -0.0254946 0.0533997 0.1593 -0.000573171 0.00767786 -0.00100225 1 0 0 0 0 0 0 0 0 0 0 0 0 0 0 0 112 0.002 
1823 7 0.00661004 0.107965 -0.0288766 0 0 0 0.0322993 -0.00163841 0.150881 0 -0.000164368 0 0 0 0 0 0 0 0 0 0 0 0 0 0 0 0 0 13 0.002 
967 2 0.011188 0.108001 -0.027619 0 0 0 0.0555812 -0.0050705 0.0850066 0.00612673 0.00448394 -0.000705438 0 0 0 0 0 0 0 0 0 0 0 0 0 0 0 0 90 0.002 
1011 6 0.01515 0.107965 -0.0281831 0 0 0 0.00597277 0.050031 -0.00263497 0.00613262 0.0228314 0.0122433 0 0 0 0 0 1 0 0 0 0 0 0 0 0 0 0 97 0.002 
1043 8 0.00912554 0.0760074 -0.0248042 0 0 0 0.775099 0.182795 0.308995 0 -0.000164368 0 0 0 0 0 0 0 0 0 0 0 0 0 0 0 0 0 58 0.002 
468 8 0.00640416 0.0885468 -0.0267178 0 0 0 0.957007 -0.131174 0.0010384 0 -0.000164368 0 0 0 0 0 0 0 0 0 0 0 0 0 0 0 0 0 130 0.002 
996 2 0.0123885 0.0875887 -0.0248732 0 0 0 0.570936 -0.298179 0.388383 0 -0.000164368 0 0 0 0 0 0 0 0 0 0 0 0 0 0 0 0 0 89 0.002 
1895 1 0.00674599 0.0952453 -0.024605 0 0 0 0.140603 0.285735 0.284378 0 -0.000164368 0 0 0 0 0 0 0 0 0 0 0 0 0 0 0 0 0 2 0.002 
1901 5 0.00296794 0.0982073 -0.0250792 0 0 0 0.123777 0.523681 0.0549701 0.0281462 0.00367913 -0.00163681 0 0 1 0 2 0 1 0 0 0 0 0 0 0 0 0 7 0.002 
214 8 0.00985085 0.0975158 -0.025767 0 0 0 0.360229 0.28434 0.4099 0.0035456 0.00743757 -0.0101811 0 1 0 0 0 0 0 1 0 0 0 0 0 0 0 0 77 0.002 
394 6 0.0109225 0.101785 -0.0245142 0 0 0 -0.0606214 -0.128751 0.182985 0.00788432 0.00267354 -0.00466381 0 0 0 0 0 2 0 0 0 0 0 0 0 0 0 0 129 0.002 
1387 4 0.00573325 0.103728 -0.0268372 0 0 0 0.119171 0.186653 0.0337023 -0.0075422 -0.00822968 -0.00134737 1 1 1 0 0 0 0 0 0 0 0 0 0 0 0 0 76 0.002 
811 5 0.0130759 0.105143 -0.0246948 0 0 0 -0.228197 -0.0126213 0.184351 0.00212545 0.00175797 -0.00108528 0 0 0 0 1 1 0 0 0 0 0 0 0 0 0 0 94 0.002 
1272 4 0.0080383 0.0905316 -0.0231306 0 0 0 1.05798 0.123617 0.447066 0 -0.000164368 0 0 0 0 0 0 0 0 0 0 0 0 0 0 0 0 0 50 0.002 
1697 1 0.0117424 0.0923134 -0.0244611 0 0 0 0.420086 0.0632715 -0.148079 0 -0.000164368 0 0 0 0 0 0 0 0 0 0 0 0 0 0 0 0 0 27 0.002 
897 3 0.00318062 0.0946066 -0.0227143 0 0 0 -0.0470407 -0.00957459 -0.0187411 0 -0.000164368 0 0 0 0 0 0 0 0 0 0 0 0 0 0 0 0 0 88 0.002 
1472 8 0.0136027 0.0963664 -0.0246359 0 0 0 0.400584 0.187577 -0.093879 -0.00322827 0.00208061 0.00328857 0 0 0 0 0 0 0 0 0 1 0 0 0 0 0 0 33 0.002 
1263 2 0.00660608 0.0996562 -0.0243697 0 0 0 0.157474 0.287379 0.144648 -0.00981638 0.00219834 -0.0123625 0 1 0 0 1 0 0 0 0 0 0 0 0 0 0 0 78 0.002 
1603 6 0.00298505 0.10111 -0.0223871 0 0 0 -0.128352 0.802332 0.721913 0.0176636 -0.0483901 -0.0369759 0 0 0 0 1 2 0 0 0 0 0 0 0 0 0 0 24 0.002 
505 2 0.016502 0.100979 -0.0238596 0 0 0 0.173138 -0.14201 -0.0261384 0.00241137 -0.000481181 -0.00221055 0 1 0 0 0 0 0 0 0 0 0 0 0 0 0 0 116 0.002 
1262 8 0.00491504 0.104499 -0.0228594 0 0 0 0.502629 0.672491 0.53724 0.010037 -0.0460579 -0.0345213 0 0 0 0 0 1 0 1 0 0 0 0 0 0 0 0 60 0.002 
1912 2 0.00915051 0.107792 -0.0224653 0 0 0 0.206528 -0.00530487 0.197749 0.00664551 0.00145295 0.000309117 0 2 0 0 0 0 0 0 0 0 0 0 0 0 0 0 3 0.002 
1023 1 0.00566642 0.108032 -0.0243975 0 0 0 0.499282 0.198872 -0.195867 0.0144857 0.00401028 0.00727846 0 1 0 0 0 0 0 1 0 0 0 0 0 0 0 0 102 0.002 
696 4 0.0158159 0.108001 -0.0241458 0 0 0 -0.127805 -0.0280574 0.0258458 0.000111767 0.000574226 4.32469e-05 0 0 0 0 1 0 0 0 0 0 0 0 0 0 0 0 95 0.002 
1298 1 0.0036566 0.0867202 -0.0218531 0 0 0 -0.0194488 -0.240203 0.605175 0 -0.000164368 0 0 0 0 0 0 0 0 0 0 0 0 0 0 0 0 0 78 0.002 
819 2 0.0148257 0.0904289 -0.0205286 0 0 0 0.809898 -0.0945293 -0.755032 0 -0.000164368 0 0 0 0 0 0 0 0 0 0 0 0 0 0 0 0 0 94 0.002 
145 6 0.00546525 0.0918549 -0.0202988 0 0 0 0.351295 0.0755037 -0.282037 0 -0.000164368 0 0 0 0 0 0 0 0 0 0 0 0 0 0 0 0 0 114 0.002 
976 5 0.00852285 0.0943847 -0.0211138 0 0 0 0.383595 0.19286 0.148741 0 -0.000164368 0 0 0 0 0 0 0 0 0 0 0 0 0 0 0 0 0 24 0.002 
193 8 0.00521303 0.0977478 -0.0209271 0 0 0 0.102992 -0.035987 -0.245007 0 -0.000164368 0 0 0 0 0 0 0 0 0 0 0 0 0 0 0 0 0 138 0.002 
1050 1 0.0111219 0.0981742 -0.0220325 0 0 0 0.156762 0.0514887 0.00513126 -0.00575349 -0.00532439 0.013778 0 0 0 0 0 0 0 1 0 0 0 0 0 0 0 0 95 0.002 
1881 2 0.0155156 0.0975784 -0.0209751 0 0 0 0.0254727 -0.0551563 -0.18873 0 -0.000164368 0 0 0 0 0 0 0 0 0 0 0 0 0 0 0 0 0 1 0.002 
1305 1 0.00859621 0.101237 -0.0213237 0 0 0 0.219942 -0.0612245 0.342269 0.0158352 0.00515184 0.00635011 2 1 0 0 0 1 0 0 0 0 0 0 0 0 0 0 58 0.002 
1445 5 0.0134044 0.101437 -0.0213962 0 0 0 0.107828 0.031909 0.124832 -0.000456475 0.000797841 0.000687669 0 1 0 0 1 0 0 0 0 0 0 0 0 0 0 0 58 0.002 
985 4 0.0109245 0.104558 -0.0208467 0 0 0 -0.00646698 -0.0455944 0.07899 0 -0.000164368 0 0 0 0 0 0 0 0 0 0 0 0 0 0 0 0 0 76 0.002 
84 8 0.016802 0.10517 -0.0205027 0 0 0 -0.312717 0.0679255 0.199884 0.0056715 0.00642675 -0.0122576 0 0 0 0 0 0 0 1 0 0 0 0 0 0 0 0 123 0.002 
1465 4 0.00331081 0.108006 -0.0211273 0 0 0 0.0957191 0.000544988 -0.112223 0.000499398 0.00186237 -0.00368979 0 0 0 1 0 0 0 0 0 0 0 0 0 0 0 0 55 0.002 
1126 4 0.0129772 0.107988 -0.0213233 0 0 0 0.187114 -0.0461433 0.220967 0.000670748 -0.000243824 0.000604502 0 1 0 0 0 0 0 0 0 0 0 0 0 0 0 0 102 0.002 
1383 2 0.00310259 0.088591 -0.0179625 0 0 0 0.0177726 -0.03201 0.319239 0 -0.000164368 0 0 0 0 0 0 0 0 0 0 0 0 0 0 0 0 0 65 0.002 
1278 9 0.00309853 0.0949055 -0.0185108 0 0 0 0.111517 0.26501 0.026004 0 -0.000164368 0 0 0 0 0 0 0 0 0 0 0 0 0 0 0 0 0 79 0.002 
781 2 0.0126451 0.0949037 -0.0199636 0 0 0 -0.0685511 -0.183686 -0.106954 0 -0.000164368 0 0 0 0 0 0 0 0 0 0 0 0 0 0 0 0 0 108 0.002 
1154 12 0.00309846 0.100816 -0.0184682 0 0 0 0.00839568 0.129438 0.843359 -0.0181069 -0.025388 -0.0136681 0 0 0 0 0 1 0 0 0 0 0 2 0 0 0 0 98 0.002 
1471 6 0.00779223 0.0998648 -0.0176758 0 0 0 0.0554887 -0.167082 0.215581 -0.000846163 -0.00665829 -0.000177246 1 0 0 0 0 2 0 0 0 0 0 0 0 0 0 0 35 0.002 
1363 1 0.0118251 0.0998266 -0.0181043 0 0 0 -0.0591463 -0.0948136 0.0625995 -0.0019549 -0.000809765 0.00152288 0 0 0 0 1 0 0 0 0 0 0 0 0 0 0 0 85 0.002 
1905 6 0.0171664 0.101093 -0.0197654 0 0 0 -0.00857639 -0.0385873 -0.0276851 0 -0.000164368 0 0 0 0 0 0 0 0 0 0 0 0 0 0 0 0 0 0 0.002 
1076 2 0.00299829 0.104774 -0.0188194 0 0 0 -0.00506275 0.172875 0.129038 -0.0010909 0.00615721 0.00108826 0 2 0 1 0 0 0 0 0 0 0 1 0 0 0 0 83 0.002 
268 5 0.00691814 0.104003 -0.0189735 0 0 0 -0.0629963 -0.0591673 0.177527 -0.00012989 -0.000210617 -0.00231537 1 1 0 0 1 0 0 0 0 0 0 0 0 0 0 0 141 0.002 
463 9 0.0123257 0.106523 -0.0176382 0 0 0 0.0715172 -0.00243298 0.128544 0.000298771 -0.000624272 0.000428189 0 0 0 0 0 0 0 0 1 0 0 0 0 0 0 0 116 0.002 
826 5 0.00651981 0.107985 -0.0186284 0 0 0 -0.0527645 -0.0338849 0.115986 0 -0.000164368 0 0 0 0 0 0 0 0 0 0 0 0 0 0 0 0 0 120 0.002 
179 1 0.00552807 0.0859023 -0.0158366 0 0 0 0.271284 -0.102043 -0.251985 0 -0.000164368 0 0 0 0 0 0 0 0 0 0 0 0 0 0 0 0 0 83 0.002 
872 1 0.00560148 0.0912612 -0.0162911 0 0 0 0.203393 0.243381 0.0446102 0 -0.000164368 0 0 0 0 0 0 0 0 0 0 0 0 0 0 0 0 0 77 0.002 
1606 5 0.00995949 0.0947296 -0.0169844 0 0 0 0.063984 0.145852 -0.177077 0 -0.000164368 0 0 0 0 0 0 0 0 0 0 0 0 0 0 0 0 0 42 0.002 
1526 4 0.00641431 0.0964242 -0.0161897 0 0 0 0.0268968 -0.209154 0.209823 -0.000379513 -0.00176096 -9.73703e-05 0 0 0 0 0 1 0 0 0 0 0 0 0 0 0 0 48 0.002 
1467 10 0.0185973 0.098202 -0.0161293 0 0 0 0.34592 -0.106046 -0.0715152 0 -0.000164368 0 0 0 0 0 0 0 0 0 0 0 0 0 0 0 0 0 42 0.002 
206 6 0.0101769 0.103244 -0.0167961 0 0 0 0.0559356 -0.101403 0.0566902 0.00139053 -0.000111017 0.00218358 0 0 0 0 1 0 0 0 0 0 0 0 0 0 0 0 125 0.002 
364 3 0.0148714 0.103442 -0.0174792 0 0 0 -0.106574 -0.204765 0.140545 -0.00763096 -0.00595978 0.0107227 0 0 1 0 0 0 0 1 1 0 0 0 0 0 0 0 126 0.002 
1506 6 0.0185636 0.104502 -0.0163918 0 0 0 -0.0954707 -0.167243 0.232407 0.00112264 -0.00112713 0.00171325 0 0 1 0 0 1 0 0 0 0 0 0 0 0 0 0 63 0.002 
698 6 0.00636315 0.105643 -0.0153588 0 0 0 0.00385648 0.0398403 0.207531 0.00189817 0.00150196 0.000944275 0 0 0 0 0 1 0 0 0 0 0 0 0 0 0 0 107 0.002 
462 8 0.0164789 0.107856 -0.017073 0 0 0 0.11098 -0.0253525 0.112352 0.00310266 -0.000780962 -0.00365934 0 0 0 0 0 0 0 1 0 0 0 0 0 0 0 0 115 0.002 
887 1 0.0130666 0.0869132 -0.0156504 0 0 0 -0.674807 1.40793 -1.22354 0.0934429 -0.0527015 -0.167044 1 0 0 0 0 0 0 0 0 0 0 0 0 0 0 0 96 0.002 
586 9 0.00305968 0.0900837 -0.0134252 0 0 0 -0.461176 0.409078 -0.395714 0 -0.000164368 0 0 0 0 0 0 0 0 0 0 0 0 0 0 0 0 0 129 0.002 
911 6 0.00778641 0.0934193 -0.0137072 0 0 0 0.555921 -0.0277774 0.271063 0 -0.000164368 0 0 0 0 0 0 0 0 0 0 0 0 0 0 0 0 0 115 0.002 
194 2 0.00310086 0.0949156 -0.0144447 0 0 0 -0.0270702 -0.250281 0.120984 -0.000303272 -0.0166597 0.00906053 0 1 0 0 0 0 0 0 0 0 0 0 0 0 0 0 112 0.002 
70 6 0.0149605 0.0945515 -0.0152527 0 0 0 0.25292 0.232726 -0.308483 0 -0.000164368 0 0 0 0 0 0 0 0 0 0 0 0 0 0 0 0 0 130 0.002 
867 3 0.0120656 0.0975435 -0.0147505 0 0 0 0.0798564 0.0246635 -0.072915 0 -0.000164368 0 0 0 0 0 0 0 0 0 0 0 0 0 0 0 0 0 61 0.002 
1754 5 0.00328031 0.0988442 -0.0150612 0 0 0 0.0965073 -0.281444 0.320292 0.00882785 0.00139259 0.0507905 0 1 0 0 1 0 0 0 0 0 0 1 0 0 0 0 31 0.002 
944 4 0.00722672 0.101792 -0.0142484 0 0 0 0.0880066 -0.00379325 0.213186 -0.00835953 0.0111087 0.00845528 0 0 0 0 0 1 0 0 0 0 0 0 0 0 0 0 50 0.002 
1914 2 0.016918 0.101883 -0.013824 0 0 0 0.107851 -0.14819 0.0498531 0.0139991 0.00653695 -0.00630962 0 0 0 0 0 0 0 0 0 0 0 0 0 0 0 0 1 0.002 
789 5 0.00299732 0.103512 -0.01504 0 0 0 -0.065105 0.217544 0.161906 0.0042592 0.00300268 -0.00165212 0 1 0 0 1 1 0 0 0 0 0 0 0 0 0 0 115 0.002 
406 5 0.0135188 0.104013 -0.013644 0 0 0 0.0467873 0.0497926 0.188929 0 -0.000164368 0 0 0 0 0 0 0 0 0 0 0 0 0 0 0 0 0 85 0.002 
875 2 0.00311231 0.107976 -0.0132847 0 0 0 0.0363794 -0.0386007 0.0183686 0 -0.000164368 0 0 0 0 0 0 0 0 0 0 0 0 0 0 0 0 0 39 0.002 
1690 9 0.0095952 0.107999 -0.0151093 0 0 0 0.0636311 -0.0258212 0.210129 0 -0.000164368 0 0 0 0 0 0 0 0 0 0 0 0 0 0 0 0 0 24 0.002 
1147 9 0.0137207 0.107998 -0.0141919 0 0 0 0.121315 0.0411568 0.116329 0.000532007 0.000750382 -0.00249814 0 0 0 0 0 0 0 1 1 0 0 0 0 0 0 0 99 0.002 
103 5 0.00983486 0.0804593 -0.00696707 0 0 0 -4.56674 -1.065 8.32031 0 -0.000164368 0 0 0 0 0 0 0 0 0 0 0 0 0 0 0 0 0 50 0.002 
606 4 0.00930146 0.0840587 -0.0128212 0 0 0 0.746197 -0.374621 -2.98912 0 -0.000164368 0 0 0 0 0 0 0 0 0 0 0 0 0 0 0 0 0 159 0.002 
1671 3 0.0126893 0.088996 -0.0123458 0 0 0 0.293605 -0.119396 -1.18159 -0.0934429 0.0523727 0.167044 1 0 0 0 0 0 0 0 0 0 0 0 0 0 0 0 32 0.002 
243 5 0.0153433 0.0922127 -0.0118278 0 0 0 0.750698 0.216221 0.231368 0 -0.000164368 0 0 0 0 0 0 0 0 0 0 0 0 0 0 0 0 0 81 0.002 
1667 1 0.0030152 0.0974576 -0.0113484 0 0 0 0.0575027 -0.0856873 0.186899 -0.00176085 -0.0194788 0.0315606 0 0 0 0 1 0 0 0 0 0 0 0 0 0 0 0 24 0.002 
1060 2 0.0120122 0.0965202 -0.0107872 0 0 0 0.104001 -0.0181543 0.0227785 0 -0.000164368 0 0 0 0 0 0 0 0 0 0 0 0 0 0 0 0 0 79 0.002 
1575 4 0.0094112 0.0992847 -0.0120512 0 0 0 0.183045 0.127495 0.14221 0.00910389 -0.00949093 0.00995628 0 0 0 1 0 0 0 0 0 0 0 0 0 0 0 0 50 0.002 
995 2 0.0136574 0.100243 -0.0122452 0 0 0 0.0225314 -0.0795156 0.108612 -0.001907 -0.00115494 -0.0075888 0 1 0 0 0 0 0 0 0 0 0 0 0 0 0 0 85 0.002 
361 3 0.00301868 0.101541 -0.01158 0 0 0 -0.210196 -0.0345765 0.0405956 -0.00127688 -0.00199971 -0.00657316 0 0 1 0 1 0 0 0 0 0 0 0 0 0 0 0 116 0.002 
1639 1 0.00499792 0.105041 -0.0113094 0 0 0 0.0549096 -0.0184328 0.0446872 0 -0.000164368 0 0 0 0 0 0 0 0 0 0 0 0 0 0 0 0 0 39 0.002 
218 4 0.0100303 0.104668 -0.0114451 0 0 0 0.211802 0.130787 0.0555355 -0.000449745 0.00178397 -0.0037005 0 0 0 1 0 0 0 0 0 0 0 0 0 0 0 0 77 0.002 
1897 2 0.017038 0.106207 -0.0127453 0 0 0 -0.00168238 -0.0760809 0.256905 0 -0.000164368 0 0 0 0 0 0 0 0 0 0 0 0 0 0 0 0 0 4 0.002 
69 6 0.00769711 0.107992 -0.0111942 0 0 0 0.0686366 -0.0151858 0.0325419 0 -0.000164368 0 0 0 0 0 0 0 0 0 0 0 0 0 0 0 0 0 105 0.002 
965 3 0.0165378 0.0810466 -0.00967589 0 0 0 0.952334 -0.0712592 -1.39645 0 -0.000164368 0 0 0 0 0 0 0 0 0 0 0 0 0 0 0 0 0 93 0.002 
947 4 0.00411527 0.0872735 -0.0104211 0 0 0 0.0590176 -0.271035 -1.19346 0.0146382 0.0673024 -0.109509 0 0 0 1 0 0 0 0 0 0 0 0 0 0 0 0 84 0.002 
1120 6 0.0068674 0.0908062 -0.0104719 0 0 0 0.370047 -0.14005 -0.740475 0 -0.000164368 0 0 0 0 0 0 0 0 0 0 0 0 0 0 0 0 0 85 0.002 