ITEM: TIMESTEP
3600000
ITEM: NUMBER OF ATOMS
436
ITEM: BOX BOUNDS ff ff ff
-0.01 0.45
-0.15 0.15
-0.08 0.1
ITEM: ATOMS id type x y z ix iy iz vx vy vz fx fy fz c_cc_1 c_cc_2 c_cc_3 c_cc_4 c_cc_5 c_cc_6 c_cc_7 c_cc_8 c_cc_9 c_cc_10 c_cc_11 c_cc_12 c_cc_13 c_cc_14 c_cc_15 c_cc_16 f_fppacc radius 
108 2 0.0106071 -0.0530614 -0.0231674 0 0 0 1.16929 -6.27205 15.5596 -0.00192448 0.533184 0.173835 0 0 0 0 0 0 0 0 0 0 0 0 0 0 0 0 1 0.002 
84 8 0.00727842 -0.0509906 -0.0216944 0 0 0 0.0863999 -3.6753 12.1013 0 -0.000164368 0 0 0 0 0 0 0 0 0 0 0 0 0 0 0 0 0 1 0.002 
243 5 0.0146709 -0.00727358 -0.0540895 0 0 0 0.967051 -3.9937 -1.98526 0 -0.000164368 0 0 0 0 0 0 0 0 0 0 0 0 0 0 0 0 0 2 0.002 
382 2 0.01142 -0.0265935 0.0409895 0 0 0 0.929326 -1.77663 -2.5665 0 -0.000164368 0 0 0 0 0 0 0 0 0 0 0 0 0 0 0 0 0 0 0.002 
33 2 0.0153194 0.024089 -0.0558584 0 0 0 4.25575e-06 -9.23248e-13 1.85415e-12 6.23181e-18 0 1.77636e-15 0 0 0 0 0 0 0 0 0 0 0 0 0 0 0 0 0 0.002 
402 1 0.0143715 0.0249628 -0.0362259 0 0 0 0.313567 -1.12982 -1.58775 0 -0.000164368 0 0 0 0 0 0 0 0 0 0 0 0 0 0 0 0 0 0 0.002 
34 3 0.00649209 0.0342223 -0.0236271 0 0 0 0.988833 -1.07848 0.175996 0 -0.000164368 0 0 0 0 0 0 0 0 0 0 0 0 0 0 0 0 0 1 0.002 
310 2 0.0118682 0.0325697 -0.00657002 0 0 0 0.172986 0.0328342 -8.96493 0 -0.000164368 0 0 0 0 0 0 0 0 0 0 0 0 0 0 0 0 0 2 0.002 
107 2 0.0136688 0.0374307 0.00418424 0 0 0 0.361788 -0.478487 -0.428642 0 -0.000164368 0 0 0 0 0 0 0 0 0 0 0 0 0 0 0 0 0 2 0.002 
105 3 0.0046909 0.0268296 0.024459 0 0 0 0.125385 6.26472 -2.58961 0 -0.000164368 0 0 0 0 0 0 0 0 0 0 0 0 0 0 0 0 0 2 0.002 
321 7 0.0112487 0.0045717 0.0549228 0 0 0 2.08348 -8.48862 1.98835 0 -0.000164368 0 0 0 0 0 0 0 0 0 0 0 0 0 0 0 0 0 1 0.002 
76 2 0.00647324 0.0353702 0.0433181 0 0 0 3.57581 11.8398 -9.42084 0 -0.000164368 0 0 0 0 0 0 0 0 0 0 0 0 0 0 0 0 0 7 0.002 
125 10 0.00498389 0.0163198 0.0555487 0 0 0 -14.2855 40.1089 -13.8046 0.0251983 0.00948285 -0.471417 0 0 0 0 0 0 0 0 0 0 0 0 0 0 0 0 5 0.002 
41 1 0.015134 0.0528492 -0.0355 0 0 0 3.68245e-244 1.42183e-19 4.48946e-12 -1.97937e-244 -1.35525e-20 0 0 0 0 0 0 0 0 0 0 0 0 0 0 0 0 0 1 0.002 
155 4 0.0169437 0.0642441 -0.00183773 0 0 0 0.397204 -2.77358 -0.205235 0 -0.000164368 0 0 0 0 0 0 0 0 0 0 0 0 0 0 0 0 0 2 0.002 
439 1 0.00296123 0.0709416 -0.0187434 0 0 0 -7.40777 13.9425 -5.63674 1.17334 -0.817271 1.02628 0 0 0 0 0 0 0 0 0 0 0 0 0 0 0 0 0 0.002 
333 2 0.010368 0.0584634 -0.00593505 0 0 0 0.451899 -1.42213 1.61357 0 -0.000164368 0 0 0 0 0 0 0 0 0 0 0 0 0 0 0 0 0 1 0.002 
53 3 0.0163852 0.0581091 -0.00326562 0 0 0 1.12681 0.331863 2.0919 0 -0.000164368 0 0 0 0 0 0 0 0 0 0 0 0 0 0 0 0 0 1 0.002 
419 10 0.0130089 0.0605282 0.0208098 0 0 0 -2.52679 2.93485 -2.02973 0 -0.000164368 0 0 0 0 0 0 0 0 0 0 0 0 0 0 0 0 0 0 0.002 
326 4 0.00794429 0.0716559 0.0219881 0 0 0 0.834994 -1.34045 -0.222193 0 -0.000164368 0 0 0 0 0 0 0 0 0 0 0 0 0 0 0 0 0 2 0.002 
334 2 0.00350716 0.0596726 0.0244429 0 0 0 -0.256362 -0.17898 -0.732601 0 -0.000164368 0 0 0 0 0 0 0 0 0 0 0 0 0 0 0 0 0 1 0.002 
311 2 0.0117622 0.0628462 0.0279038 0 0 0 -1.15067 -0.0710839 0.146219 0 -0.000164368 0 0 0 0 0 0 0 0 0 0 0 0 0 0 0 0 0 3 0.002 
295 2 0.0117649 0.0692292 0.0277345 0 0 0 0.109369 -1.20586 0.532134 0 -0.000164368 0 0 0 0 0 0 0 0 0 0 0 0 0 0 0 0 0 1 0.002 
199 4 0.00831872 0.0543614 0.0283877 0 0 0 -1.44615 -0.709313 -0.482784 0 -0.000164368 0 0 0 0 0 0 0 0 0 0 0 0 0 0 0 0 0 4 0.002 
5 3 0.00419274 0.0684141 0.0286379 0 0 0 0.200114 -0.29051 -0.313996 0 -0.000164368 0 0 0 0 0 0 0 0 0 0 0 0 0 0 0 0 0 0 0.002 
8 5 0.00327284 0.0727113 0.0299485 0 0 0 0.0959081 -0.100296 0.167684 0 -0.000164368 0 0 0 0 0 0 0 0 0 0 0 0 0 0 0 0 0 1 0.002 
253 2 0.0051524 0.0508321 0.0310464 0 0 0 0.150162 -0.589939 -0.130663 0 -0.000164368 0 0 0 0 0 0 0 0 0 0 0 0 0 0 0 0 0 0 0.002 
262 3 0.00526156 0.0551897 0.0309861 0 0 0 0.938829 -1.33474 0.366048 -0.0585821 -0.0898496 -0.0761683 0 0 1 0 0 0 0 0 0 0 0 0 0 0 0 0 2 0.002 
274 4 0.0128857 0.066995 0.0324533 0 0 0 0.0140197 -0.411951 0.169909 -0.000478476 0.00373161 -0.00303718 0 0 0 1 0 0 0 0 0 0 0 0 0 0 0 0 1 0.002 
205 3 0.00789794 0.0676778 0.0322324 0 0 0 -0.20658 -0.54382 0.259473 0.00188624 -0.00313786 0.000391078 0 0 0 0 0 0 0 0 0 0 0 0 0 0 0 0 0 0.002 
314 6 0.00745227 0.0721251 0.0305906 0 0 0 0.226534 -0.609862 0.251444 0 -0.000164368 0 0 0 0 0 0 0 0 0 0 0 0 0 0 0 0 0 0 0.002 
339 4 0.00838148 0.0568157 0.0327389 0 0 0 0.240726 -0.405848 0.23367 0.0585821 0.0895208 0.0761683 0 0 1 0 0 0 0 0 0 0 0 0 0 0 0 0 2 0.002 
95 5 0.00465905 0.0593975 0.0325788 0 0 0 0.300477 -0.0159729 -0.377372 0 -0.000164368 0 0 0 0 0 0 0 0 0 0 0 0 0 0 0 0 0 4 0.002 
371 3 0.00993081 0.0642509 0.0325846 0 0 0 -0.0810968 -0.991023 -0.268815 -0.00188624 0.00280912 -0.000391078 0 0 0 0 0 0 0 0 0 0 0 0 0 0 0 0 0 0.002 
308 1 0.0141107 0.0707663 0.0329273 0 0 0 -0.33154 -0.104094 -0.0459309 0.000478476 -0.00406035 0.00303718 0 0 0 1 0 0 0 0 0 0 0 0 0 0 0 0 2 0.002 
440 5 0.0171694 0.0671407 0.0320869 0 0 0 -3.62218 -5.61852 -4.1379 0 -0.000164368 0 0 0 0 0 0 0 0 0 0 0 0 0 0 0 0 0 0 0.002 
221 16 0.00903016 0.0821652 -0.0296774 0 0 0 3.04585 0.817094 5.93909 0 -0.000164368 0 0 0 0 0 0 0 0 0 0 0 0 0 0 0 0 0 2 0.002 
220 2 0.0154508 0.0850242 -0.0304694 0 0 0 9.24997 10.4755 4.57145 0 -0.000164368 0 0 0 0 0 0 0 0 0 0 0 0 0 0 0 0 0 0 0.002 
212 5 0.00834995 0.0962054 -0.0306425 0 0 0 -4.09101 -3.13036 -1.18316 0 -0.000164368 0 0 0 0 0 0 0 0 0 0 0 0 0 0 0 0 0 1 0.002 
166 1 0.00658072 0.104018 -0.0203154 0 0 0 2.43297 1.6911 0.0327082 0 -0.000164368 0 0 0 0 0 0 0 0 0 0 0 0 0 0 0 0 0 2 0.002 
323 7 0.00407189 0.107664 -0.022484 0 0 0 0.766111 -0.139917 -0.627516 0 -0.000164368 0 0 0 0 0 0 0 0 0 0 0 0 0 0 0 0 0 2 0.002 
167 2 0.00773208 0.0783865 -0.017791 0 0 0 1.54604 -6.34999 2.00003 0 -0.000164368 0 0 0 0 0 0 0 0 0 0 0 0 0 0 0 0 0 1 0.002 
395 6 0.00337028 0.0896836 -0.0191433 0 0 0 0.165762 -1.48145 -0.936947 0 -0.000164368 0 0 0 0 0 0 0 0 0 0 0 0 0 0 0 0 0 0 0.002 
293 1 0.00430462 0.106501 -0.0153855 0 0 0 -2.79676 -1.11489 0.700782 0 -0.000164368 0 0 0 0 0 0 0 0 0 0 0 0 0 0 0 0 0 6 0.002 
191 2 0.00543805 0.0823744 -0.0129524 0 0 0 0.449076 1.26194 1.31512 0 -0.000164368 0 0 0 0 0 0 0 0 0 0 0 0 0 0 0 0 0 2 0.002 
355 5 0.0141039 0.10764 -0.0113687 0 0 0 -0.391239 -0.600943 0.537425 0 -0.000164368 0 0 0 0 0 0 0 0 0 0 0 0 0 0 0 0 0 3 0.002 
138 4 0.014026 0.105989 0.00967193 0 0 0 0.0106515 -0.907847 -0.779494 0 -0.000164368 0 0 0 0 0 0 0 0 0 0 0 0 0 0 0 0 0 3 0.002 
21 8 0.00361863 0.0933675 -0.00859479 0 0 0 0.905793 -1.29944 1.6879 0 -0.000164368 0 0 0 0 0 0 0 0 0 0 0 0 0 0 0 0 0 1 0.002 
375 4 0.0186235 0.100111 -0.00954275 0 0 0 0.759592 1.21092 -1.69175 0 -0.000164368 0 0 0 0 0 0 0 0 0 0 0 0 0 0 0 0 0 0 0.002 
32 6 0.00305912 0.10059 -0.00493664 0 0 0 0.514578 -0.680419 1.07747 0 -0.000164368 0 0 0 0 0 0 0 0 0 0 0 0 0 0 0 0 0 2 0.002 
103 5 0.00638039 0.105646 -0.00382909 0 0 0 -1.26356 -0.11559 1.29982 0 -0.000164368 0 0 0 0 0 0 0 0 0 0 0 0 0 0 0 0 0 3 0.002 
408 3 0.0167973 0.0967152 -0.00152263 0 0 0 3.81183 4.76508 -1.89851 0 -0.000164368 0 0 0 0 0 0 0 0 0 0 0 0 0 0 0 0 0 2 0.002 
361 3 0.00766522 0.100335 0.00919917 0 0 0 1.25593 0.618901 -0.0389365 0 -0.000164368 0 0 0 0 0 0 0 0 0 0 0 0 0 0 0 0 0 1 0.002 
436 2 0.00324727 0.0935196 0.00149653 0 0 0 0.506767 -0.630105 0.72092 0 -0.000164368 0 0 0 0 0 0 0 0 0 0 0 0 0 0 0 0 0 0 0.002 
269 2 0.0122327 0.106395 0.00375931 0 0 0 -0.280158 -0.885546 2.05657 0 -0.000164368 0 0 0 0 0 0 0 0 0 0 0 0 0 0 0 0 0 1 0.002 
356 7 0.00328096 0.102112 0.00438634 0 0 0 -0.147695 -0.737661 -1.50967 0 -0.000164368 0 0 0 0 0 0 0 0 0 0 0 0 0 0 0 0 0 1 0.002 
437 8 0.00967541 0.103865 0.00199034 0 0 0 -3.73926 14.3419 -6.82566 0 -0.000164368 0 0 0 0 0 0 0 0 0 0 0 0 0 0 0 0 0 0 0.002 
283 10 0.00410687 0.0994431 0.00757518 0 0 0 0.695719 -0.207581 1.45633 0 -0.000164368 0 0 0 0 0 0 0 0 0 0 0 0 0 0 0 0 0 0 0.002 
324 5 0.0170937 0.0937067 0.00997934 0 0 0 0.44054 -0.411344 0.436323 0 -0.000164368 0 0 0 0 0 0 0 0 0 0 0 0 0 0 0 0 0 2 0.002 
102 1 0.00776067 0.091508 0.0120639 0 0 0 2.1842 1.68907 3.81811 0 -0.000164368 0 0 0 0 0 0 0 0 0 0 0 0 0 0 0 0 0 4 0.002 
211 2 0.010816 0.102309 0.0118031 0 0 0 -0.079219 -0.725873 -0.536452 0 -0.000164368 0 0 0 0 0 0 0 0 0 0 0 0 0 0 0 0 0 0 0.002 
188 6 0.00595341 0.107991 0.0329833 0 0 0 -0.245992 -0.0322072 0.082034 0 -0.000164368 0 0 0 0 0 0 0 0 0 0 0 0 0 0 0 0 0 2 0.002 
342 4 0.00354455 0.0935594 0.0134667 0 0 0 0.267347 2.52674 -0.130101 0 -0.000164368 0 0 0 0 0 0 0 0 0 0 0 0 0 0 0 0 0 2 0.002 
159 2 0.00383701 0.107046 0.0175705 0 0 0 -3.46548 -1.26562 7.48898 0 -0.000164368 0 0 0 0 0 0 0 0 0 0 0 0 0 0 0 0 0 0 0.002 
337 8 0.00722765 0.0865413 0.014794 0 0 0 0.532293 1.5303 -0.0513158 0 -0.000164368 0 0 0 0 0 0 0 0 0 0 0 0 0 0 0 0 0 2 0.002 
271 4 0.00930138 0.099777 0.0150061 0 0 0 -0.854132 0.241501 -0.434402 0 -0.000164368 0 0 0 0 0 0 0 0 0 0 0 0 0 0 0 0 0 1 0.002 
172 5 0.0168787 0.106884 0.0156952 0 0 0 1.90614 -3.7512 2.49137 0 -0.000164368 0 0 0 0 0 0 0 0 0 0 0 0 0 0 0 0 0 1 0.002 
181 6 0.00955168 0.0937046 0.0187247 0 0 0 -0.425696 -0.307039 -0.225958 0 -0.000164368 0 0 0 0 0 0 0 0 0 0 0 0 0 0 0 0 0 1 0.002 
60 4 0.00927798 0.0838726 0.0219919 0 0 0 -0.984701 1.02714 1.80997 0 -0.000164368 0 0 0 0 0 0 0 0 0 0 0 0 0 0 0 0 0 2 0.002 
348 6 0.00401466 0.0849937 0.0203316 0 0 0 -0.233425 -0.368305 -0.153574 0 -0.000164368 0 0 0 0 0 0 0 0 0 0 0 0 0 0 0 0 0 0 0.002 
165 4 0.00308915 0.0953844 0.0195874 0 0 0 0.0704929 0.404525 -0.841885 0 -0.000164368 0 0 0 0 0 0 0 0 0 0 0 0 0 0 0 0 0 3 0.002 
145 6 0.00670608 0.0900618 0.0208059 0 0 0 -0.329319 0.0572369 -1.87029 0 -0.000164368 0 0 0 0 0 0 0 0 0 0 0 0 0 0 0 0 0 2 0.002 
425 1 0.011374 0.0965592 0.0213913 0 0 0 0.00893814 -0.496511 -0.349814 0 -0.000164368 0 0 0 0 0 0 0 0 0 0 0 0 0 0 0 0 0 2 0.002 
236 3 0.0116414 0.101009 0.0207475 0 0 0 -0.438128 -0.0930222 -1.01436 0 -0.000164368 0 0 0 0 0 0 0 0 0 0 0 0 0 0 0 0 0 1 0.002 
297 3 0.00365073 0.0936183 0.0239167 0 0 0 -0.36679 0.257056 -0.621065 0 -0.000164368 0 0 0 0 0 0 0 0 0 0 0 0 0 0 0 0 0 3 0.002 
20 3 0.0119948 0.092177 0.0250639 0 0 0 0.584154 -0.468534 0.0905576 0 -0.000164368 0 0 0 0 0 0 0 0 0 0 0 0 0 0 0 0 0 2 0.002 
306 3 0.00305927 0.0983621 0.0253934 0 0 0 -0.0768437 0.572425 -0.532406 0 -0.000164368 0 0 0 0 0 0 0 0 0 0 0 0 0 0 0 0 0 0 0.002 
263 2 0.00863795 0.0982788 0.0249119 0 0 0 -0.72762 -0.411685 -0.363763 0 -0.000164368 0 0 0 0 0 0 0 0 0 0 0 0 0 0 0 0 0 1 0.002 
156 4 0.00756557 0.105892 0.0253788 0 0 0 -0.620779 0.700778 -0.181653 0 -0.000164368 0 0 0 0 0 0 0 0 0 0 0 0 0 0 0 0 0 2 0.002 
278 11 0.00471596 0.0768412 0.0264955 0 0 0 -1.55775 -0.415645 -0.325057 0 -0.000164368 0 0 0 0 0 0 0 0 0 0 0 0 0 0 0 0 0 0 0.002 
213 4 0.00531593 0.0824238 0.0255298 0 0 0 -0.51518 0.411257 -0.453029 0 -0.000164368 0 0 0 0 0 0 0 0 0 0 0 0 0 0 0 0 0 1 0.002 
128 4 0.0108823 0.0868486 0.0252588 0 0 0 -0.753139 -1.40165 -1.16628 0 -0.000164368 0 0 0 0 0 0 0 0 0 0 0 0 0 0 0 0 0 3 0.002 
423 3 0.0157157 0.103163 0.0265408 0 0 0 -0.0408753 -0.12393 -0.0334212 0 -0.000164368 0 0 0 0 0 0 0 0 0 0 0 0 0 0 0 0 0 0 0.002 
392 1 0.0148512 0.106872 0.0279393 0 0 0 -0.315598 -0.061368 0.196914 0 -0.000164368 0 0 0 0 0 0 0 0 0 0 0 0 0 0 0 0 0 1 0.002 
235 3 0.0116083 0.0760753 0.0292409 0 0 0 -0.00643143 -1.68075 0.27955 0 -0.000164368 0 0 0 0 0 0 0 0 0 0 0 0 0 0 0 0 0 1 0.002 
161 8 0.00846252 0.0881192 0.0283256 0 0 0 -0.438462 -0.265579 -0.703625 0 -0.000164368 0 0 0 0 0 0 0 0 0 0 0 0 0 0 0 0 0 4 0.002 
14 5 0.00946518 0.0958262 0.0281478 0 0 0 -0.191382 -0.0689602 -0.479875 0 -0.000164368 0 0 0 0 0 0 0 0 0 0 0 0 0 0 0 0 0 3 0.002 
329 7 0.0157742 0.0948683 0.0294213 0 0 0 0.766407 -0.788913 0.330574 0 -0.000164368 0 0 0 0 0 0 0 0 0 0 0 0 0 0 0 0 0 1 0.002 
86 6 0.00573911 0.0985711 0.0289285 0 0 0 -0.0498281 -0.253971 -0.158248 0 -0.000164368 0 0 0 0 0 0 0 0 0 0 0 0 0 0 0 0 0 1 0.002 
175 5 0.0158998 0.0998832 0.0295244 0 0 0 -0.706237 -0.175455 -0.351354 0.00617295 -0.00307405 -0.0101416 0 0 0 0 1 0 0 0 0 0 0 0 0 0 0 0 3 0.002 
210 4 0.0123419 0.101672 0.0281096 0 0 0 -0.551759 0.326463 -0.562488 0 -0.000164368 0 0 0 0 0 0 0 0 0 0 0 0 0 0 0 0 0 2 0.002 
206 6 0.00522108 0.103622 0.0280396 0 0 0 -0.48244 0.397062 -0.0635163 0.0103645 -0.0304325 -0.000283683 0 0 0 0 0 0 0 0 0 0 0 0 0 0 0 0 0 0.002 
336 9 0.00902943 0.104438 0.0291709 0 0 0 -0.773415 0.0535711 -0.184623 0 -0.000164368 0 0 0 0 0 0 0 0 0 0 0 0 0 0 0 0 0 1 0.002 
280 6 0.00557756 0.107517 0.0288056 0 0 0 -0.226825 -0.0668456 0.0193419 -0.0103645 0.0301037 0.000283683 0 0 0 0 0 0 0 0 0 0 0 0 0 0 0 0 1 0.002 
272 2 0.0109808 0.107974 0.0285163 0 0 0 -0.358512 -0.0358872 -0.198174 0 -0.000164368 0 0 0 0 0 0 0 0 0 0 0 0 0 0 0 0 0 0 0.002 
204 7 0.0108182 0.0817495 0.0309288 0 0 0 -0.246142 -0.0545594 -0.782007 0 -0.000164368 0 0 0 0 0 0 0 0 0 0 0 0 0 0 0 0 0 1 0.002 
185 5 0.00439521 0.0877401 0.0307666 0 0 0 0.129002 -0.0989094 0.134515 0 -0.000164368 0 0 0 0 0 0 0 0 0 0 0 0 0 0 0 0 0 3 0.002 
394 6 0.00967037 0.0908126 0.0310729 0 0 0 0.137605 -0.415574 -0.401544 0 -0.000164368 0 0 0 0 0 0 0 0 0 0 0 0 0 0 0 0 0 1 0.002 
357 7 0.00301696 0.0958813 0.0316968 0 0 0 0.0516776 -0.0560846 -0.156633 0 -0.000164368 0 0 0 0 0 0 0 0 0 0 0 0 0 0 0 0 0 1 0.002 
346 4 0.00642368 0.0940894 0.0304741 0 0 0 -0.214971 -0.277536 -0.327144 0 -0.000164368 0 0 0 0 0 0 0 0 0 0 0 0 0 0 0 0 0 1 0.002 
134 2 0.00300352 0.0999101 0.0316781 0 0 0 0.0224238 0.152812 -0.0573116 0 -0.000164368 0 0 0 0 0 0 0 0 0 0 0 0 0 0 0 0 0 0 0.002 
38 9 0.00909622 0.100531 0.0302322 0 0 0 -0.326307 -0.0198673 -0.229447 0 -0.000164368 0 0 0 0 0 0 0 0 0 0 0 0 0 0 0 0 0 4 0.002 
317 11 0.0136995 0.104305 0.0310476 0 0 0 -0.643347 -0.288911 0.265155 0 -0.000164368 0 0 0 0 0 0 0 0 0 0 0 0 0 0 0 0 0 1 0.002 
332 2 0.00537108 0.0776917 0.0327 0 0 0 0.115739 0.164613 -0.077793 0 -0.000164368 0 0 0 0 0 0 0 0 0 0 0 0 0 0 0 0 0 2 0.002 
171 3 0.0066289 0.0836243 0.0329627 0 0 0 -0.538948 -0.200987 -0.0271735 0 -0.000164368 0 0 0 0 0 0 0 0 0 0 0 0 0 0 0 0 0 1 0.002 
415 4 0.0167003 0.0857404 0.0325167 0 0 0 -0.48071 -0.828494 0.0202459 -0.0185496 -0.00512605 -0.00496947 0 0 0 1 0 0 0 0 0 0 0 0 0 0 0 0 1 0.002 
126 2 0.00327841 0.0911857 0.0328585 0 0 0 -0.0594272 -0.0164098 -0.134178 0 -0.000164368 0 0 0 0 0 0 0 0 0 0 0 0 0 0 0 0 0 3 0.002 
143 7 0.0128545 0.0961805 0.0327219 0 0 0 -0.472791 0.00341031 -0.295029 0 -0.000164368 0 0 0 0 0 0 0 0 0 0 0 0 0 0 0 0 0 1 0.002 
315 1 0.00667645 0.0988435 0.0329866 0 0 0 0.00893243 -0.400908 -0.0343547 0 -0.000164368 0 0 0 0 0 0 0 0 0 0 0 0 0 0 0 0 0 1 0.002 
309 1 0.0141669 0.100711 0.0330103 0 0 0 -0.273944 -0.0289223 -0.0908281 -0.00427089 0.00170593 0.00314362 0 0 0 0 1 0 0 0 0 0 0 0 0 0 0 0 2 0.002 
417 1 0.0184465 0.102628 0.0326066 0 0 0 -0.169176 0.206544 0.0982819 0 -0.000164368 0 0 0 0 0 0 0 0 0 0 0 0 0 0 0 0 0 0 0.002 
73 3 0.00768327 0.104358 0.0329875 0 0 0 -0.286169 -0.124495 0.0625226 0 -0.000164368 0 0 0 0 0 0 0 0 0 0 0 0 0 0 0 0 0 1 0.002 
173 3 0.0113041 0.106919 0.0329304 0 0 0 -0.576639 0.16535 0.259376 0 -0.000164368 0 0 0 0 0 0 0 0 0 0 0 0 0 0 0 0 0 1 0.002 
139 6 0.0153234 0.107739 0.0326668 0 0 0 -0.304674 0.064869 -0.0157444 0 -0.000164368 0 0 0 0 0 0 0 0 0 0 0 0 0 0 0 0 0 2 0.002 
277 5 0.0267517 -0.0572978 0.000599288 0 0 0 1.09075 0.929911 8.66822 0 -0.000164368 0 0 0 0 0 0 0 0 0 0 0 0 0 0 0 0 0 0 0.002 
197 3 0.0307955 -0.0482546 0.0318024 0 0 0 16.0621 20.3962 29.1159 0.0476853 -0.116678 0.182871 0 0 0 0 0 0 0 0 0 0 0 0 0 0 0 0 4 0.002 
146 9 0.0474155 -0.0108063 0.0397863 0 0 0 0.000100083 79.5726 21.6127 -5.6441e-07 0.724248 -2.6665 0 0 0 0 0 0 0 0 0 0 0 0 0 0 0 0 0 0.002 
294 1 0.0200518 -0.00452291 0.0559436 0 0 0 7.24694 3.73428 -1.94378 0 -0.000164368 0 0 0 0 0 0 0 0 0 0 0 0 0 0 0 0 0 1 0.002 
270 1 0.0203065 0.0511928 -0.0355 0 0 0 -2.22519e-308 2.84219e-19 1.11879e-12 0 -1.35525e-20 0 0 0 0 0 0 0 0 0 0 0 0 0 0 0 0 0 0 0.002 
79 1 0.0426372 0.0514559 -0.0355 0 0 0 -1.98303e-37 -6.09601e-20 -3.92791e-12 -2.55981e-38 0 0 0 0 0 0 0 0 0 0 0 0 0 0 0 0 0 0 0 0.002 
127 3 0.0250649 0.0533939 -0.0355 0 0 0 -2.22524e-308 4.06966e-20 5.61332e-12 -1.17233e-306 0 -3.55271e-15 0 0 0 0 0 0 0 0 0 0 0 0 0 0 0 0 2 0.002 
276 4 0.0334408 0.0547289 -0.0355 0 0 0 -2.50093e-146 2.22837e-19 -6.71704e-12 -3.35042e-145 0 0 0 0 0 0 0 0 0 0 0 0 0 0 0 0 0 0 0 0.002 
48 3 0.0235001 0.0573254 -0.0355 0 0 0 1.48149e-43 2.04332e-20 4.48961e-12 1.96512e-44 0 0 0 0 0 0 0 0 0 0 0 0 0 0 0 0 0 0 0 0.002 
52 2 0.0282445 0.0584364 -0.0355 0 0 0 9.57299e-116 -3.04383e-19 -5.61329e-12 9.15388e-117 0 -3.55271e-15 0 0 0 0 0 0 0 0 0 0 0 0 0 0 0 0 0 0.002 
351 1 0.0418148 0.0566509 -0.0355 0 0 0 4.84265e-38 1.62408e-19 -3.37601e-12 -5.55939e-37 0 0 0 0 0 0 0 0 0 0 0 0 0 0 0 0 0 0 0 0.002 
39 3 0.0455602 0.0647098 -0.0355 0 0 0 -3.64959e-64 -1.62281e-19 -2.24235e-12 4.94999e-64 0 -3.55271e-15 0 0 0 0 0 0 0 0 0 0 0 0 0 0 0 0 0 0.002 
319 4 0.023873 0.0675206 -0.0217161 0 0 0 2.31441 -0.348401 1.23565 0 -0.000164368 0 0 0 0 0 0 0 0 0 0 0 0 0 0 0 0 0 2 0.002 
393 11 0.0284823 0.070219 -0.0224772 0 0 0 1.50359 -2.19894 0.345667 0 -0.000164368 0 0 0 0 0 0 0 0 0 0 0 0 0 0 0 0 0 0 0.002 
282 7 0.0460855 0.0426839 -0.0186196 0 0 0 -0.812516 -5.41054 1.24366 0 -0.000164368 0 0 0 0 0 0 0 0 0 0 0 0 0 0 0 0 0 2 0.002 
281 11 0.0439384 0.0559088 -0.011393 0 0 0 7.47362 -4.95023 6.08639 0 -0.000164368 0 0 0 0 0 0 0 0 0 0 0 0 0 0 0 0 0 1 0.002 
289 3 0.0412294 0.0628751 -0.000826531 0 0 0 -1.93496 -7.59783 11.314 0.0927981 -0.131111 -0.466837 0 0 1 0 0 0 0 0 0 0 0 0 0 0 0 0 1 0.002 
74 5 0.0356398 0.0648302 0.00275872 0 0 0 10.6683 -4.5635 12.4159 0 -0.000164368 0 0 0 0 0 0 0 0 0 0 0 0 0 0 0 0 0 2 0.002 
231 7 0.0400207 0.0653814 0.00194407 0 0 0 0.547323 -0.999496 -0.232647 -0.0927981 0.130783 0.466837 0 0 1 0 0 0 0 0 0 0 0 0 0 0 0 0 3 0.002 
287 6 0.0276295 0.058109 0.00216956 0 0 0 -1.15264 13.3284 -26.4627 0 -0.000164368 0 0 0 0 0 0 0 0 0 0 0 0 0 0 0 0 0 2 0.002 
300 1 0.0195816 0.0609993 -0.0156521 0 0 0 1.84529 -0.965489 2.42257 0 -0.000164368 0 0 0 0 0 0 0 0 0 0 0 0 0 0 0 0 0 1 0.002 
69 6 0.0401905 0.0383392 -0.0389543 0 0 0 -16.7629 -30.823 -16.0828 0 -0.000164368 0 0 0 0 0 0 0 0 0 0 0 0 0 0 0 0 0 5 0.002 
367 9 0.019554 0.0626869 0.0321687 0 0 0 0.706783 -0.177092 -1.30786 0 -0.000164368 0 0 0 0 0 0 0 0 0 0 0 0 0 0 0 0 0 1 0.002 
240 1 0.02203 0.0625033 0.0106421 0 0 0 2.3589 6.15237 -10.8096 0 -0.000164368 0 0 0 0 0 0 0 0 0 0 0 0 0 0 0 0 0 2 0.002 
331 7 0.024885 0.0478983 0.0313039 0 0 0 16.6275 19.7721 -27.8879 0 -0.000164368 0 0 0 0 0 0 0 0 0 0 0 0 0 0 0 0 0 1 0.002 
6 3 0.0211049 0.0583215 0.0111656 0 0 0 -3.45336 11.864 -20.412 0 -0.000164368 0 0 0 0 0 0 0 0 0 0 0 0 0 0 0 0 0 3 0.002 
178 10 0.0205989 0.074261 0.0218536 0 0 0 -0.189958 -0.853439 0.908037 0 -0.000164368 0 0 0 0 0 0 0 0 0 0 0 0 0 0 0 0 0 1 0.002 
111 3 0.0423858 0.0558677 0.027715 0 0 0 -1.99306 1.31606 0.497658 0 -0.000164368 0 0 0 0 0 0 0 0 0 0 0 0 0 0 0 0 0 0 0.002 
121 2 0.0324727 0.0717196 0.0277872 0 0 0 0.878847 -1.90735 0.694223 0 -0.000164368 0 0 0 0 0 0 0 0 0 0 0 0 0 0 0 0 0 4 0.002 
140 4 0.0392964 0.0742709 0.0257952 0 0 0 1.25223 -0.200176 -0.180968 0 -0.000164368 0 0 0 0 0 0 0 0 0 0 0 0 0 0 0 0 0 1 0.002 
192 7 0.0453297 0.0594556 0.0283569 0 0 0 -0.242115 -1.09409 0.145961 0 -0.000164368 0 0 0 0 0 0 0 0 0 0 0 0 0 0 0 0 0 5 0.002 
51 2 0.0463019 0.0651429 0.0262719 0 0 0 0.135878 -2.07604 -5.4039 0 -0.000164368 0 0 0 0 0 0 0 0 0 0 0 0 0 0 0 0 0 2 0.002 
365 10 0.0247282 0.0648774 0.0308174 0 0 0 0.306737 -0.798235 0.0153962 0 -0.000164368 0 0 0 0 0 0 0 0 0 0 0 0 0 0 0 0 0 2 0.002 
273 3 0.0363373 0.0642121 0.0317809 0 0 0 0.160218 -0.932745 -0.198196 0.00757987 -0.128887 -0.0486727 0 0 1 0 0 0 0 0 0 0 0 0 0 0 0 0 1 0.002 
68 9 0.0193352 0.0557077 0.0231217 0 0 0 -11.3926 23.1758 -28.3577 0 -0.000164368 0 0 0 0 0 0 0 0 0 0 0 0 0 0 0 0 0 9 0.002 
133 1 0.0356676 0.0679174 0.0328312 0 0 0 0.469724 -0.91272 0.741205 -0.00757987 0.128558 0.0486727 0 0 1 0 0 0 0 0 0 0 0 0 0 0 0 0 4 0.002 
64 4 0.0196599 0.0730192 0.0309774 0 0 0 0.100677 -0.134423 0.338935 0 -0.000164368 0 0 0 0 0 0 0 0 0 0 0 0 0 0 0 0 0 3 0.002 
291 1 0.0239564 0.0729042 0.0314633 0 0 0 -0.734423 -0.204949 -0.501154 0 -0.000164368 0 0 0 0 0 0 0 0 0 0 0 0 0 0 0 0 0 4 0.002 
242 6 0.0345376 0.0516848 0.0327984 0 0 0 -0.0387815 -1.83425 0.303731 0 -0.000164368 0 0 0 0 0 0 0 0 0 0 0 0 0 0 0 0 0 5 0.002 
216 2 0.0208757 0.0686234 0.0141332 0 0 0 1.65242 -3.73352 13.9084 0 -0.000164368 0 0 0 0 0 0 0 0 0 0 0 0 0 0 0 0 0 2 0.002 
412 9 0.0336487 0.102032 -0.0246255 0 0 0 -18.0764 13.3303 18.9899 -0.0253907 -0.505309 -0.194246 0 0 0 0 0 0 0 0 1 0 0 0 0 0 0 0 1 0.002 
244 1 0.0312663 0.0982772 -0.0328476 0 0 0 2.94347 -0.104066 0.563025 0 -0.000164368 0 0 0 0 0 0 0 0 0 0 0 0 0 0 0 0 0 0 0.002 
438 2 0.0278691 0.0874846 -0.0289864 0 0 0 2.15154 -1.86784 0.908669 0 -0.000164368 0 0 0 0 0 0 0 0 0 0 0 0 0 0 0 0 0 0 0.002 
196 4 0.0226691 0.103375 -0.0261605 0 0 0 -0.56946 5.219 4.09184 0 -0.000164368 0 0 0 0 0 0 0 0 0 0 0 0 0 0 0 0 0 1 0.002 
154 5 0.0453372 0.105298 -0.0286079 0 0 0 -0.333613 -0.643083 0.288294 0 -0.000164368 0 0 0 0 0 0 0 0 0 0 0 0 0 0 0 0 0 2 0.002 
422 6 0.0314282 0.0850418 -0.0250522 0 0 0 3.94993 -3.5714 3.33002 0 -0.000164368 0 0 0 0 0 0 0 0 0 0 0 0 0 0 0 0 0 0 0.002 
370 4 0.0317255 0.0986892 -0.0256115 0 0 0 -5.13081 -0.78929 1.51954 0.0253907 0.50498 0.194246 0 0 0 0 0 0 0 0 1 0 0 0 0 0 0 0 1 0.002 
359 3 0.0225076 0.105243 -0.0192775 0 0 0 -1.52321 -2.83558 2.5716 0 -0.000164368 0 0 0 0 0 0 0 0 0 0 0 0 0 0 0 0 0 0 0.002 
318 4 0.0357475 0.106381 -0.0226269 0 0 0 1.21641 -0.266711 -1.68894 0 -0.000164368 0 0 0 0 0 0 0 0 0 0 0 0 0 0 0 0 0 1 0.002 
118 2 0.024941 0.0926927 -0.0198993 0 0 0 0.967242 -2.09326 0.107017 0 -0.000164368 0 0 0 0 0 0 0 0 0 0 0 0 0 0 0 0 0 2 0.002 
405 3 0.0306356 0.102015 -0.0191474 0 0 0 0.0176417 -1.02555 -1.55228 0 -0.000164368 0 0 0 0 0 0 0 0 0 0 0 0 0 0 0 0 0 0 0.002 
63 6 0.0391152 0.087889 -0.0169169 0 0 0 -0.831085 -0.614525 0.483515 0 -0.000164368 0 0 0 0 0 0 0 0 0 0 0 0 0 0 0 0 0 3 0.002 
286 14 0.0244365 0.0980541 -0.0163039 0 0 0 0.0891828 -1.05424 0.688404 0 -0.000164368 0 0 0 0 0 0 0 0 0 0 0 0 0 0 0 0 0 4 0.002 
389 5 0.0254742 0.106152 -0.0144135 0 0 0 2.20022 0.834207 6.3125 0 -0.000164368 0 0 0 0 0 0 0 0 0 0 0 0 0 0 0 0 0 1 0.002 
424 5 0.0326643 0.0892652 -0.0125912 0 0 0 0.505614 -0.0322922 -1.64037 0 -0.000164368 0 0 0 0 0 0 0 0 0 0 0 0 0 0 0 0 0 0 0.002 
391 4 0.0330897 0.0998798 -0.012946 0 0 0 0.837975 -0.565691 0.0181464 0 -0.000164368 0 0 0 0 0 0 0 0 0 0 0 0 0 0 0 0 0 0 0.002 
420 3 0.0403021 0.10422 -0.0115819 0 0 0 0.386322 -0.347714 -1.34968 0 -0.000164368 0 0 0 0 0 0 0 0 0 0 0 0 0 0 0 0 0 0 0.002 
399 3 0.0428212 0.0875173 -0.00855398 0 0 0 -0.838844 1.07815 1.55512 0 -0.000164368 0 0 0 0 0 0 0 0 0 0 0 0 0 0 0 0 0 1 0.002 
18 3 0.0312063 0.107802 -0.00576499 0 0 0 -1.19406 -0.345589 1.72394 0 -0.000164368 0 0 0 0 0 0 0 0 0 0 0 0 0 0 0 0 0 2 0.002 
12 9 0.0308013 0.0886198 0.000380355 0 0 0 11.3557 -3.40184 9.8705 0 -0.000164368 0 0 0 0 0 0 0 0 0 0 0 0 0 0 0 0 0 1 0.002 
403 8 0.0306767 0.102508 -0.0044952 0 0 0 1.1698 -0.437015 0.142862 0 -0.000164368 0 0 0 0 0 0 0 0 0 0 0 0 0 0 0 0 0 0 0.002 
92 2 0.0402611 0.10421 -0.00495655 0 0 0 -0.679674 -1.11022 -1.59677 0 -0.000164368 0 0 0 0 0 0 0 0 0 0 0 0 0 0 0 0 0 1 0.002 
198 6 0.0250042 0.0972446 0.00405677 0 0 0 0.97374 -1.62344 2.22429 0 -0.000164368 0 0 0 0 0 0 0 0 0 0 0 0 0 0 0 0 0 1 0.002 
322 2 0.0312901 0.0969537 0.00277553 0 0 0 -1.72838 -1.11123 2.03989 0 -0.000164368 0 0 0 0 0 0 0 0 0 0 0 0 0 0 0 0 0 0 0.002 
343 2 0.0236609 0.101361 0.00288605 0 0 0 -1.0093 -1.89502 0.907508 0 -0.000164368 0 0 0 0 0 0 0 0 0 0 0 0 0 0 0 0 0 0 0.002 
349 7 0.0424161 0.0829236 0.00415826 0 0 0 0.193541 -0.418661 0.483137 0 -0.000164368 0 0 0 0 0 0 0 0 0 0 0 0 0 0 0 0 0 3 0.002 
264 10 0.0447166 0.105922 0.00313022 0 0 0 -0.000118042 -0.153154 -1.00131 0 -0.000164368 0 0 0 0 0 0 0 0 0 0 0 0 0 0 0 0 0 4 0.002 
431 5 0.0457973 0.0901377 0.00793015 0 0 0 -0.983236 -0.505044 1.0968 0 -0.000164368 0 0 0 0 0 0 0 0 0 0 0 0 0 0 0 0 0 0 0.002 
203 3 0.041012 0.0926073 0.00708745 0 0 0 0.00222435 -0.463594 -0.988134 0 -0.000164368 0 0 0 0 0 0 0 0 0 0 0 0 0 0 0 0 0 5 0.002 
387 10 0.0188545 0.0810616 -0.00886165 0 0 0 0.578158 -2.63862 1.21193 0 -0.000164368 0 0 0 0 0 0 0 0 0 0 0 0 0 0 0 0 0 0 0.002 
366 9 0.0360242 0.105362 0.00508916 0 0 0 -0.707369 0.0279762 -0.836446 0 -0.000164368 0 0 0 0 0 0 0 0 0 0 0 0 0 0 0 0 0 1 0.002 
123 8 0.0412755 0.103671 0.00560891 0 0 0 -0.699244 -0.530588 -0.186144 0 -0.000164368 0 0 0 0 0 0 0 0 0 0 0 0 0 0 0 0 0 5 0.002 
222 8 0.0337758 0.102319 0.00938381 0 0 0 0.0152893 0.434916 -0.7462 0 -0.000164368 0 0 0 0 0 0 0 0 0 0 0 0 0 0 0 0 0 2 0.002 
350 8 0.0209354 0.0956135 -0.000752679 0 0 0 4.99336 4.84767 -3.57733 0 -0.000164368 0 0 0 0 0 0 0 0 0 0 0 0 0 0 0 0 0 0 0.002 
193 8 0.0334422 0.0967069 0.00951232 0 0 0 -0.275161 -0.755488 -1.63855 0 -0.000164368 0 0 0 0 0 0 0 0 0 0 0 0 0 0 0 0 0 4 0.002 
433 9 0.025087 0.0770344 -0.00159783 0 0 0 -16.6939 30.124 -35.7878 0 -0.000164368 0 0 0 0 0 0 0 0 0 0 0 0 0 0 0 0 0 0 0.002 
1 6 0.0339852 0.107958 0.033003 0 0 0 -0.0411157 -0.0657489 -0.0153893 0.000845262 -0.00126888 -0.00257668 0 0 0 0 0 1 0 0 0 0 0 0 0 0 0 0 4 0.002 
284 1 0.0348073 0.106657 0.0118028 0 0 0 -0.541802 -0.843575 -0.517903 0 -0.000164368 0 0 0 0 0 0 0 0 0 0 0 0 0 0 0 0 0 0 0.002 
169 3 0.0421097 0.107325 0.0105497 0 0 0 -1.889 6.10576 1.46498 -0.428433 0.388594 -0.0916915 0 0 1 0 0 0 0 0 0 0 0 0 0 0 0 0 3 0.002 
87 8 0.0310089 0.107862 0.0123876 0 0 0 -1.13187 -0.134513 -1.74319 0 -0.000164368 0 0 0 0 0 0 0 0 0 0 0 0 0 0 0 0 0 2 0.002 
379 4 0.0188725 0.0750407 0.0146097 0 0 0 -1.26777 -1.0219 -0.554625 0 -0.000164368 0 0 0 0 0 0 0 0 0 0 0 0 0 0 0 0 0 0 0.002 
364 3 0.0234173 0.0932528 0.0146233 0 0 0 -1.63015 -0.38896 -1.78436 0 -0.000164368 0 0 0 0 0 0 0 0 0 0 0 0 0 0 0 0 0 0 0.002 
176 2 0.0421151 0.107144 0.0157537 0 0 0 0.187407 -0.600816 -0.4519 0 -0.000164368 0 0 0 0 0 0 0 0 0 0 0 0 0 0 0 0 0 2 0.002 
163 2 0.0270287 0.106145 0.018454 0 0 0 -0.572476 0.786491 -0.759598 0 -0.000164368 0 0 0 0 0 0 0 0 0 0 0 0 0 0 0 0 0 3 0.002 
296 2 0.0446463 0.0883688 0.0203787 0 0 0 -0.0269232 1.02207 -1.09013 0 -0.000164368 0 0 0 0 0 0 0 0 0 0 0 0 0 0 0 0 0 2 0.002 
245 1 0.0207561 0.0984364 0.0204966 0 0 0 0.103565 4.18393 1.18838 0 -0.000164368 0 0 0 0 0 0 0 0 0 0 0 0 0 0 0 0 0 1 0.002 
435 4 0.0312184 0.101061 0.0214795 0 0 0 -1.12204 -0.156296 1.39117 0 -0.000164368 0 0 0 0 0 0 0 0 0 0 0 0 0 0 0 0 0 0 0.002 
385 7 0.0354758 0.102733 0.0206213 0 0 0 -0.432262 -0.637441 0.401603 0 -0.000164368 0 0 0 0 0 0 0 0 0 0 0 0 0 0 0 0 0 1 0.002 
303 3 0.0449089 0.107018 0.01905 0 0 0 0.124747 -0.600443 0.0243665 0 -0.000164368 0 0 0 0 0 0 0 0 0 0 0 0 0 0 0 0 0 1 0.002 
316 2 0.0247788 0.0887662 0.0229284 0 0 0 -1.82144 0.668692 0.234764 0 -0.000164368 0 0 0 0 0 0 0 0 0 0 0 0 0 0 0 0 0 3 0.002 
313 1 0.0331334 0.0944763 0.0226852 0 0 0 -0.788673 -1.7529 -0.320013 0 -0.000164368 0 0 0 0 0 0 0 0 0 0 0 0 0 0 0 0 0 0 0.002 
378 2 0.0421388 0.095644 0.0231834 0 0 0 -0.0740606 0.0953623 -0.452752 0 -0.000164368 0 0 0 0 0 0 0 0 0 0 0 0 0 0 0 0 0 0 0.002 
362 1 0.0459645 0.0946753 0.0223413 0 0 0 0.268521 0.433251 -0.762888 0 -0.000164368 0 0 0 0 0 0 0 0 0 0 0 0 0 0 0 0 0 0 0.002 
428 8 0.0443672 0.100986 0.0232636 0 0 0 -1.03437 0.134424 0.200153 0 -0.000164368 0 0 0 0 0 0 0 0 0 0 0 0 0 0 0 0 0 0 0.002 
257 6 0.0218935 0.104965 0.0215934 0 0 0 0.62967 -1.61276 -0.46467 0 -0.000164368 0 0 0 0 0 0 0 0 0 0 0 0 0 0 0 0 0 0 0.002 
218 4 0.0377606 0.106957 0.0233728 0 0 0 -0.472203 0.279193 0.122809 0.000891276 -0.00123956 0.0011812 0 0 0 1 0 0 0 0 0 0 0 0 0 0 0 0 4 0.002 
225 4 0.0441664 0.0753293 0.0237658 0 0 0 0.236929 -0.619132 -0.674745 0 -0.000164368 0 0 0 0 0 0 0 0 0 0 0 0 0 0 0 0 0 1 0.002 
338 6 0.0306683 0.0771924 0.0228532 0 0 0 2.29422 -0.962134 -1.71767 0 -0.000164368 0 0 0 0 0 0 0 0 0 0 0 0 0 0 0 0 0 0 0.002 
137 1 0.0354011 0.0772278 0.0241168 0 0 0 -0.968728 -0.691615 -0.289486 0 -0.000164368 0 0 0 0 0 0 0 0 0 0 0 0 0 0 0 0 0 1 0.002 
207 2 0.0342809 0.0821338 0.0243413 0 0 0 1.89802 1.58089 0.6 0 -0.000164368 0 0 0 0 0 0 0 0 0 0 0 0 0 0 0 0 0 3 0.002 
122 5 0.0418469 0.0838734 0.0244596 0 0 0 0.338214 -0.12923 -0.768246 0 -0.000164368 0 0 0 0 0 0 0 0 0 0 0 0 0 0 0 0 0 1 0.002 
254 10 0.0397747 0.0986402 0.0251646 0 0 0 -0.0119434 -0.221732 -0.572547 0 -0.000164368 0 0 0 0 0 0 0 0 0 0 0 0 0 0 0 0 0 4 0.002 
404 6 0.040818 0.104644 0.0244921 0 0 0 -0.397396 0.172859 0.125028 0.000293328 0.00442626 -0.00125964 0 0 0 1 0 1 0 0 0 0 0 0 0 0 0 0 2 0.002 
299 1 0.0469891 0.104429 0.0248353 0 0 0 0.023445 0.108517 -0.187515 0 -0.000164368 0 0 0 0 0 0 0 0 0 0 0 0 0 0 0 0 0 1 0.002 
237 10 0.0296589 0.106217 0.0249726 0 0 0 -0.569356 0.0377177 0.258703 0 -0.000164368 0 0 0 0 0 0 0 0 0 0 0 0 0 0 0 0 0 1 0.002 
131 7 0.0337597 0.107643 0.0237761 0 0 0 -0.40677 0.0875749 0.197149 0 -0.000164368 0 0 0 0 0 0 0 0 0 0 0 0 0 0 0 0 0 1 0.002 
252 6 0.0210284 0.0786844 0.0259524 0 0 0 0.823185 0.0852061 -0.237585 0 -0.000164368 0 0 0 0 0 0 0 0 0 0 0 0 0 0 0 0 0 0 0.002 
4 6 0.0273221 0.0848923 0.0268425 0 0 0 3.38759 0.378737 -0.741298 0 -0.000164368 0 0 0 0 0 0 0 0 0 0 0 0 0 0 0 0 0 3 0.002 
426 3 0.0209321 0.0863376 0.0265757 0 0 0 -0.249051 -1.53148 -0.985077 0 -0.000164368 0 0 0 0 0 0 0 0 0 0 0 0 0 0 0 0 0 0 0.002 
217 2 0.0279789 0.0931273 0.0274809 0 0 0 -0.145666 0.108951 -0.592964 0 -0.000164368 0 0 0 0 0 0 0 0 0 0 0 0 0 0 0 0 0 2 0.002 
9 6 0.0432121 0.0985197 0.0272303 0 0 0 -0.287964 0.377655 0.122383 -0.00529186 0.0191752 -0.0080661 0 0 0 0 0 2 0 0 0 0 0 0 0 0 0 0 5 0.002 
224 5 0.0343825 0.0996001 0.0264423 0 0 0 -0.330717 -1.32552 0.186121 0 -0.000164368 0 0 0 0 0 0 0 0 0 0 0 0 0 0 0 0 0 3 0.002 
354 6 0.0386688 0.10249 0.0275956 0 0 0 -0.741703 -0.0491174 0.270458 0 -0.000164368 0 0 0 0 0 0 0 0 0 0 0 0 0 0 0 0 0 2 0.002 
29 5 0.0275798 0.103801 0.0274798 0 0 0 -0.610208 -0.402467 0.212087 0 -0.000164368 0 0 0 0 0 0 0 0 0 0 0 0 0 0 0 0 0 1 0.002 