ITEM: TIMESTEP
5050000
ITEM: NUMBER OF ATOMS
613
ITEM: BOX BOUNDS ff ff ff
-0.01 0.45
-0.15 0.15
-0.08 0.1
ITEM: ATOMS id type x y z ix iy iz vx vy vz fx fy fz c_cc_1 c_cc_2 c_cc_3 c_cc_4 c_cc_5 c_cc_6 c_cc_7 c_cc_8 c_cc_9 c_cc_10 c_cc_11 c_cc_12 c_cc_13 c_cc_14 c_cc_15 c_cc_16 f_fppacc radius 
182 2 0.0147955 -0.0553153 0.0164622 0 0 0 0.489215 2.71535 11.2245 0 -0.000164368 0 0 0 0 0 0 0 0 0 0 0 0 0 0 0 0 0 3 0.002 
371 3 0.00429141 -0.010145 -0.0516393 0 0 0 -0.871841 -4.64732 -2.60463 0 -0.000164368 0 0 0 0 0 0 0 0 0 0 0 0 0 0 0 0 0 2 0.002 
199 4 0.00613144 0.0201219 -0.0444807 0 0 0 -0.134773 -5.39774 -18.0397 0 -0.000164368 0 0 0 0 0 0 0 0 0 0 0 0 0 0 0 0 0 10 0.002 
423 3 0.00973666 0.0332721 0.0468929 0 0 0 -2.73452 9.97949 -10.5735 0 -0.000164368 0 0 0 0 0 0 0 0 0 0 0 0 0 0 0 0 0 2 0.002 
250 5 0.0126462 0.0186783 0.0547781 0 0 0 -24.4644 53.0294 -18.5398 -0.136604 0.39324 0.216163 0 0 0 0 0 0 0 0 0 0 0 0 0 0 0 0 11 0.002 
41 1 0.0151325 0.0528518 -0.0355 0 0 0 -1.63993e-189 -1.01485e-19 6.17499e-12 -3.5912e-189 0 0 0 0 0 0 0 0 0 0 0 0 0 0 0 0 0 0 1 0.002 
235 3 0.00484233 0.0726102 -0.0324571 0 0 0 -0.835476 -1.98587 -1.35941 0 -0.000164368 0 0 0 0 0 0 0 0 0 0 0 0 0 0 0 0 0 4 0.002 
519 1 0.00539919 0.0485379 -0.0309503 0 0 0 -0.0633294 -1.78735 0.298769 0 -0.000164368 0 0 0 0 0 0 0 0 0 0 0 0 0 0 0 0 0 0 0.002 
257 6 0.013719 0.0710029 -0.028372 0 0 0 -0.0613574 -1.02619 0.863831 0 -0.000164368 0 0 0 0 0 0 0 0 0 0 0 0 0 0 0 0 0 2 0.002 
140 4 0.0136544 0.0715721 0.00770976 0 0 0 0.505955 0.365886 -1.46608 0 -0.000164368 0 0 0 0 0 0 0 0 0 0 0 0 0 0 0 0 0 4 0.002 
55 4 0.0103437 0.0443834 -0.0204684 0 0 0 -11.2894 -8.59686 -10.1627 0 -0.000164368 0 0 0 0 0 0 0 0 0 0 0 0 0 0 0 0 0 7 0.002 
512 7 0.0129305 0.0503499 -0.00935156 0 0 0 -2.21312 -3.4739 8.68123 0 -0.000164368 0 0 0 0 0 0 0 0 0 0 0 0 0 0 0 0 0 1 0.002 
613 2 0.0060247 0.0525808 -0.00966288 0 0 0 0.862575 -4.03562 4.1829 0 -0.000164368 0 0 0 0 0 0 0 0 0 0 0 0 0 0 0 0 0 1 0.002 
448 2 0.0185992 0.0617926 -0.00883371 0 0 0 0.409748 -1.09765 5.21433 0 -0.000164368 0 0 0 0 0 0 0 0 0 0 0 0 0 0 0 0 0 1 0.002 
430 4 0.0105334 0.0433215 -0.00992886 0 0 0 0.528472 -1.33495 0.35533 0 -0.000164368 0 0 0 0 0 0 0 0 0 0 0 0 0 0 0 0 0 1 0.002 
29 5 0.0164707 0.0494262 -0.02059 0 0 0 5.8572 4.88126 -19.9023 0 -0.000164368 0 0 0 0 0 0 0 0 0 0 0 0 0 0 0 0 0 8 0.002 
447 1 0.00938358 0.0642896 0.00934517 0 0 0 -1.08148 0.341005 -4.01778 0 -0.000164368 0 0 0 0 0 0 0 0 0 0 0 0 0 0 0 0 0 3 0.002 
591 9 0.00958103 0.0573291 0.0120052 0 0 0 -0.632116 0.43299 3.72724 0 -0.000164368 0 0 0 0 0 0 0 0 0 0 0 0 0 0 0 0 0 0 0.002 
334 2 0.0185238 0.0626733 0.032985 0 0 0 -0.495715 -0.803952 0.311234 0 -0.000164368 0 0 0 0 0 0 0 0 0 0 0 0 0 0 0 0 0 6 0.002 
414 7 0.014572 0.0667683 0.0136594 0 0 0 -0.285247 1.37093 -2.86025 0 -0.000164368 0 0 0 0 0 0 0 0 0 0 0 0 0 0 0 0 0 3 0.002 
495 8 0.0127885 0.0745579 0.0163305 0 0 0 0.462216 1.49842 -1.49237 -0.0292826 0.0297322 -0.0196494 0 0 0 0 0 0 0 1 0 0 0 0 0 0 0 0 5 0.002 
211 2 0.00426783 0.0670424 0.0187715 0 0 0 -0.149087 0.354832 -0.684322 0 -0.000164368 0 0 0 0 0 0 0 0 0 0 0 0 0 0 0 0 0 6 0.002 
261 1 0.00992648 0.0665064 0.0228236 0 0 0 0.139992 -0.357744 -0.324619 0 -0.000164368 0 0 0 0 0 0 0 0 0 0 0 0 0 0 0 0 0 4 0.002 
606 4 0.0173563 0.0722357 0.0232638 0 0 0 0.281951 0.507971 0.119897 0 -0.000164368 0 0 0 0 0 0 0 0 0 0 0 0 0 0 0 0 0 0 0.002 
16 3 0.00317952 0.0690566 0.0240016 0 0 0 0.358867 0.348481 -0.0111436 0 -0.000164368 0 0 0 0 0 0 0 0 0 0 0 0 0 0 0 0 0 11 0.002 
156 4 0.00854567 0.0714899 0.0258221 0 0 0 0.884394 -1.28463 0.576131 0 -0.000164368 0 0 0 0 0 0 0 0 0 0 0 0 0 0 0 0 0 4 0.002 
288 1 0.00303041 0.0737706 0.0255837 0 0 0 0.00806968 0.212573 -0.118985 0 -0.000164368 0 0 0 0 0 0 0 0 0 0 0 0 0 0 0 0 0 2 0.002 
254 10 0.00816678 0.0603834 0.0227263 0 0 0 -2.58879 14.7457 -9.45799 0 -0.000164368 0 0 0 0 0 0 0 0 0 0 0 0 0 0 0 0 0 13 0.002 
480 3 0.00829264 0.0627967 0.0265669 0 0 0 0.0779605 -0.385512 -0.114846 0 -0.000164368 0 0 0 0 0 0 0 0 0 0 0 0 0 0 0 0 0 7 0.002 
536 2 0.00313849 0.0650078 0.0267691 0 0 0 0.049811 -0.699384 0.137389 0 -0.000164368 0 0 0 0 0 0 0 0 0 0 0 0 0 0 0 0 0 3 0.002 
329 7 0.00444472 0.0700819 0.0277026 0 0 0 0.053393 -0.0968845 -0.207479 0 -0.000164368 0 0 0 0 0 0 0 0 0 0 0 0 0 0 0 0 0 4 0.002 
72 3 0.0168328 0.0733366 0.0272432 0 0 0 0.354769 1.8452 -0.653852 0 -0.000164368 0 0 0 0 0 0 0 0 0 0 0 0 0 0 0 0 0 5 0.002 
102 1 0.0129902 0.0493967 0.0233443 0 0 0 6.43975 -0.540224 -11.6199 0 -0.000164368 0 0 0 0 0 0 0 0 0 0 0 0 0 0 0 0 0 7 0.002 
531 1 0.0181994 0.0592805 0.0298878 0 0 0 -0.920308 -0.99243 -0.400612 0 -0.000164368 0 0 0 0 0 0 0 0 0 0 0 0 0 0 0 0 0 4 0.002 
444 3 0.00957317 0.0383679 0.0389925 0 0 0 6.4903 -3.22118 15.9159 0 -0.000164368 0 0 0 0 0 0 0 0 0 0 0 0 0 0 0 0 0 2 0.002 
208 9 0.0132872 0.0672376 0.0326705 0 0 0 -1.48467 0.122703 0.414466 0 -0.000164368 0 0 0 0 0 0 0 0 0 0 0 0 0 0 0 0 0 12 0.002 
309 1 0.00299334 0.0727676 0.0324251 0 0 0 0.0388186 0.308999 -0.127633 0.00664762 0.000824484 -0.00432372 1 0 0 0 0 0 0 0 0 0 0 0 0 0 0 0 7 0.002 
393 11 0.0066845 0.0728466 0.0308876 0 0 0 0.072085 0.354839 -0.338484 -0.00171742 -0.000523626 0.00194037 1 0 0 0 0 0 0 0 0 0 0 0 0 0 0 0 8 0.002 
584 8 0.0176987 0.0736834 0.0319737 0 0 0 1.25935 0.762068 -0.214376 0 -0.000164368 0 0 0 0 0 0 0 0 0 0 0 0 0 0 0 0 0 1 0.002 
453 3 0.00551054 0.0689452 0.0329034 0 0 0 0.855541 0.282043 0.201059 0 -0.000164368 0 0 0 0 0 0 0 0 0 0 0 0 0 0 0 0 0 1 0.002 
73 3 0.0138038 0.0721307 0.0326004 0 0 0 0.513238 0.700086 -0.0961954 0 -0.000164368 0 0 0 0 0 0 0 0 0 0 0 0 0 0 0 0 0 4 0.002 
338 6 0.00367498 0.085698 -0.0320775 0 0 0 -1.03416 -1.92855 0.665912 0 -0.000164368 0 0 0 0 0 0 0 0 0 0 0 0 0 0 0 0 0 1 0.002 
472 3 0.00462686 0.0986161 -0.0313463 0 0 0 -0.217987 7.58251 5.03198 0 -0.000164368 0 0 0 0 0 0 0 0 0 0 0 0 0 0 0 0 0 3 0.002 
344 1 0.00736791 0.108172 -0.0287001 0 0 0 4.5856 -3.19302 5.34042 -0.0820149 -0.065189 -0.244786 1 0 0 0 0 0 0 0 0 0 0 0 0 0 0 0 10 0.002 
195 7 0.00558171 0.0883353 -0.0291672 0 0 0 0.0520185 -2.47141 1.58736 0 -0.000164368 0 0 0 0 0 0 0 0 0 0 0 0 0 0 0 0 0 5 0.002 
290 2 0.0123865 0.0926896 -0.0296488 0 0 0 -0.256765 3.06429 2.21063 0 -0.000164368 0 0 0 0 0 0 0 0 0 0 0 0 0 0 0 0 0 12 0.002 
375 4 0.00982301 0.0879422 -0.0264771 0 0 0 -0.158087 -1.17171 0.0853953 0 -0.000164368 0 0 0 0 0 0 0 0 0 0 0 0 0 0 0 0 0 3 0.002 
149 7 0.00582764 0.106665 -0.0256065 0 0 0 0.752691 -0.35686 5.92448 -0.0186367 -0.387083 0.447104 1 0 0 0 0 0 0 0 0 0 0 0 0 0 0 0 19 0.002 
96 2 0.0177755 0.1067 -0.0263977 0 0 0 1.57635 1.47014 -1.57631 0 -0.000164368 0 0 0 0 0 0 0 0 0 0 0 0 0 0 0 0 0 6 0.002 
332 2 0.00707805 0.0933735 -0.0230859 0 0 0 -2.56486 2.57615 -1.56081 0 -0.000164368 0 0 0 0 0 0 0 0 0 0 0 0 0 0 0 0 0 9 0.002 
420 3 0.0087407 0.0944828 -0.0154476 0 0 0 1.10265 -1.50568 0.34469 0 -0.000164368 0 0 0 0 0 0 0 0 0 0 0 0 0 0 0 0 0 1 0.002 
442 7 0.0144853 0.0838278 -0.0153638 0 0 0 1.53454 4.98549 -6.50521 0 -0.000164368 0 0 0 0 0 0 0 0 0 0 0 0 0 0 0 0 0 3 0.002 
397 3 0.0143102 0.0902015 -0.00576565 0 0 0 0.615417 -1.18101 -0.450407 0 -0.000164368 0 0 0 0 0 0 0 0 0 0 0 0 0 0 0 0 0 5 0.002 
593 1 0.0067832 0.0784843 1.56424e-05 0 0 0 -0.0623488 -3.17706 0.340701 0 -0.000164368 0 0 0 0 0 0 0 0 0 0 0 0 0 0 0 0 0 0 0.002 
464 6 0.0142318 0.101373 0.00219091 0 0 0 0.802142 -0.708585 -1.26563 0 -0.000164368 0 0 0 0 0 0 0 0 0 0 0 0 0 0 0 0 0 1 0.002 
348 6 0.0112298 0.0778793 0.00536494 0 0 0 -1.06618 1.03049 -1.15571 0 -0.000164368 0 0 0 0 0 0 0 0 0 0 0 0 0 0 0 0 0 4 0.002 
533 4 0.00360845 0.0793729 0.0119229 0 0 0 0.181452 -1.27188 0.577787 0 -0.000164368 0 0 0 0 0 0 0 0 0 0 0 0 0 0 0 0 0 5 0.002 
339 4 0.0145237 0.0780456 0.0122543 0 0 0 0.330474 0.120167 -0.740613 0 -0.000164368 0 0 0 0 0 0 0 0 0 0 0 0 0 0 0 0 0 4 0.002 
534 13 0.00789365 0.0856173 0.0135236 0 0 0 0.186119 -0.639457 -0.130127 0 -0.000164368 0 0 0 0 0 0 0 0 0 0 0 0 0 0 0 0 0 1 0.002 
242 6 0.0104323 0.105925 0.0136143 0 0 0 -1.83438 -0.691308 -1.19429 0 -0.000164368 0 0 0 0 0 0 0 0 0 0 0 0 0 0 0 0 0 8 0.002 
597 6 0.00935773 0.0759158 0.0148506 0 0 0 -1.09514 1.30759 -1.27579 0.0292826 -0.0300609 0.0196494 0 0 0 0 0 1 0 0 0 0 0 0 0 0 0 0 1 0.002 
70 6 0.00351926 0.0813033 0.020943 0 0 0 -0.449216 -0.0651688 -0.502256 0 -0.000164368 0 0 0 0 0 0 0 0 0 0 0 0 0 0 0 0 0 6 0.002 
465 4 0.0171724 0.0848272 0.0192059 0 0 0 -0.599514 -0.293535 -0.0993094 0 -0.000164368 0 0 0 0 0 0 0 0 0 0 0 0 0 0 0 0 0 6 0.002 
8 5 0.00405805 0.0880446 0.0208983 0 0 0 -0.236698 0.270204 -0.160185 0 -0.000164368 0 0 0 0 0 0 0 0 0 0 0 0 0 0 0 0 0 3 0.002 
77 12 0.0146259 0.0841547 0.0236899 0 0 0 0.227946 -0.934267 1.0027 0 -0.000164368 0 0 0 0 0 0 0 0 0 0 0 0 0 0 0 0 0 7 0.002 
381 2 0.00459025 0.0903076 0.0108914 0 0 0 0.431389 -1.43707 2.69368 0 -0.000164368 0 0 0 0 0 0 0 0 0 0 0 0 0 0 0 0 0 8 0.002 
343 2 0.00313077 0.093197 0.0214705 0 0 0 0.102241 -0.162127 -0.363238 0 -0.000164368 0 0 0 0 0 0 0 0 0 0 0 0 0 0 0 0 0 1 0.002 
578 2 0.0067204 0.101868 0.021837 0 0 0 -0.025037 -1.4417 0.703652 0 -0.000164368 0 0 0 0 0 0 0 0 0 0 0 0 0 0 0 0 0 0 0.002 
295 2 0.00299599 0.103628 0.0221005 0 0 0 0.00605882 -0.524495 0.314912 0.00347344 -0.00182303 -0.000514824 0 0 0 0 0 0 0 0 0 0 0 0 0 0 0 0 1 0.002 
619 6 0.00536439 0.107406 0.0234527 0 0 0 -0.43691 -0.256471 0.604313 0 -0.000164368 0 0 0 0 0 0 0 0 0 0 0 0 0 0 0 0 0 0 0.002 
428 8 0.00315285 0.0840016 0.0254776 0 0 0 0.0260356 -0.447112 0.471157 0 -0.000164368 0 0 0 0 0 0 0 0 0 0 0 0 0 0 0 0 0 2 0.002 
515 5 0.00334696 0.0898268 0.0250096 0 0 0 0.325505 0.290864 -0.0609546 0 -0.000164368 0 0 0 0 0 0 0 0 0 0 0 0 0 0 0 0 0 4 0.002 
144 9 0.00744943 0.0897733 0.0236176 0 0 0 0.16651 0.916759 -1.03439 0 -0.000164368 0 0 0 0 0 0 0 0 0 0 0 0 0 0 0 0 0 9 0.002 
475 2 0.0167876 0.107808 0.0252115 0 0 0 0.0524197 -0.0814754 -0.281539 0 -0.000164368 0 0 0 0 0 0 0 0 0 0 0 0 0 0 0 0 0 0 0.002 
112 6 0.00356282 0.0778079 0.0263379 0 0 0 0.115061 0.266152 0.150589 0 -0.000164368 0 0 0 0 0 0 0 0 0 0 0 0 0 0 0 0 0 6 0.002 
548 4 0.011502 0.0790051 0.0266029 0 0 0 -0.374168 -1.57526 0.92733 0 -0.000164368 0 0 0 0 0 0 0 0 0 0 0 0 0 0 0 0 0 0 0.002 
34 3 0.00608566 0.0925822 0.0264401 0 0 0 0.183075 0.0177468 0.177368 0 -0.000164368 0 0 0 0 0 0 0 0 0 0 0 0 0 0 0 0 0 5 0.002 
622 4 0.0134433 0.0912891 0.0277574 0 0 0 -1.47265 -1.86425 3.27394 0 -0.000164368 0 0 0 0 0 0 0 0 0 0 0 0 0 0 0 0 0 0 0.002 
566 3 0.00299874 0.0985161 0.0270547 0 0 0 0.0374659 -0.181174 -0.100839 -0.00156351 -0.00034138 -0.000211473 0 0 0 0 0 0 0 0 0 0 0 0 0 0 0 0 0 0.002 
231 7 0.00421349 0.102471 0.0257828 0 0 0 0.094527 -0.366767 0.030769 0 -0.000164368 0 0 0 0 0 0 0 0 0 0 0 0 0 0 0 0 0 5 0.002 
178 10 0.0100221 0.101624 0.0273565 0 0 0 0.299634 -0.633268 -0.133264 0 -0.000164368 0 0 0 0 0 0 0 0 0 0 0 0 0 0 0 0 0 5 0.002 
391 4 0.00769831 0.10464 0.0259641 0 0 0 -0.134375 -0.319452 -0.0132738 0 -0.000164368 0 0 0 0 0 0 0 0 0 0 0 0 0 0 0 0 0 6 0.002 
350 8 0.014002 0.103828 0.0264764 0 0 0 -0.394535 -0.313222 -0.542229 0 -0.000164368 0 0 0 0 0 0 0 0 0 0 0 0 0 0 0 0 0 1 0.002 
557 5 0.0135878 0.0754379 0.0283727 0 0 0 -0.870501 1.07417 0.552834 0 -0.000164368 0 0 0 0 0 0 0 0 0 0 0 0 0 0 0 0 0 0 0.002 
479 9 0.00672757 0.0810936 0.0283762 0 0 0 -0.472795 -0.146012 -0.565587 0 -0.000164368 0 0 0 0 0 0 0 0 0 0 0 0 0 0 0 0 0 4 0.002 
417 1 0.0147039 0.08219 0.028816 0 0 0 0.669181 0.728942 0.0506291 0 -0.000164368 0 0 0 0 0 0 0 0 0 0 0 0 0 0 0 0 0 6 0.002 
377 4 0.00314239 0.089666 0.0290826 0 0 0 0.0636192 -0.047504 0.0276919 0 -0.000164368 0 0 0 0 0 0 0 0 0 0 0 0 0 0 0 0 0 6 0.002 
316 2 0.00905051 0.0904602 0.0281136 0 0 0 0.175966 -0.452571 -0.639011 0 -0.000164368 0 0 0 0 0 0 0 0 0 0 0 0 0 0 0 0 0 7 0.002 
324 5 0.00298623 0.0940846 0.0284806 0 0 0 -0.0394301 0.0145979 0.185969 0.0295612 0.0146136 0.000277064 0 0 0 0 0 0 0 0 0 0 0 0 0 0 0 0 4 0.002 
431 5 0.0105619 0.0941566 0.0277083 0 0 0 0.434232 -0.663013 -0.755118 0 -0.000164368 0 0 0 0 0 0 0 0 0 0 0 0 0 0 0 0 0 5 0.002 
193 8 0.00645623 0.0997978 0.0286652 0 0 0 0.149148 -0.486562 -0.111753 0 -0.000164368 0 0 0 0 0 0 0 0 0 0 0 0 0 0 0 0 0 11 0.002 
357 7 0.00305403 0.10319 0.0297562 0 0 0 0.0076906 -0.32534 0.041305 0 -0.000164368 0 0 0 0 0 0 0 0 0 0 0 0 0 0 0 0 0 5 0.002 
161 8 0.00476858 0.107565 0.0279896 0 0 0 -0.269642 -0.151164 -0.627672 0 -0.000164368 0 0 0 0 0 0 0 0 0 0 0 0 0 0 0 0 0 8 0.002 
588 16 0.016999 0.107914 0.0292175 0 0 0 -0.183975 -0.0430488 -0.228526 0 -0.000164368 0 0 0 0 0 0 0 0 0 0 0 0 0 0 0 0 0 2 0.002 
468 8 0.00383008 0.0793424 0.0305685 0 0 0 -0.408636 -0.0256991 -0.178914 0.00124738 0.00933075 -0.00476926 0 0 0 0 0 0 0 1 0 0 0 0 0 0 0 0 6 0.002 
224 5 0.00625802 0.0844612 0.031197 0 0 0 0.225605 -0.0927606 0.346786 0 -0.000164368 0 0 0 0 0 0 0 0 0 0 0 0 0 0 0 0 0 9 0.002 
331 7 0.0172664 0.0868149 0.0305905 0 0 0 0.0623463 -0.580624 -0.278604 0 -0.000164368 0 0 0 0 0 0 0 0 0 0 0 0 0 0 0 0 0 8 0.002 
383 6 0.0134091 0.0899532 0.032455 0 0 0 0.281679 -0.331569 -0.0657802 0 -0.000164368 0 0 0 0 0 0 0 0 0 0 0 0 0 0 0 0 0 1 0.002 
525 1 0.0161928 0.0960549 0.0310312 0 0 0 0.785059 -0.902957 -0.31121 0 -0.000164368 0 0 0 0 0 0 0 0 0 0 0 0 0 0 0 0 0 1 0.002 
543 1 0.00318811 0.0996242 0.0321811 0 0 0 0.0472733 -0.0703113 -0.1199 0 -0.000164368 0 0 0 0 0 0 0 0 0 0 0 0 0 0 0 0 0 0 0.002 
389 5 0.0170385 0.102229 0.0311511 0 0 0 -0.41757 -0.34989 -0.0636681 0 -0.000164368 0 0 0 0 0 0 0 0 0 0 0 0 0 0 0 0 0 5 0.002 
477 2 0.00300405 0.106556 0.032409 0 0 0 0.0245585 -0.0857042 -0.150632 0 -0.000164368 0 0 0 0 0 0 0 0 0 0 0 0 0 0 0 0 0 3 0.002 
395 6 0.00999352 0.105958 0.030812 0 0 0 -0.207264 -0.339118 -0.0895554 0 -0.000164368 0 0 0 0 0 0 0 0 0 0 0 0 0 0 0 0 0 0 0.002 
200 9 0.005006 0.0763628 0.0329367 0 0 0 -0.146775 0.167805 0.00748126 -0.00124738 -0.00965949 0.00476926 0 0 0 0 0 0 0 1 0 0 0 0 0 0 0 0 9 0.002 
297 3 0.0135654 0.0763513 0.0327723 0 0 0 -0.360006 0.0725822 -0.10379 0 -0.000164368 0 0 0 0 0 0 0 0 0 0 0 0 0 0 0 0 0 11 0.002 
221 16 0.00892446 0.0781656 0.0328214 0 0 0 0.317811 0.0173547 0.243757 0 -0.000164368 0 0 0 0 0 0 0 0 0 0 0 0 0 0 0 0 0 3 0.002 
300 1 0.00302637 0.082551 0.0328597 0 0 0 -0.00413119 -0.202878 0.116841 0 -0.000164368 0 0 0 0 0 0 0 0 0 0 0 0 0 0 0 0 0 4 0.002 
460 2 0.00340136 0.0874531 0.0329883 0 0 0 0.216616 -0.0691973 -0.0495736 0 -0.000164368 0 0 0 0 0 0 0 0 0 0 0 0 0 0 0 0 0 7 0.002 
229 6 0.00300844 0.091436 0.0328696 0 0 0 0.00461174 -0.0645365 0.0109965 0 -0.000164368 0 0 0 0 0 0 0 0 0 0 0 0 0 0 0 0 0 11 0.002 
322 2 0.0036494 0.0953941 0.032767 0 0 0 0.0970575 -0.0857434 -0.0489733 0 -0.000164368 0 0 0 0 0 0 0 0 0 0 0 0 0 0 0 0 0 8 0.002 
311 2 0.00837107 0.102517 0.0326536 0 0 0 0.144065 -0.68634 0.010277 0 -0.000164368 0 0 0 0 0 0 0 0 0 0 0 0 0 0 0 0 0 6 0.002 
514 8 0.014616 0.10735 0.0329669 0 0 0 -0.0100436 -0.0891907 0.0389956 0 -0.000164368 0 0 0 0 0 0 0 0 0 0 0 0 0 0 0 0 0 0 0.002 
146 9 0.0474157 -0.0409776 -0.00453502 0 0 0 3.46284e-05 -9.07003 81.9551 -1.04993e-06 2.74634 0.303939 0 0 0 0 0 0 0 0 0 0 0 0 0 0 0 0 0 0.002 
535 3 0.0297834 -0.0510928 0.0271915 0 0 0 -5.00775 12.93 28.6277 0.389585 0.401708 -0.175834 0 0 0 0 0 0 0 0 0 0 0 0 0 0 0 0 2 0.002 
540 4 0.0306282 -0.00277057 0.0578015 0 0 0 -19.6235 53.8813 1.72832 -0.106077 0.260089 0.286713 0 0 0 0 0 0 0 0 0 0 0 0 0 0 0 0 5 0.002 
599 6 0.0397475 0.00689246 -0.0554247 0 0 0 0.259823 -15.7158 8.62249 0 -0.000164368 0 0 0 0 0 0 0 0 0 0 0 0 0 0 0 0 0 0 0.002 
624 7 0.02751 0.0154643 -0.0350547 0 0 0 6.4783 -30.4835 -32.4141 0 -0.000164368 0 0 0 0 0 0 0 0 0 0 0 0 0 0 0 0 0 0 0.002 
580 5 0.0309814 0.00730599 0.0572327 0 0 0 -3.48093 17.974 -2.62547 0 -0.000164368 0 0 0 0 0 0 0 0 0 0 0 0 0 0 0 0 0 2 0.002 
294 1 0.0347034 0.0278127 0.0505611 0 0 0 2.64001 19.7155 -11.1811 0 -0.000164368 0 0 0 0 0 0 0 0 0 0 0 0 0 0 0 0 0 6 0.002 
270 1 0.0202959 0.0512097 -0.0355 0 0 0 2.35826e-188 1.01762e-19 -5.66833e-13 -5.04341e-189 0 0 0 0 0 0 0 0 0 0 0 0 0 0 0 0 0 0 0 0.002 
79 1 0.0426879 0.0514905 -0.0355094 0 0 0 -2.35322e-14 3.34586e-14 -4.9766e-15 6.66134e-15 -7.66054e-15 3.55271e-15 1 0 0 0 0 0 0 0 0 0 0 0 0 0 0 0 13 0.002 
127 3 0.0250784 0.0534205 -0.0355 0 0 0 5.24728e-215 2.01815e-20 -4.47964e-12 -1.36781e-214 0 0 0 0 0 0 0 0 0 0 0 0 0 0 0 0 0 0 2 0.002 
45 4 0.0455379 0.0535742 -0.0354906 0 0 0 2.35579e-14 -3.34129e-14 5.02155e-15 -6.66134e-15 7.82707e-15 0 1 0 0 0 0 0 0 0 0 0 0 0 0 0 0 0 15 0.002 
276 4 0.0334432 0.0547355 -0.0355 0 0 0 1.88345e-51 -8.09281e-20 -6.72686e-12 -4.4992e-51 0 0 0 0 0 0 0 0 0 0 0 0 0 0 0 0 0 0 0 0.002 
48 3 0.0234945 0.0573341 -0.0355 0 0 0 2.22544e-308 -8.12999e-20 -5.61327e-12 1.1379e-306 0 3.55271e-15 0 0 0 0 0 0 0 0 0 0 0 0 0 0 0 0 0 0.002 
52 2 0.0282399 0.0584481 -0.0355 0 0 0 0 -6.08036e-20 -3.93778e-12 -0 0 0 0 0 0 0 0 0 0 0 0 0 0 0 0 0 0 0 0 0.002 
351 1 0.0418673 0.0567036 -0.0355 0 0 0 -1.29332e-119 -3.04376e-19 -3.92784e-12 8.69423e-120 1.35525e-20 0 0 0 0 0 0 0 0 0 0 0 0 0 0 0 0 0 0 0.002 
39 3 0.0456802 0.0647312 -0.0355 0 0 0 3.65187e-63 2.43809e-19 -1.11865e-12 -9.35025e-64 0 0 0 0 0 0 0 0 0 0 0 0 0 0 0 0 0 0 0 0.002 
318 4 0.0453045 0.0733646 -0.0288378 0 0 0 -0.0141618 3.84009 4.62695 0 -0.000164368 0 0 0 0 0 0 0 0 0 0 0 0 0 0 0 0 0 1 0.002 
280 6 0.0191951 0.0719842 -0.0265027 0 0 0 1.14168 -2.36541 0.478163 0 -0.000164368 0 0 0 0 0 0 0 0 0 0 0 0 0 0 0 0 0 5 0.002 
181 6 0.0255538 0.0717616 0.0072601 0 0 0 -0.34878 -0.077636 -1.23399 0 -0.000164368 0 0 0 0 0 0 0 0 0 0 0 0 0 0 0 0 0 4 0.002 
134 2 0.0292959 0.0726453 -0.00376884 0 0 0 -1.02745 -7.22767 15.7131 0 -0.000164368 0 0 0 0 0 0 0 0 0 0 0 0 0 0 0 0 0 0 0.002 
272 2 0.0330353 0.0736836 -0.0207347 0 0 0 -4.97368 4.35702 4.32893 0 -0.000164368 0 0 0 0 0 0 0 0 0 0 0 0 0 0 0 0 0 2 0.002 
167 2 0.0364323 0.0651955 -0.0220913 0 0 0 -4.90516 -2.89878 -3.67771 0.134577 0.161601 -0.159934 0 0 0 0 0 0 0 0 0 0 0 0 0 0 0 0 3 0.002 
522 2 0.0347398 0.0642465 -0.0186999 0 0 0 -3.95461 -0.669819 -3.79972 -0.134577 -0.161929 0.159934 0 0 0 0 0 0 0 0 0 0 0 0 0 0 0 0 6 0.002 
20 3 0.0241576 0.0667298 -0.0158396 0 0 0 -1.35411 1.62174 3.03134 0 -0.000164368 0 0 0 0 0 0 0 0 0 0 0 0 0 0 0 0 0 7 0.002 
188 6 0.0330322 0.0687478 -0.014809 0 0 0 -4.96882 1.65045 -2.23979 0 -0.000164368 0 0 0 0 0 0 0 0 0 0 0 0 0 0 0 0 0 10 0.002 
269 2 0.0395255 0.0724945 -0.00889683 0 0 0 2.93097 -1.08186 1.38774 0 -0.000164368 0 0 0 0 0 0 0 0 0 0 0 0 0 0 0 0 0 6 0.002 
365 10 0.0197216 0.0618453 -0.00450756 0 0 0 -0.311972 0.877642 3.41902 0 -0.000164368 0 0 0 0 0 0 0 0 0 0 0 0 0 0 0 0 0 2 0.002 
405 3 0.0220451 0.0742991 -0.00546716 0 0 0 1.39437 1.20296 -2.49277 0 -0.000164368 0 0 0 0 0 0 0 0 0 0 0 0 0 0 0 0 0 4 0.002 
401 3 0.0280145 0.0567277 -0.00354652 0 0 0 -0.909713 -1.79687 -0.583074 0 -0.000164368 0 0 0 0 0 0 0 0 0 0 0 0 0 0 0 0 0 2 0.002 
268 5 0.0266519 0.0643321 0.0047902 0 0 0 -0.39852 -0.684481 -1.38293 0 -0.000164368 0 0 0 0 0 0 0 0 0 0 0 0 0 0 0 0 0 3 0.002 
95 5 0.0436411 0.0736004 0.0115919 0 0 0 0.723032 -0.537282 -0.211178 0 -0.000164368 0 0 0 0 0 0 0 0 0 0 0 0 0 0 0 0 0 7 0.002 
5 3 0.0279685 0.0564081 0.0137361 0 0 0 0.726124 -0.342814 -0.607665 0 -0.000164368 0 0 0 0 0 0 0 0 0 0 0 0 0 0 0 0 0 1 0.002 
172 5 0.0332795 0.0665564 0.0120661 0 0 0 -1.46696 -0.0595593 -0.966798 0 -0.000164368 0 0 0 0 0 0 0 0 0 0 0 0 0 0 0 0 0 5 0.002 
4 6 0.0344864 0.0612397 0.0159958 0 0 0 1.16782 -3.30093 0.0296428 0 -0.000164368 0 0 0 0 0 0 0 0 0 0 0 0 0 0 0 0 0 4 0.002 
470 8 0.0197992 0.0613568 0.0162222 0 0 0 -0.553813 -0.321721 -1.40662 0 -0.000164368 0 0 0 0 0 0 0 0 0 0 0 0 0 0 0 0 0 4 0.002 
446 9 0.0260669 0.0627974 0.0166813 0 0 0 0.9714 -0.826248 -1.83051 0 -0.000164368 0 0 0 0 0 0 0 0 0 0 0 0 0 0 0 0 0 3 0.002 
159 2 0.0326604 0.0747518 0.0276576 0 0 0 -0.376847 -0.827968 1.56862 0 -0.000164368 0 0 0 0 0 0 0 0 0 0 0 0 0 0 0 0 0 1 0.002 
482 4 0.0438724 0.0745321 0.016783 0 0 0 0.123167 -0.0533477 -0.369755 0 -0.000164368 0 0 0 0 0 0 0 0 0 0 0 0 0 0 0 0 0 0 0.002 
553 7 0.0198486 0.0555465 0.0194719 0 0 0 0.260186 -0.836628 -0.386731 0 -0.000164368 0 0 0 0 0 0 0 0 0 0 0 0 0 0 0 0 0 1 0.002 
456 8 0.0435711 0.0692983 0.0203964 0 0 0 -0.133192 -0.383644 -0.108364 0 -0.000164368 0 0 0 0 0 0 0 0 0 0 0 0 0 0 0 0 0 0 0.002 
368 5 0.030173 0.0659462 0.0214563 0 0 0 1.69376 -3.17292 -1.23742 0 -0.000164368 0 0 0 0 0 0 0 0 0 0 0 0 0 0 0 0 0 1 0.002 
621 4 0.0397985 0.0748565 0.0179426 0 0 0 0.645806 -0.605233 0.838095 0 -0.000164368 0 0 0 0 0 0 0 0 0 0 0 0 0 0 0 0 0 0 0.002 
263 2 0.0470919 0.0740427 0.0228493 0 0 0 -0.145394 -0.355865 0.037457 0 -0.000164368 0 0 0 0 0 0 0 0 0 0 0 0 0 0 0 0 0 3 0.002 
245 1 0.0242715 0.0620396 0.0235525 0 0 0 0.402527 -0.00430795 0.00372746 0 -0.000164368 0 0 0 0 0 0 0 0 0 0 0 0 0 0 0 0 0 7 0.002 
308 1 0.0304412 0.0718929 0.023601 0 0 0 -3.6756 4.92093 -1.32139 0 -0.000164368 0 0 0 0 0 0 0 0 0 0 0 0 0 0 0 0 0 10 0.002 
194 2 0.0219759 0.0728021 0.0247907 0 0 0 -1.05894 -2.23421 1.94546 0 -0.000164368 0 0 0 0 0 0 0 0 0 0 0 0 0 0 0 0 0 9 0.002 
216 2 0.0225034 0.0617751 0.0273643 0 0 0 0.99232 -0.498066 0.505718 -0.0494531 0.0365384 -0.0472063 0 1 0 0 0 0 0 0 0 0 0 0 0 0 0 0 8 0.002 
287 6 0.0447823 0.0633318 0.0270086 0 0 0 0.0137775 -0.676183 -0.842097 0 -0.000164368 0 0 0 0 0 0 0 0 0 0 0 0 0 0 0 0 0 5 0.002 
218 4 0.0224841 0.0665301 0.0279625 0 0 0 0.0765692 0.517222 0.16247 0 -0.000164368 0 0 0 0 0 0 0 0 0 0 0 0 0 0 0 0 0 8 0.002 
236 3 0.0393961 0.0675258 0.0279294 0 0 0 -0.310952 0.00561912 -0.117478 0.0168939 -4.89882e-05 0.000265266 0 0 1 0 0 0 0 0 0 0 0 0 0 0 0 0 5 0.002 
467 1 0.0446568 0.0742891 0.026756 0 0 0 -0.17138 -0.597513 0.00729108 0.0113278 0.0162891 -0.0250514 1 0 0 0 0 0 0 0 0 0 0 0 0 0 0 0 1 0.002 
121 2 0.0299391 0.0576546 0.0282606 0 0 0 -1.63883 0.941457 -0.725899 0 -0.000164368 0 0 0 0 0 0 0 0 0 0 0 0 0 0 0 0 0 6 0.002 
450 2 0.0414391 0.0591168 0.0290232 0 0 0 0.503223 1.17264 -0.339601 0 -0.000164368 0 0 0 0 0 0 0 0 0 0 0 0 0 0 0 0 0 2 0.002 
58 1 0.0451449 0.0579678 0.0275196 0 0 0 0.417116 3.16163 -2.90975 0 -0.000164368 0 0 0 0 0 0 0 0 0 0 0 0 0 0 0 0 0 4 0.002 
237 10 0.0239007 0.0585747 0.0292405 0 0 0 0.114558 -1.11745 -1.03645 0.0494531 -0.0368672 0.0472063 0 1 0 0 0 0 0 0 0 0 0 0 0 0 0 0 8 0.002 
546 1 0.0433905 0.0674398 0.0279775 0 0 0 0.209056 -0.574902 -0.0971813 -0.0168939 -0.000279748 -0.000265266 0 0 1 0 0 0 0 0 0 0 0 0 0 0 0 0 4 0.002 
516 2 0.0228459 0.070725 0.0305456 0 0 0 1.00994 -1.26734 1.86546 0.00118496 0.000715978 -0.00118179 0 0 0 0 0 0 0 0 0 0 0 0 0 0 0 0 0 0.002 
355 5 0.0325102 0.0699525 0.0279124 0 0 0 1.5687 -1.20552 -0.850764 0 -0.000164368 0 0 0 0 0 0 0 0 0 0 0 0 0 0 0 0 0 6 0.002 
241 6 0.0445525 0.0711568 0.0291937 0 0 0 0.00511681 -0.60584 -0.00710378 -0.0113278 -0.0166178 0.0250514 1 0 0 0 0 0 0 0 0 0 0 0 0 0 0 0 7 0.002 
589 5 0.0281232 0.0742492 0.0296665 0 0 0 0.256321 -1.08856 -0.851808 0 -0.000164368 0 0 0 0 0 0 0 0 0 0 0 0 0 0 0 0 0 0 0.002 
618 7 0.0393504 0.0571824 0.0170002 0 0 0 -13.2165 16.4732 -30.0219 0 -0.000164368 0 0 0 0 0 0 0 0 0 0 0 0 0 0 0 0 0 0 0.002 
507 6 0.046377 0.0551317 0.0301381 0 0 0 -0.673309 1.52782 -0.646404 0 -0.000164368 0 0 0 0 0 0 0 0 0 0 0 0 0 0 0 0 0 0 0.002 
145 6 0.0234943 0.0537264 0.0320595 0 0 0 0.0381869 -0.475534 -0.241833 0 -0.000164368 0 0 0 0 0 0 0 0 0 0 0 0 0 0 0 0 0 8 0.002 
504 1 0.0272426 0.0562636 0.0321191 0 0 0 -0.0480579 -0.965753 -0.280417 0 -0.000164368 0 0 0 0 0 0 0 0 0 0 0 0 0 0 0 0 0 4 0.002 
582 7 0.030142 0.0607278 0.0316929 0 0 0 0.0526627 -0.381832 -0.591512 0 -0.000164368 0 0 0 0 0 0 0 0 0 0 0 0 0 0 0 0 0 0 0.002 
481 2 0.0357047 0.0621695 0.0320723 0 0 0 -0.104868 1.51036 0.395057 0 -0.000164368 0 0 0 0 0 0 0 0 0 0 0 0 0 0 0 0 0 2 0.002 
125 10 0.0269773 0.0668009 0.0313671 0 0 0 0.345575 -1.18489 -0.0707496 0 -0.000164368 0 0 0 0 0 0 0 0 0 0 0 0 0 0 0 0 0 8 0.002 
108 2 0.0193152 0.0691443 0.0315466 0 0 0 -0.134299 -0.241213 -0.570345 -0.00118496 -0.00104471 0.00118179 0 0 0 0 0 0 0 0 0 0 0 0 0 0 0 0 12 0.002 
139 6 0.0469872 0.0700291 0.0322038 0 0 0 0.121613 -0.502479 0.176718 0.0130461 -0.00360187 0.00106943 0 0 0 0 0 1 0 0 0 0 0 0 0 0 0 0 8 0.002 
103 5 0.0356653 0.0732003 0.0308917 0 0 0 -0.185596 -0.714706 -0.648843 0 -0.000164368 0 0 0 0 0 0 0 0 0 0 0 0 0 0 0 0 0 5 0.002 
191 2 0.0188978 0.0540249 0.0325385 0 0 0 -0.252765 -0.574489 -0.0255356 0 -0.000164368 0 0 0 0 0 0 0 0 0 0 0 0 0 0 0 0 0 4 0.002 
283 10 0.032175 0.0749759 0.0329944 0 0 0 -0.235969 0.0956292 0.150006 0 -0.000164368 0 0 0 0 0 0 0 0 0 0 0 0 0 0 0 0 0 0 0.002 
2 6 0.0306943 0.0685622 0.0327399 0 0 0 0.432006 -0.868274 -0.131634 0 -0.000164368 0 0 0 0 0 0 0 0 0 0 0 0 0 0 0 0 0 3 0.002 
396 3 0.0438361 0.072337 0.0329824 0 0 0 0.0985551 -0.43701 -0.0603507 -0.0130461 0.00327313 -0.00106943 0 0 0 0 0 1 0 0 0 0 0 0 0 0 0 0 3 0.002 
623 3 0.0331205 0.0420793 0.0396223 0 0 0 6.92068 16.7253 -19.5502 0.0077352 -0.00611265 -0.0456992 0 0 0 0 0 0 0 0 0 0 0 0 0 0 0 0 0 0.002 
556 7 0.0305822 0.0959434 -0.0329184 0 0 0 -0.408404 2.36538 0.320353 0 -0.000164368 0 0 0 0 0 0 0 0 0 0 0 0 0 0 0 0 0 0 0.002 
378 2 0.0450785 0.100606 -0.0318208 0 0 0 0.0991796 -0.350431 0.1415 0 -0.000164368 0 0 0 0 0 0 0 0 0 0 0 0 0 0 0 0 0 1 0.002 
567 7 0.0397719 0.103891 -0.0330045 0 0 0 0.230672 0.583009 0.268308 -0.000598574 7.9536e-05 -0.0175658 0 0 0 0 0 0 0 0 0 0 0 0 0 0 0 0 0 0.002 
369 6 0.0389663 0.107456 -0.0312592 0 0 0 0.391952 -0.00584816 0.569313 0 -0.000164368 0 0 0 0 0 0 0 0 0 0 0 0 0 0 0 0 0 5 0.002 
572 3 0.0415167 0.0952718 -0.031301 0 0 0 -0.626968 0.797744 -2.48093 0 -0.000164368 0 0 0 0 0 0 0 0 0 0 0 0 0 0 0 0 0 1 0.002 
564 8 0.023316 0.101304 -0.0271675 0 0 0 -3.08554 4.13715 1.81361 0 -0.000164368 0 0 0 0 0 0 0 0 0 0 0 0 0 0 0 0 0 1 0.002 
373 7 0.0381898 0.106557 -0.0215124 0 0 0 -0.931085 -5.82066 10.5538 0 -0.000164368 0 0 0 0 0 0 0 0 0 0 0 0 0 0 0 0 0 2 0.002 
547 4 0.0287028 0.107906 -0.0231181 0 0 0 -0.412991 -0.0267448 0.582228 0 -0.000164368 0 0 0 0 0 0 0 0 0 0 0 0 0 0 0 0 0 1 0.002 
392 1 0.0229237 0.0822047 -0.0206099 0 0 0 3.44695 -3.93242 2.6488 0 -0.000164368 0 0 0 0 0 0 0 0 0 0 0 0 0 0 0 0 0 4 0.002 
603 7 0.0402412 0.102494 -0.021155 0 0 0 -0.0372197 0.391612 -1.21765 -0.0182172 0.0683414 -0.250231 0 0 0 0 0 0 1 0 0 0 0 0 0 0 0 0 1 0.002 
416 5 0.0318916 0.093962 -0.018673 0 0 0 0.227488 -1.13538 0.450833 0 -0.000164368 0 0 0 0 0 0 0 0 0 0 0 0 0 0 0 0 0 2 0.002 
521 6 0.0278895 0.0908521 -0.01736 0 0 0 1.50697 -0.919783 -0.682109 0 -0.000164368 0 0 0 0 0 0 0 0 0 0 0 0 0 0 0 0 0 2 0.002 
490 2 0.0190195 0.0932364 -0.0190803 0 0 0 -1.95822 2.52377 -5.70161 0 -0.000164368 0 0 0 0 0 0 0 0 0 0 0 0 0 0 0 0 0 0 0.002 
510 9 0.0407361 0.100773 -0.0177539 0 0 0 0.0508091 0.15172 -0.172472 0.0182172 -0.0686701 0.250231 0 0 0 0 0 0 1 0 0 0 0 0 0 0 0 0 6 0.002 
449 4 0.0459059 0.106317 -0.0128309 0 0 0 -0.615469 -0.382445 1.14586 0 -0.000164368 0 0 0 0 0 0 0 0 0 0 0 0 0 0 0 0 0 3 0.002 
230 6 0.029506 0.107636 0.00943849 0 0 0 -0.358966 0.490873 0.565085 0 -0.000164368 0 0 0 0 0 0 0 0 0 0 0 0 0 0 0 0 0 6 0.002 
21 8 0.0418468 0.0910919 -0.0170126 0 0 0 -2.00761 6.45853 -7.98652 0 -0.000164368 0 0 0 0 0 0 0 0 0 0 0 0 0 0 0 0 0 8 0.002 
138 4 0.0359927 0.0964356 -0.00888783 0 0 0 2.04083 1.47523 4.09435 0 -0.000164368 0 0 0 0 0 0 0 0 0 0 0 0 0 0 0 0 0 9 0.002 
111 3 0.0273377 0.0884571 -0.00963153 0 0 0 1.21168 1.68258 1.72002 0 -0.000164368 0 0 0 0 0 0 0 0 0 0 0 0 0 0 0 0 0 4 0.002 
498 4 0.0321245 0.101827 -0.00833421 0 0 0 -1.4279 2.52809 1.98161 0 -0.000164368 0 0 0 0 0 0 0 0 0 0 0 0 0 0 0 0 0 2 0.002 
530 1 0.0363148 0.103278 -0.00694398 0 0 0 2.23875 1.58499 0.958731 0 -0.000164368 0 0 0 0 0 0 0 0 0 0 0 0 0 0 0 0 0 1 0.002 
207 2 0.0327807 0.0967009 -0.00543165 0 0 0 -0.471713 -0.582778 0.20689 0 -0.000164368 0 0 0 0 0 0 0 0 0 0 0 0 0 0 0 0 0 8 0.002 
123 8 0.0347287 0.081404 -0.00329507 0 0 0 -0.73812 -0.255547 -0.823913 0 -0.000164368 0 0 0 0 0 0 0 0 0 0 0 0 0 0 0 0 0 10 0.002 
262 3 0.0226804 0.10581 -0.00306987 0 0 0 -1.74164 0.533153 1.17702 0 -0.000164368 0 0 0 0 0 0 0 0 0 0 0 0 0 0 0 0 0 3 0.002 
173 3 0.0431166 0.0922941 0.000409995 0 0 0 -0.820341 -1.92131 2.54676 0 -0.000164368 0 0 0 0 0 0 0 0 0 0 0 0 0 0 0 0 0 3 0.002 
610 7 0.0248 0.0976222 0.00189648 0 0 0 -1.88904 -1.14933 0.170464 0 -0.000164368 0 0 0 0 0 0 0 0 0 0 0 0 0 0 0 0 0 0 0.002 
305 5 0.021242 0.102621 0.00302483 0 0 0 1.22818 1.38993 0.246633 0 -0.000164368 0 0 0 0 0 0 0 0 0 0 0 0 0 0 0 0 0 8 0.002 
179 1 0.0431339 0.106237 0.00222195 0 0 0 -0.953141 -0.189156 2.22916 0 -0.000164368 0 0 0 0 0 0 0 0 0 0 0 0 0 0 0 0 0 5 0.002 
443 1 0.0402967 0.0889637 0.00565195 0 0 0 -1.26295 -1.85539 1.96714 0 -0.000164368 0 0 0 0 0 0 0 0 0 0 0 0 0 0 0 0 0 5 0.002 
399 3 0.0214121 0.0797629 0.00959012 0 0 0 0.500885 0.562049 -0.675176 0 -0.000164368 0 0 0 0 0 0 0 0 0 0 0 0 0 0 0 0 0 7 0.002 
289 3 0.0360227 0.0892665 0.00940287 0 0 0 0.391922 -0.608055 -0.322476 0 -0.000164368 0 0 0 0 0 0 0 0 0 0 0 0 0 0 0 0 0 3 0.002 
130 1 0.0473761 0.104653 -0.0278913 0 0 0 -0.419104 -0.414993 0.26067 0 -0.000164368 0 0 0 0 0 0 0 0 0 0 0 0 0 0 0 0 0 3 0.002 
620 1 0.0232576 0.0773422 -0.0333147 0 0 0 0.301523 4.36885 -0.382738 -0.186791 -1.41467 2.85358 0 0 0 0 0 0 0 0 0 0 0 0 0 0 0 0 0 0.002 
114 6 0.0320587 0.0959735 0.0112618 0 0 0 -0.694821 0.669454 1.04465 0 -0.000164368 0 0 0 0 0 0 0 0 0 0 0 0 0 0 0 0 0 5 0.002 
573 1 0.0411392 0.0968943 0.0111769 0 0 0 0.385233 -0.349599 0.400427 0 -0.000164368 0 0 0 0 0 0 0 0 0 0 0 0 0 0 0 0 0 1 0.002 
601 8 0.0437184 0.100753 0.0119695 0 0 0 -0.00939683 -0.0053332 0.0399334 0 -0.000164368 0 0 0 0 0 0 0 0 0 0 0 0 0 0 0 0 0 1 0.002 
323 7 0.0259452 0.104518 0.0121382 0 0 0 -0.371632 -0.626248 0.35657 0 -0.000164368 0 0 0 0 0 0 0 0 0 0 0 0 0 0 0 0 0 4 0.002 
390 4 0.0332667 0.0762203 0.0128053 0 0 0 -2.51331 1.91756 -0.0191759 0 -0.000164368 0 0 0 0 0 0 0 0 0 0 0 0 0 0 0 0 0 3 0.002 
604 8 0.036025 0.0859003 0.012243 0 0 0 -0.322458 -0.0981174 -0.259653 0 -0.000164368 0 0 0 0 0 0 0 0 0 0 0 0 0 0 0 0 0 0 0.002 
315 1 0.0227291 0.100015 0.0130305 0 0 0 -0.677383 1.82452 -1.41969 0 -0.000164368 0 0 0 0 0 0 0 0 0 0 0 0 0 0 0 0 0 3 0.002 