ITEM: TIMESTEP
500000
ITEM: NUMBER OF ATOMS
973
ITEM: BOX BOUNDS ff ff ff
-0.01 0.45
-0.15 0.15
-0.08 0.1
ITEM: ATOMS id type x y z ix iy iz vx vy vz fx fy fz c_cc_1 c_cc_2 c_cc_3 c_cc_4 c_cc_5 c_cc_6 c_cc_7 c_cc_8 c_cc_9 c_cc_10 c_cc_11 c_cc_12 c_cc_13 c_cc_14 c_cc_15 c_cc_16 f_fppacc radius c_cc_17 
209 4 0.0150196 -0.00976473 -0.0601913 0 0 0 0.000778439 -0.353326 0.0291967 0 -1.05196e-05 0 0 0 0 0 0 0 0 0 0 0 0 0 0 0 0 0 0 0.0008 0 
568 1 0.01846 -0.00869054 -0.0601422 0 0 0 -0.000378481 -0.322986 0.0277226 0 -1.05196e-05 0 0 0 0 0 0 0 0 0 0 0 0 0 0 0 0 0 0 0.0008 0 
806 2 0.0159957 -0.00352394 -0.0588863 0 0 0 0.222102 -17.2397 2.33851 -0.000175934 -0.0027983 0.00367988 0 0 0 0 0 0 0 0 0 0 0 0 0 0 0 0 0 0.0008 0 
897 5 0.00711683 -0.00903586 -0.0583588 0 0 0 -0.239415 -7.95541 1.47978 0 -1.05196e-05 0 0 0 0 0 0 0 0 0 0 0 0 0 0 0 0 0 0 0.0008 0 
674 2 0.00975885 -0.00385116 -0.0587386 0 0 0 2.15089 -16.0555 2.43637 0 -1.05196e-05 0 0 0 0 0 0 0 0 0 0 0 0 0 0 0 0 0 0 0.0008 0 
627 1 0.00365227 -0.0027813 -0.0572657 0 0 0 0.106573 -1.8807 -1.56124 0 -1.05196e-05 0 0 0 0 0 0 0 0 0 0 0 0 0 0 0 0 0 0 0.0008 0 
748 5 0.0161594 -0.00221733 -0.0566029 0 0 0 0.0230826 -10.4806 2.95792 0 -1.05196e-05 0 0 0 0 0 0 0 0 0 0 0 0 0 0 0 0 0 0 0.0008 0 
317 1 0.00778111 -0.0308441 -0.0527135 0 0 0 -0.00341379 -0.293938 0.146364 2.42873e-11 -6.3308e-06 3.15237e-06 0 0 0 0 0 0 0 0 0 0 0 0 0 0 0 0 0 0.0008 0 
264 4 0.013105 -0.0287603 -0.0514558 0 0 0 -0.8268 -5.19462 2.87731 0 -1.05196e-05 0 0 0 0 0 0 0 0 0 0 0 0 0 0 0 0 0 1 0.0008 0 
37 1 0.00403168 -0.0257338 -0.0520647 0 0 0 1.57797 -18.9554 8.55342 0 -1.05196e-05 0 0 0 0 0 0 0 0 0 0 0 0 0 0 0 0 0 0 0.0008 0 
860 5 0.0112695 -0.0187489 -0.0488377 0 0 0 1.55292 -7.80125 0.303042 0 -1.05196e-05 0 0 0 0 0 0 0 0 0 0 0 0 0 0 0 0 0 0 0.0008 0 
516 2 0.0118197 -0.03401 -0.0481336 0 0 0 0.279905 -9.13367 7.7122 0 -1.05196e-05 0 0 0 0 0 0 0 0 0 0 0 0 0 0 0 0 0 0 0.0008 0 
18 2 0.0100419 -0.0419589 -0.0443346 0 0 0 -0.0643982 -0.401908 0.493861 0 -1.05196e-05 0 0 0 0 0 0 0 0 0 0 0 0 0 0 0 0 0 0 0.0008 0 
248 8 0.00454706 -0.0436685 -0.0424115 0 0 0 -0.208016 -0.379042 0.398194 0 -1.05196e-05 0 0 0 0 0 0 0 0 0 0 0 0 0 0 0 0 0 0 0.0008 0 
898 6 0.0133407 -0.0441761 -0.0389227 0 0 0 -0.0102451 -8.30285 10.0914 0 -1.05196e-05 0 0 0 0 0 0 0 0 0 0 0 0 0 0 0 0 0 0 0.0008 0 
393 12 0.0124508 -0.0108362 -0.0394329 0 0 0 0.414742 0.634827 0.646773 0 -1.05196e-05 0 0 0 0 0 0 0 0 0 0 0 0 0 0 0 0 0 0 0.0008 0 
859 5 0.00853943 -0.0394816 -0.0339553 0 0 0 -2.30179 5.47689 7.16584 0 -1.05196e-05 0 0 0 0 0 0 0 0 0 0 0 0 0 0 0 0 0 0 0.0008 0 
458 3 0.00362346 -0.0535259 -0.0292487 0 0 0 0.105947 -0.199434 0.276305 0 -1.05196e-05 0 0 0 0 0 0 0 0 0 0 0 0 0 0 0 0 0 0 0.0008 0 
804 8 0.0148398 -0.0510377 -0.0292561 0 0 0 -3.04447e-13 -3.13 5.70102 0 -1.05196e-05 0 0 0 0 0 0 0 0 0 0 0 0 0 0 0 0 0 0 0.0008 0 
455 1 0.0130464 -0.0509078 -0.0269755 0 0 0 0.174476 -1.58573 9.09326 0 -1.05196e-05 0 0 0 0 0 0 0 0 0 0 0 0 0 0 0 0 0 0 0.0008 0 
212 3 0.0159939 -0.031297 -0.0262688 0 0 0 0.0906227 -3.14831 1.75469 0 -1.05196e-05 0 0 0 0 0 0 0 0 0 0 0 0 0 0 0 0 0 0 0.0008 0 
690 7 0.00444429 -0.0567335 -0.0217724 0 0 0 0.285882 -0.158647 0.393461 0 -1.05196e-05 0 0 0 0 0 0 0 0 0 0 0 0 0 0 0 0 0 0 0.0008 0 
807 4 0.0115555 -0.0546299 -0.0217061 0 0 0 1.58462 -1.00222 3.08991 0 -1.05196e-05 0 0 0 0 0 0 0 0 0 0 0 0 0 0 0 0 0 0 0.0008 0 
967 9 0.0121978 -0.0526873 -0.0210384 0 0 0 0.778794 -7.55221 20.7926 0 -1.05196e-05 0 0 0 0 0 0 0 0 0 0 0 0 0 0 0 0 0 0 0.0008 0 
547 6 0.014607 -0.0522848 -0.0168497 0 0 0 -2.33262 -2.91715 6.4748 0 -1.05196e-05 0 0 0 0 0 0 0 0 0 0 0 0 0 0 0 0 0 0 0.0008 0 
119 1 0.0161487 -0.0590499 -0.015479 0 0 0 0.0764149 -0.184587 2.09994 0 -1.05196e-05 0 0 0 0 0 0 0 0 0 0 0 0 0 0 0 0 0 0 0.0008 0 
101 5 0.0159088 -0.0593831 -0.0135714 0 0 0 -0.408908 -0.110921 0.484878 0 -1.05196e-05 0 0 0 0 0 0 0 0 0 0 0 0 0 0 0 0 0 0 0.0008 0 
880 4 0.0131712 -0.0573271 -0.0124565 0 0 0 -2.99643e-13 -2.76801 9.7536 0 -1.05196e-05 0 0 0 0 0 0 0 0 0 0 0 0 0 0 0 0 0 0 0.0008 0 
404 7 0.00240844 -0.0582032 0.00934282 0 0 0 0.0272305 0.268446 4.80288 0 -1.05196e-05 0 0 0 0 0 0 0 0 0 0 0 0 0 0 0 0 0 0 0.0008 0 
239 11 0.0171614 -0.0595764 0.0129178 0 0 0 -0.272408 0.0125534 0.0671545 -3.79439e-17 -2.53692e-07 -1.35713e-06 0 0 0 0 0 0 0 0 0 0 0 0 0 0 0 0 0 0.0008 0 
893 3 0.00355883 -0.0430972 0.0138812 0 0 0 -0.0743123 -2.94735 -4.68712 0 -1.05196e-05 0 0 0 0 0 0 0 0 0 0 0 0 0 0 0 0 0 0 0.0008 0 
85 5 0.00955534 -0.059296 0.0144179 0 0 0 0.216219 -0.0185255 -0.0991024 5.10274e-06 -2.02191e-07 -1.08162e-06 0 0 0 0 0 0 0 0 0 0 0 0 0 0 0 0 0 0.0008 0 
805 9 0.0101386 -0.0549112 0.0195235 0 0 0 1.59555 2.04142 6.88712 0 -1.05196e-05 0 0 0 0 0 0 0 0 0 0 0 0 0 0 0 0 0 0 0.0008 0 
418 3 0.00623752 -0.052506 0.0266365 0 0 0 0.167868 7.72795 17.2141 0 -1.05196e-05 0 0 0 0 0 0 0 0 0 0 0 0 0 0 0 0 0 0 0.0008 0 
765 9 0.00290224 -0.0450413 0.0368078 0 0 0 3.20404 6.63597 7.30751 0 -1.05196e-05 0 0 0 0 0 0 0 0 0 0 0 0 0 0 0 0 0 0 0.0008 0 
131 3 0.00211149 -0.0433449 0.0397824 0 0 0 0.256317 4.96583 4.89792 0 -1.05196e-05 0 0 0 0 0 0 0 0 0 0 0 0 0 0 0 0 0 0 0.0008 0 
399 3 0.0100038 -0.00448729 0.0433851 0 0 0 -2.26724 11.9866 18.3748 0 -1.05196e-05 0 0 0 0 0 0 0 0 0 0 0 0 0 0 0 0 0 0 0.0008 0 
762 1 0.00222214 -0.0303237 0.0495963 0 0 0 1.84852 11.1638 5.63721 0 -1.05196e-05 0 0 0 0 0 0 0 0 0 0 0 0 0 0 0 0 0 0 0.0008 0 
237 9 0.00685725 -0.0266708 0.0504306 0 0 0 0.783682 -1.66689 -4.04971 0 -1.05196e-05 0 0 0 0 0 0 0 0 0 0 0 0 0 0 0 0 0 0 0.0008 0 
733 3 0.0143147 -0.0316275 0.0526429 0 0 0 -0.185849 0.0507438 -0.0114535 0 -1.05196e-05 0 0 0 0 0 0 0 0 0 0 0 0 0 0 0 0 0 0 0.0008 0 
196 2 0.00900759 0.00549851 -0.0604017 0 0 0 0.315408 0.114987 -0.00268064 0 -1.05196e-05 0 0 0 0 0 0 0 0 0 0 0 0 0 0 0 0 0 0 0.0008 0 
869 5 0.0136551 0.0163309 -0.0585717 0 0 0 -0.0227873 -0.134747 -0.149706 0 -1.05196e-05 0 0 0 0 0 0 0 0 0 0 0 0 0 0 0 0 0 0 0.0008 0 
353 3 0.00918778 0.00702458 -0.0515242 0 0 0 1.95998 -8.92233 -17.1382 0 -1.05196e-05 0 0 0 0 0 0 0 0 0 0 0 0 0 0 0 0 0 0 0.0008 0 
725 4 0.00940535 0.00985918 -0.0520031 0 0 0 1.44508 0.0695133 1.40693 0 -1.05196e-05 0 0 0 0 0 0 0 0 0 0 0 0 0 0 0 0 0 0 0.0008 0 
86 1 0.00879012 0.0289396 -0.0474659 0 0 0 -1.63948 -3.12868 -3.31293 0 -1.05196e-05 0 0 0 0 0 0 0 0 0 0 0 0 0 0 0 0 0 0 0.0008 0 
846 1 0.0116179 0.0216875 -0.0432855 0 0 0 2.16173 -4.72254 -6.28615 0 -1.05196e-05 0 0 0 0 0 0 0 0 0 0 0 0 0 0 0 0 0 0 0.0008 0 
282 4 0.012802 0.0409161 -0.0397684 0 0 0 0.850747 -0.69975 -0.239001 0 -1.05196e-05 0 0 0 0 0 0 0 0 0 0 0 0 0 0 0 0 0 0 0.0008 0 
896 3 0.0158483 0.033118 -0.0384774 0 0 0 4.01097e-13 1.52507 -14.9841 0 -1.05196e-05 0 0 0 0 0 0 0 0 0 0 0 0 0 0 0 0 0 0 0.0008 0 
283 5 0.00826709 0.0521728 -0.0355 0 0 0 -2.56593e-302 5.6598e-20 1.18148e-12 -9.4894e-308 0 -2.22045e-16 0 0 0 0 0 0 0 0 0 0 0 0 0 0 0 0 0 0.0008 0 
517 2 0.0147556 0.0505692 -0.0337935 0 0 0 0.205032 -1.94831 0.333893 0 -1.05196e-05 0 0 0 0 0 0 0 0 0 0 0 0 0 0 0 0 0 0 0.0008 0 
843 3 0.00220938 0.0916959 -0.0338828 0 0 0 -0.0444725 -1.83717 -0.0367478 0 -1.05196e-05 0 0 0 0 0 0 0 0 0 0 0 0 0 0 0 0 0 0 0.0008 0 
886 4 0.0060439 0.0942683 -0.0342743 0 0 0 -1.42493 -1.10213 5.63721 -0.00914213 0.0681049 0.0101292 0 0 0 0 0 0 0 0 0 0 0 0 0 0 0 0 0 0.0008 0 
651 3 0.017458 0.105793 -0.0342625 0 0 0 -7.77581 29.2763 -35.8521 0.195771 -2.5851 1.31779 0 0 0 0 0 0 0 0 0 0 0 0 0 0 0 0 0 0.0008 0 
884 2 0.00988244 0.0762193 -0.0326014 0 0 0 0.762382 1.50615 4.02012 0 -1.05196e-05 0 0 0 0 0 0 0 0 0 0 0 0 0 0 0 0 0 0 0.0008 0 
535 7 0.00918375 0.0793041 -0.0330946 0 0 0 0.055843 0.528002 -0.415132 0 -1.05196e-05 0 0 0 0 0 0 0 0 0 0 0 0 0 0 0 0 0 0 0.0008 0 
208 3 0.0150028 0.0856067 -0.0333043 0 0 0 15.601 -7.21508 13.0134 0 -1.05196e-05 0 0 0 0 0 0 0 0 0 0 0 0 0 0 0 0 0 1 0.0008 0 
161 9 0.0149764 0.0959927 -0.0327774 0 0 0 -2.4747 1.62955 0.456313 0 -1.05196e-05 0 0 0 0 0 0 0 0 0 0 0 0 0 0 0 0 0 0 0.0008 0 
180 9 0.00497772 0.0999657 -0.0332749 0 0 0 -0.0276268 17.7798 -12.1292 0 -1.05196e-05 0 0 0 0 0 0 0 0 0 0 0 0 0 0 0 0 0 0 0.0008 0 
138 1 0.014803 0.100168 -0.0333284 0 0 0 3.4325 1.41649 13.4112 0 -1.05196e-05 0 0 0 0 0 0 0 0 0 0 0 0 0 0 0 0 0 0 0.0008 0 
764 2 0.017346 0.0618156 -0.0322467 0 0 0 2.02129 -0.26222 -6.27035 0 -1.05196e-05 0 0 0 0 0 0 0 0 0 0 0 0 0 0 0 0 0 0 0.0008 0 
862 5 0.0142764 0.0729033 -0.0320232 0 0 0 -0.483181 -0.8486 0.453588 0 -1.05196e-05 0 0 0 0 0 0 0 0 0 0 0 0 0 0 0 0 0 0 0.0008 0 
757 9 0.00447654 0.0843809 -0.0320354 0 0 0 2.23739 -2.16192 2.13462 0 -1.05196e-05 0 0 0 0 0 0 0 0 0 0 0 0 0 0 0 0 0 0 0.0008 0 
513 2 0.00443081 0.0901962 -0.0313904 0 0 0 0.85017 2.68437 1.0104 0 -1.05196e-05 0 0 0 0 0 0 0 0 0 0 0 0 0 0 0 0 0 1 0.0008 0 
368 4 0.00720824 0.102418 -0.0322641 0 0 0 -2.85574 0.150938 1.21378 0 -1.05196e-05 0 0 0 0 0 0 0 0 0 0 0 0 0 0 0 0 0 0 0.0008 0 
828 3 0.00311976 0.109141 -0.0322428 0 0 0 -0.239939 -0.195234 -1.31935 0 -1.05196e-05 0 0 0 0 0 0 0 0 0 0 0 0 0 0 0 0 0 0 0.0008 0 
204 1 0.0027573 0.0144111 -0.0309392 0 0 0 0.0704276 -1.93181 -0.761486 0 -1.05196e-05 0 0 0 0 0 0 0 0 0 0 0 0 0 0 0 0 0 1 0.0008 0 
438 3 0.00235964 0.035207 -0.0304395 0 0 0 -0.024378 -3.71514 0.662425 0 -1.05196e-05 0 0 0 0 0 0 0 0 0 0 0 0 0 0 0 0 0 0 0.0008 0 
879 2 0.0161449 0.0664903 -0.0303201 0 0 0 1.42136 -1.46794 1.48427 0 -1.05196e-05 0 0 0 0 0 0 0 0 0 0 0 0 0 0 0 0 0 0 0.0008 0 
295 1 0.0125467 0.0931956 -0.0310044 0 0 0 3.34762 -0.972601 3.38035 0 -1.05196e-05 0 0 0 0 0 0 0 0 0 0 0 0 0 0 0 0 0 0 0.0008 0 
410 1 0.0175741 0.0932445 -0.0306516 0 0 0 -2.27834 -1.52971 -3.92641 0 -1.05196e-05 0 0 0 0 0 0 0 0 0 0 0 0 0 0 0 0 0 0 0.0008 0 
528 7 0.00356914 0.102031 -0.0302357 0 0 0 -0.975068 7.67072 2.83711 0 -1.05196e-05 0 0 0 0 0 0 0 0 0 0 0 0 0 0 0 0 0 0 0.0008 0 
129 1 0.0129711 0.105902 -0.0308476 0 0 0 1.4899 7.60673 3.59875 0 -1.05196e-05 0 0 0 0 0 0 0 0 0 0 0 0 0 0 0 0 0 0 0.0008 0 
825 11 0.00972332 0.10794 -0.0311743 0 0 0 4.72326 -1.1809 -2.05826 0 -1.05196e-05 0 0 0 0 0 0 0 0 0 0 0 0 0 0 0 0 0 0 0.0008 0 
481 4 0.0170089 0.0604587 -0.0293321 0 0 0 3.11381 1.86667 2.1676 0 -1.05196e-05 0 0 0 0 0 0 0 0 0 0 0 0 0 0 0 0 0 0 0.0008 0 
509 1 0.0129668 0.0627641 -0.0291882 0 0 0 1.84407 -0.523049 1.03347 0 -1.05196e-05 0 0 0 0 0 0 0 0 0 0 0 0 0 0 0 0 0 0 0.0008 0 
811 3 0.00447884 0.0868871 -0.0294859 0 0 0 -0.671533 -1.08975 -1.23783 0 -1.05196e-05 0 0 0 0 0 0 0 0 0 0 0 0 0 0 0 0 0 0 0.0008 0 
222 1 0.00267748 0.089002 -0.0298515 0 0 0 0.980834 0.1119 -0.14963 0 -1.05196e-05 0 0 0 0 0 0 0 0 0 0 0 0 0 0 0 0 0 0 0.0008 0 
238 1 0.0132713 0.0391893 -0.0285671 0 0 0 0.751698 -1.40324 -5.20081 0 -1.05196e-05 0 0 0 0 0 0 0 0 0 0 0 0 0 0 0 0 0 0 0.0008 0 
176 16 0.012368 0.0782991 -0.0285445 0 0 0 2.93569 -1.47346 -0.965495 0 -1.05196e-05 0 0 0 0 0 0 0 0 0 0 0 0 0 0 0 0 0 0 0.0008 0 
396 1 0.0160994 0.108831 -0.0286387 0 0 0 -4.33251 -3.25671 -0.798176 0 -1.05196e-05 0 0 0 0 0 0 0 0 0 0 0 0 0 0 0 0 0 0 0.0008 0 
964 5 0.012933 0.0488016 -0.027532 0 0 0 -23.6959 -11.7346 -67.7285 0 -1.05196e-05 0 0 0 0 0 0 0 0 0 0 0 0 0 0 0 0 0 0 0.0008 0 
103 11 0.00849256 0.0549778 -0.0271311 0 0 0 -1.71863 0.460725 2.22543 0 -1.05196e-05 0 0 0 0 0 0 0 0 0 0 0 0 0 0 0 0 0 0 0.0008 0 
495 1 0.00353636 0.0672405 -0.0281039 0 0 0 1.09517 2.85905 1.34301 0 -1.05196e-05 0 0 0 0 0 0 0 0 0 0 0 0 0 0 0 0 0 1 0.0008 0 
108 3 0.0184299 0.0669665 -0.0274193 0 0 0 2.37569 -2.09601 2.35931 0 -1.05196e-05 0 0 0 0 0 0 0 0 0 0 0 0 0 0 0 0 0 0 0.0008 0 
398 2 0.00480038 0.0762299 -0.0272851 0 0 0 1.14269 2.18879 -3.43244 0 -1.05196e-05 0 0 0 0 0 0 0 0 0 0 0 0 0 0 0 0 0 0 0.0008 0 
751 2 0.00179497 0.0842637 -0.0272826 0 0 0 0.796722 -0.443146 2.29135 -0.010184 -0.00508173 -0.000459732 0 0 0 0 0 0 0 0 0 0 0 0 0 0 0 0 0 0.0008 0 
274 4 0.0185648 0.0946629 -0.0271325 0 0 0 -3.41107 -1.79695 2.16702 0 -1.05196e-05 0 0 0 0 0 0 0 0 0 0 0 0 0 0 0 0 0 0 0.0008 0 
370 1 0.00774074 0.0497821 -0.0265702 0 0 0 -0.0349629 -0.842392 0.510577 0 -1.05196e-05 0 0 0 0 0 0 0 0 0 0 0 0 0 0 0 0 0 0 0.0008 0 
348 7 0.0167254 0.0841156 -0.0263868 0 0 0 -0.743386 0.401717 0.957965 0 -1.05196e-05 0 0 0 0 0 0 0 0 0 0 0 0 0 0 0 0 0 0 0.0008 0 
498 4 0.00285048 0.0850587 -0.0262605 0 0 0 2.16509 -0.624382 2.96132 0 -1.05196e-05 0 0 0 0 0 0 0 0 0 0 0 0 0 0 0 0 0 0 0.0008 0 
903 2 0.00333053 0.0977592 -0.0270342 0 0 0 0.198582 2.52966 3.62746 0 -1.05196e-05 0 0 0 0 0 0 0 0 0 0 0 0 0 0 0 0 0 0 0.0008 0 
432 5 0.00581195 0.104136 -0.0260305 0 0 0 0.563579 6.35721 -5.4115 0 -1.05196e-05 0 0 0 0 0 0 0 0 0 0 0 0 0 0 0 0 0 0 0.0008 0 
194 6 0.0163423 0.10508 -0.0263117 0 0 0 0.196471 -3.69612 4.04966 0 -1.05196e-05 0 0 0 0 0 0 0 0 0 0 0 0 0 0 0 0 0 0 0.0008 0 
223 2 0.0127334 0.107182 -0.0265562 0 0 0 0.261376 3.12258 8.27183 0 -1.05196e-05 0 0 0 0 0 0 0 0 0 0 0 0 0 0 0 0 0 0 0.0008 0 
744 6 0.00399418 0.0890631 -0.0249629 0 0 0 0.858596 -3.31968 3.33714 0.0191945 -0.0272459 0.00843902 0 0 0 0 0 1 0 0 0 0 0 0 0 0 0 0 1 0.0008 0 
734 4 0.0129144 0.0965497 -0.0254381 0 0 0 3.72825 9.57271 -11.9468 0 -1.05196e-05 0 0 0 0 0 0 0 0 0 0 0 0 0 0 0 0 0 0 0.0008 0 
486 5 0.0130892 0.0602421 -0.0239372 0 0 0 0.881773 -9.29831 1.53645 0 -1.05196e-05 0 0 0 0 0 0 0 0 0 0 0 0 0 0 0 0 0 0 0.0008 0 
464 9 0.00218367 0.0791534 -0.0244712 0 0 0 0.298329 -1.72989 0.800774 0 -1.05196e-05 0 0 0 0 0 0 0 0 0 0 0 0 0 0 0 0 0 0 0.0008 0 
933 11 0.0162395 0.0793432 -0.0240169 0 0 0 2.02017 0.812897 2.14725 0 -1.05196e-05 0 0 0 0 0 0 0 0 0 0 0 0 0 0 0 0 0 0 0.0008 0 
711 9 0.00828688 0.0858045 -0.0249355 0 0 0 2.46067 9.93411 -15.7895 0 -1.05196e-05 0 0 0 0 0 0 0 0 0 0 0 0 0 0 0 0 0 0 0.0008 0 
148 3 0.00366902 0.0905145 -0.0246125 0 0 0 1.27428 -0.384004 3.93048 -0.0191945 0.0272248 -0.00843902 0 0 0 0 0 1 0 0 0 0 0 0 0 0 0 0 1 0.0008 0 
633 7 0.00289079 0.0985842 -0.0249149 0 0 0 1.66319 1.31568 1.78574 0 -1.05196e-05 0 0 0 0 0 0 0 0 0 0 0 0 0 0 0 0 0 0 0.0008 0 
344 16 0.00503392 0.106789 -0.0248741 0 0 0 -1.1086 -0.164293 0.809297 0 -1.05196e-05 0 0 0 0 0 0 0 0 0 0 0 0 0 0 0 0 0 0 0.0008 0 
533 2 0.0132965 0.0457272 -0.0231754 0 0 0 -0.487239 -3.13323 0.673106 0 -1.05196e-05 0 0 0 0 0 0 0 0 0 0 0 0 0 0 0 0 0 0 0.0008 0 
598 4 0.0027774 0.0627332 -0.0236312 0 0 0 0.112169 -3.17252 1.59364 0 -1.05196e-05 0 0 0 0 0 0 0 0 0 0 0 0 0 0 0 0 0 0 0.0008 0 
58 4 0.00278935 0.0820031 -0.0233585 0 0 0 0.343133 0.840442 -0.177022 0 -1.05196e-05 0 0 0 0 0 0 0 0 0 0 0 0 0 0 0 0 0 0 0.0008 0 
579 4 0.00254564 0.109122 -0.0234894 0 0 0 0.252194 0.5637 1.51992 0 -1.05196e-05 0 0 0 0 0 0 0 0 0 0 0 0 0 0 0 0 0 0 0.0008 0 
435 5 0.0120668 0.0287981 -0.0227362 0 0 0 0.63407 -1.08951 -0.0663015 0 -1.05196e-05 0 0 0 0 0 0 0 0 0 0 0 0 0 0 0 0 0 0 0.0008 0 
337 2 0.00242568 0.0591896 -0.022752 0 0 0 -0.279956 -1.55037 3.36288 0 -1.05196e-05 0 0 0 0 0 0 0 0 0 0 0 0 0 0 0 0 0 0 0.0008 0 
557 3 0.0130054 0.0702333 -0.0218084 0 0 0 -0.753174 1.68255 2.32688 0 -1.05196e-05 0 0 0 0 0 0 0 0 0 0 0 0 0 0 0 0 0 0 0.0008 0 
798 1 0.00272742 0.107201 -0.0227773 0 0 0 0.0818782 -1.59539 0.917095 0 -1.05196e-05 0 0 0 0 0 0 0 0 0 0 0 0 0 0 0 0 0 0 0.0008 0 
949 9 0.00222041 0.0267921 -0.0211383 0 0 0 0.946924 -6.16654 -1.27663 0 -1.05196e-05 0 0 0 0 0 0 0 0 0 0 0 0 0 0 0 0 0 0 0.0008 0 
470 4 0.00965958 0.0547856 -0.0212242 0 0 0 0.327243 -0.803199 0.443778 0 -1.05196e-05 0 0 0 0 0 0 0 0 0 0 0 0 0 0 0 0 0 0 0.0008 0 
469 1 0.0151772 0.0556456 -0.0212268 0 0 0 0.77906 -1.41545 -2.3252 0 -1.05196e-05 0 0 0 0 0 0 0 0 0 0 0 0 0 0 0 0 0 0 0.0008 0 
654 2 0.0109716 0.0631308 -0.0216545 0 0 0 2.17244 -5.40052 2.29332 0 -1.05196e-05 0 0 0 0 0 0 0 0 0 0 0 0 0 0 0 0 0 0 0.0008 0 
84 2 0.00829726 0.100083 -0.0212043 0 0 0 2.19341 1.59865 4.1827 0 -1.05196e-05 0 0 0 0 0 0 0 0 0 0 0 0 0 0 0 0 0 0 0.0008 0 
254 1 0.0153024 0.102077 -0.0214066 0 0 0 0.455112 -0.258728 -2.98265 0 -1.05196e-05 0 0 0 0 0 0 0 0 0 0 0 0 0 0 0 0 0 0 0.0008 0 
447 5 0.0072851 0.10247 -0.0216237 0 0 0 2.56199 0.828809 1.94615 0 -1.05196e-05 0 0 0 0 0 0 0 0 0 0 0 0 0 0 0 0 0 0 0.0008 0 
81 1 0.00643955 0.105641 -0.0210489 0 0 0 -0.2662 0.154822 -0.493626 0 -1.05196e-05 0 0 0 0 0 0 0 0 0 0 0 0 0 0 0 0 0 0 0.0008 0 
308 2 0.00573142 0.0865489 -0.0204567 0 0 0 4.21561 6.39572 -10.7857 0 -1.05196e-05 0 0 0 0 0 0 0 0 0 0 0 0 0 0 0 0 0 0 0.0008 0 
928 8 0.0175531 0.0886795 -0.0203285 0 0 0 2.63021 11.4626 -10.1312 0 -1.05196e-05 0 0 0 0 0 0 0 0 0 0 0 0 0 0 0 0 0 0 0.0008 0 
213 4 0.00797793 0.074739 -0.0195255 0 0 0 -0.681629 1.37389 1.18761 0 -1.05196e-05 0 0 0 0 0 0 0 0 0 0 0 0 0 0 0 0 0 0 0.0008 0 
269 1 0.0170197 0.0973751 -0.0186536 0 0 0 4.15356 16.249 -17.3335 0 -1.05196e-05 0 0 0 0 0 0 0 0 0 0 0 0 0 0 0 0 0 0 0.0008 0 
312 2 0.0164539 0.100408 -0.019066 0 0 0 -1.55205 -3.31774 3.89105 0 -1.05196e-05 0 0 0 0 0 0 0 0 0 0 0 0 0 0 0 0 0 0 0.0008 0 
249 12 0.00235725 0.107887 -0.0190819 0 0 0 0.610255 -1.39862 0.0599472 0 -1.05196e-05 0 0 0 0 0 0 0 0 0 0 0 0 0 0 0 0 0 0 0.0008 0 
958 8 0.0099465 0.0472669 -0.0177333 0 0 0 0 -1.04905 -0.0001 0 -1.05196e-05 0 0 0 0 0 0 0 0 0 0 0 0 0 0 0 0 0 0 0.0008 0 
955 3 0.0119799 0.0370854 -0.0173993 0 0 0 0 -1.04905 -0.0001 0 -1.05196e-05 0 0 0 0 0 0 0 0 0 0 0 0 0 0 0 0 0 0 0.0008 0 
936 4 0.00713974 0.0510227 -0.017244 0 0 0 -1.12663 0.898573 -2.9771 0 -1.05196e-05 0 0 0 0 0 0 0 0 0 0 0 0 0 0 0 0 0 0 0.0008 0 
220 4 0.00358967 0.107073 -0.0168305 0 0 0 0.941151 -1.91727 0.673103 0 -1.05196e-05 0 0 0 0 0 0 0 0 0 0 0 0 0 0 0 0 0 0 0.0008 0 
68 2 0.00503724 0.107826 -0.0167648 0 0 0 0.452017 -2.21301 1.2171 0 -1.05196e-05 0 0 0 0 0 0 0 0 0 0 0 0 0 0 0 0 0 0 0.0008 0 
916 3 0.0179032 0.0375366 -0.0158417 0 0 0 0 -1.14715 -0.0001 0 -1.05196e-05 0 0 0 0 0 0 0 0 0 0 0 0 0 0 0 0 0 0 0.0008 0 
588 3 0.00189978 0.0400045 -0.0161977 0 0 0 0.669889 -1.30429 1.41532 0 -1.05196e-05 0 0 0 0 0 0 0 0 0 0 0 0 0 0 0 0 0 0 0.0008 0 
339 4 0.0167583 0.0544838 -0.0157027 0 0 0 6.15946 -10.5615 8.21652 0 -1.05196e-05 0 0 0 0 0 0 0 0 0 0 0 0 0 0 0 0 0 0 0.0008 0 
440 5 0.0165384 0.0782061 -0.0159115 0 0 0 -25.7653 18.0259 5.55479 0 -1.05196e-05 0 0 0 0 0 0 0 0 0 0 0 0 0 0 0 0 0 0 0.0008 0 
970 5 0.0184623 0.0756146 -0.0150578 0 0 0 -15.5388 -6.12437 17.796 0 -1.05196e-05 0 0 0 0 0 0 0 0 0 0 0 0 0 0 0 0 0 0 0.0008 0 
763 2 0.00819385 0.107543 -0.0152238 0 0 0 0.285256 1.39168 -2.46929 0 -1.05196e-05 0 0 0 0 0 0 0 0 0 0 0 0 0 0 0 0 0 0 0.0008 0 
899 6 0.0131162 0.0289804 -0.013597 0 0 0 1.45148e-13 -1.89763 -6.60955 0 -1.05196e-05 0 0 0 0 0 0 0 0 0 0 0 0 0 0 0 0 0 0 0.0008 0 
841 4 0.00220423 0.060366 -0.0135504 0 0 0 -5.10284 -1.65852 -18.6041 0 -1.05196e-05 0 0 0 0 0 0 0 0 0 0 0 0 0 0 0 0 0 0 0.0008 0 
465 2 0.00744813 0.0654661 -0.0136856 0 0 0 -0.00887311 1.53795 -6.54617 0 -1.05196e-05 0 0 0 0 0 0 0 0 0 0 0 0 0 0 0 0 0 0 0.0008 0 
872 9 0.00879553 0.109134 -0.0139921 0 0 0 -0.366187 -1.75394 -0.966558 0 -1.05196e-05 0 0 0 0 0 0 0 0 0 0 0 0 0 0 0 0 0 0 0.0008 0 
584 1 0.0023969 0.0586683 -0.0129956 0 0 0 0.395837 -1.07664 -2.18972 0 -1.05196e-05 0 0 0 0 0 0 0 0 0 0 0 0 0 0 0 0 0 0 0.0008 0 
371 1 0.00591587 0.0599897 -0.0122615 0 0 0 0.550719 -6.05592 -2.23395 0 -1.05196e-05 0 0 0 0 0 0 0 0 0 0 0 0 0 0 0 0 0 0 0.0008 0 
849 3 0.00900664 0.0707347 -0.0128711 0 0 0 8.07851 10.69 -30.2052 0 -1.05196e-05 0 0 0 0 0 0 0 0 0 0 0 0 0 0 0 0 0 0 0.0008 0 
307 9 0.0159596 0.0358747 -0.0115375 0 0 0 1.63325 -1.50581 -3.20705 0 -1.05196e-05 0 0 0 0 0 0 0 0 0 0 0 0 0 0 0 0 0 0 0.0008 0 
555 2 0.00974365 0.0880957 -0.0115852 0 0 0 -4.3977 -0.619909 -1.58295 0 -1.05196e-05 0 0 0 0 0 0 0 0 0 0 0 0 0 0 0 0 0 1 0.0008 0 
826 1 0.0171424 0.0487725 -0.0107392 0 0 0 2.63821 -1.64154 -1.10369 0 -1.05196e-05 0 0 0 0 0 0 0 0 0 0 0 0 0 0 0 0 0 0 0.0008 0 
747 8 0.0161917 0.0749372 -0.0104734 0 0 0 1.91118 0.949935 0.363204 0 -1.05196e-05 0 0 0 0 0 0 0 0 0 0 0 0 0 0 0 0 0 0 0.0008 0 
810 2 0.00661152 0.0867507 -0.0107421 0 0 0 1.9197 -3.21901 4.00468 0 -1.05196e-05 0 0 0 0 0 0 0 0 0 0 0 0 0 0 0 0 0 0 0.0008 0 
918 5 0.0165627 0.0308099 -0.00906827 0 0 0 0 -1.14715 -0.0001 0 -1.05196e-05 0 0 0 0 0 0 0 0 0 0 0 0 0 0 0 0 0 0 0.0008 0 
137 14 0.00829954 0.0409345 -0.0098204 0 0 0 0.306367 -0.606475 -0.485006 0 -1.05196e-05 0 0 0 0 0 0 0 0 0 0 0 0 0 0 0 0 0 0 0.0008 0 
478 2 0.00247438 0.0978987 -0.0099602 0 0 0 0.348132 -0.0304565 -2.30749 0 -1.05196e-05 0 0 0 0 0 0 0 0 0 0 0 0 0 0 0 0 0 0 0.0008 0 
803 8 0.014989 0.108716 -0.009523 0 0 0 -0.59352 0.161054 -0.493232 0 -1.05196e-05 0 0 0 0 0 0 0 0 0 0 0 0 0 0 0 0 0 0 0.0008 0 
934 1 0.00449724 0.0368812 -0.008391 0 0 0 -0.781582 -1.68854 0.386446 0 -1.05196e-05 0 0 0 0 0 0 0 0 0 0 0 0 0 0 0 0 0 0 0.0008 0 
292 2 0.0180602 0.0429693 -0.0071766 0 0 0 -2.77704 -2.00217 -13.5535 0 -1.05196e-05 0 0 0 0 0 0 0 0 0 0 0 0 0 0 0 0 0 0 0.0008 0 
376 9 0.0173252 0.0704714 -0.00767047 0 0 0 1.0352 5.80967 7.51904 0 -1.05196e-05 0 0 0 0 0 0 0 0 0 0 0 0 0 0 0 0 0 0 0.0008 0 
217 3 0.016891 0.0878899 -0.0078776 0 0 0 0.977426 16.1616 -13.9302 0 -1.05196e-05 0 0 0 0 0 0 0 0 0 0 0 0 0 0 0 0 0 0 0.0008 0 
31 5 0.0166342 0.10826 -0.00765872 0 0 0 -0.201438 0.0912161 4.51053 0 -1.05196e-05 0 0 0 0 0 0 0 0 0 0 0 0 0 0 0 0 0 0 0.0008 0 
954 2 0.0171138 0.0471233 -0.00600022 0 0 0 0 -1.04905 -0.0001 0 -1.05196e-05 0 0 0 0 0 0 0 0 0 0 0 0 0 0 0 0 0 0 0.0008 0 
660 7 0.0102106 0.050562 -0.00608931 0 0 0 2.40312 -8.9402 -5.08541 0 -1.05196e-05 0 0 0 0 0 0 0 0 0 0 0 0 0 0 0 0 0 0 0.0008 0 
917 3 0.0180489 0.0522772 -0.00644959 0 0 0 -0.684118 0.194012 2.71769 0 -1.05196e-05 0 0 0 0 0 0 0 0 0 0 0 0 0 0 0 0 0 0 0.0008 0 
743 2 0.00387925 0.0404507 -0.00467476 0 0 0 0.139708 -0.797317 0.73631 0 -1.05196e-05 0 0 0 0 0 0 0 0 0 0 0 0 0 0 0 0 0 0 0.0008 0 
24 3 0.0032839 0.0680395 -0.00481683 0 0 0 -2.28776 10.6752 -1.23135 0 -1.05196e-05 0 0 0 0 0 0 0 0 0 0 0 0 0 0 0 0 0 0 0.0008 0 
823 9 0.00839739 0.0814077 -0.00435761 0 0 0 -7.78872 8.5235 -7.34873 0 -1.05196e-05 0 0 0 0 0 0 0 0 0 0 0 0 0 0 0 0 0 0 0.0008 0 
715 4 0.00408449 0.10014 -0.00442912 0 0 0 0.93063 0.23093 -0.573596 0 -1.05196e-05 0 0 0 0 0 0 0 0 0 0 0 0 0 0 0 0 0 0 0.0008 0 
351 2 0.0155719 0.106793 -0.00461134 0 0 0 2.51723 -0.709151 1.24855 0 -1.05196e-05 0 0 0 0 0 0 0 0 0 0 0 0 0 0 0 0 0 0 0.0008 0 
956 4 0.0105917 0.0446923 -0.00273833 0 0 0 0 -1.04905 -0.0001 0 -1.05196e-05 0 0 0 0 0 0 0 0 0 0 0 0 0 0 0 0 0 0 0.0008 0 
299 1 0.0132438 0.0703263 -0.0034017 0 0 0 4.90406 7.08648 -15.1321 0 -1.05196e-05 0 0 0 0 0 0 0 0 0 0 0 0 0 0 0 0 0 0 0.0008 0 
902 2 0.0125248 0.0790518 -0.00373827 0 0 0 1.55064 0.359826 -3.40261 0 -1.05196e-05 0 0 0 0 0 0 0 0 0 0 0 0 0 0 0 0 0 0 0.0008 0 
702 2 0.00759447 0.108992 -0.00313697 0 0 0 -2.54451 0.583878 -3.02363 0 -1.05196e-05 0 0 0 0 0 0 0 0 0 0 0 0 0 0 0 0 0 0 0.0008 0 
512 13 0.0112147 0.108989 -0.00277708 0 0 0 0.814629 0.559449 -0.387711 0 -1.05196e-05 0 0 0 0 0 0 0 0 0 0 0 0 0 0 0 0 0 0 0.0008 0 
618 4 0.0129957 0.0715898 -0.00237627 0 0 0 -0.736694 3.32175 -0.37754 0 -1.05196e-05 0 0 0 0 0 0 0 0 0 0 0 0 0 0 0 0 0 0 0.0008 0 
942 2 0.00339647 0.0652106 -0.00112772 0 0 0 8.19566 8.28116 -29.0993 0 -1.05196e-05 0 0 0 0 0 0 0 0 0 0 0 0 0 0 0 0 0 0 0.0008 0 
695 4 0.0110474 0.102423 -0.00125023 0 0 0 2.01733 -0.579477 3.48972 0.0157575 -0.0202709 0.0097669 0 0 0 0 0 0 0 0 0 0 0 0 0 0 0 0 0 0.0008 0 
411 4 0.00994671 0.103507 -0.00112382 0 0 0 -0.736218 -1.7158 3.09914 -0.0157575 0.0202498 -0.0097669 0 0 0 0 0 0 0 0 0 0 0 0 0 0 0 0 0 0.0008 0 
556 2 0.0110041 0.0603574 4.8501e-05 0 0 0 1.26978 -4.73 -6.21907 0 -1.05196e-05 0 0 0 0 0 0 0 0 0 0 0 0 0 0 0 0 0 0 0.0008 0 
386 4 0.00890449 0.0917071 -0.000382255 0 0 0 1.44126 1.26846 -0.908344 0 -1.05196e-05 0 0 0 0 0 0 0 0 0 0 0 0 0 0 0 0 0 0 0.0008 0 
592 2 0.00644357 0.101085 -9.86163e-05 0 0 0 1.25784 -2.06997 3.07732 0 -1.05196e-05 0 0 0 0 0 0 0 0 0 0 0 0 0 0 0 0 0 0 0.0008 0 
931 6 0.00608463 0.0935413 0.00107165 0 0 0 1.06721 -2.16077 3.58865 0 -1.05196e-05 0 0 0 0 0 0 0 0 0 0 0 0 0 0 0 0 0 0 0.0008 0 
821 7 0.00308959 0.104199 0.000688677 0 0 0 -0.37411 -1.25261 -0.293057 0 -1.05196e-05 0 0 0 0 0 0 0 0 0 0 0 0 0 0 0 0 0 0 0.0008 0 
279 1 0.0138105 0.0744716 0.00215151 0 0 0 1.38962 -3.80127 4.4799 0 -1.05196e-05 0 0 0 0 0 0 0 0 0 0 0 0 0 0 0 0 0 0 0.0008 0 
71 3 0.00498847 0.104983 0.0023187 0 0 0 -0.181698 -1.43936 -0.731013 0 -1.05196e-05 0 0 0 0 0 0 0 0 0 0 0 0 0 0 0 0 0 0 0.0008 0 
543 5 0.00753178 0.105925 0.00195509 0 0 0 0.691001 -0.61435 -1.20233 0 -1.05196e-05 0 0 0 0 0 0 0 0 0 0 0 0 0 0 0 0 0 0 0.0008 0 
915 1 0.0138211 0.0386643 0.00316372 0 0 0 0 -1.14715 -0.0001 0 -1.05196e-05 0 0 0 0 0 0 0 0 0 0 0 0 0 0 0 0 0 0 0.0008 0 
848 2 0.0022751 0.0482749 0.00274318 0 0 0 -13.1849 -0.0357549 -52.0024 0 -1.05196e-05 0 0 0 0 0 0 0 0 0 0 0 0 0 0 0 0 0 0 0.0008 0 
233 8 0.00486908 0.0560343 0.00359879 0 0 0 0.024721 -2.91152 1.31035 0 -1.05196e-05 0 0 0 0 0 0 0 0 0 0 0 0 0 0 0 0 0 0 0.0008 0 
822 7 0.00427678 0.065348 0.00280959 0 0 0 -4.55828 9.798 -15.9061 0 -1.05196e-05 0 0 0 0 0 0 0 0 0 0 0 0 0 0 0 0 0 0 0.0008 0 
112 4 0.0106496 0.0873252 0.00334419 0 0 0 0.751634 0.301824 -2.81602 0 -1.05196e-05 0 0 0 0 0 0 0 0 0 0 0 0 0 0 0 0 0 0 0.0008 0 
706 6 0.0154661 0.0680242 0.00405276 0 0 0 -0.584661 -0.526671 -1.73596 0 -1.05196e-05 0 0 0 0 0 0 0 0 0 0 0 0 0 0 0 0 0 0 0.0008 0 
694 3 0.0119451 0.0699585 0.00376156 0 0 0 0.410756 -1.04976 -0.832318 0 -1.05196e-05 0 0 0 0 0 0 0 0 0 0 0 0 0 0 0 0 0 0 0.0008 0 
45 2 0.00682075 0.0747536 0.0045739 0 0 0 0.804904 -0.240841 0.494748 0 -1.05196e-05 0 0 0 0 0 0 0 0 0 0 0 0 0 0 0 0 0 0 0.0008 0 
680 7 0.00250559 0.0764483 0.0043625 0 0 0 0.40398 -1.96101 -1.39542 0 -1.05196e-05 0 0 0 0 0 0 0 0 0 0 0 0 0 0 0 0 0 0 0.0008 0 
599 5 0.00486864 0.0763808 0.0037952 0 0 0 1.05482 -1.1149 -0.33646 0 -1.05196e-05 0 0 0 0 0 0 0 0 0 0 0 0 0 0 0 0 0 0 0.0008 0 
188 4 0.00369119 0.0777237 0.00396916 0 0 0 -0.0868301 -0.988917 -0.966537 0 -1.05196e-05 0 0 0 0 0 0 0 0 0 0 0 0 0 0 0 0 0 0 0.0008 0 
703 8 0.0163885 0.109015 0.00412549 0 0 0 -0.148477 3.5555 2.39665 0 -1.05196e-05 0 0 0 0 0 0 0 0 0 0 0 0 0 0 0 0 0 0 0.0008 0 
957 4 0.0169093 0.0379942 0.00472 0 0 0 0 -1.04905 -0.0001 0 -1.05196e-05 0 0 0 0 0 0 0 0 0 0 0 0 0 0 0 0 0 0 0.0008 0 
937 9 0.011946 0.0442442 0.00484197 0 0 0 0 -1.0981 -0.0001 0 -1.05196e-05 0 0 0 0 0 0 0 0 0 0 0 0 0 0 0 0 0 0 0.0008 0 
246 6 0.017775 0.0478478 0.00496728 0 0 0 1.17981 -2.65428 -2.72058 0 -1.05196e-05 0 0 0 0 0 0 0 0 0 0 0 0 0 0 0 0 0 0 0.0008 0 
330 1 0.00717848 0.0770896 0.00486129 0 0 0 0.0479083 -2.03982 0.732589 0 -1.05196e-05 0 0 0 0 0 0 0 0 0 0 0 0 0 0 0 0 0 0 0.0008 0 
563 10 0.0161897 0.0763351 0.00622901 0 0 0 -0.87674 -0.702792 -2.23266 0 -1.05196e-05 0 0 0 0 0 0 0 0 0 0 0 0 0 0 0 0 0 0 0.0008 0 
501 6 0.00298245 0.0884501 0.00653626 0 0 0 0.0858052 -2.43333 1.09459 0 -1.05196e-05 0 0 0 0 0 0 0 0 0 0 0 0 0 0 0 0 0 0 0.0008 0 
948 5 0.00267945 0.0945841 0.00598343 0 0 0 -6.24354 -4.44037 -0.113286 0 -1.05196e-05 0 0 0 0 0 0 0 0 0 0 0 0 0 0 0 0 0 0 0.0008 0 
197 3 0.00220693 0.0960304 0.00657563 0 0 0 -2.51264 -2.2951 0.594364 0 -1.05196e-05 0 0 0 0 0 0 0 0 0 0 0 0 0 0 0 0 0 0 0.0008 0 
947 4 0.0185683 0.102286 0.00676277 0 0 0 -6.13343 2.27169 2.41702 0 -1.05196e-05 0 0 0 0 0 0 0 0 0 0 0 0 0 0 0 0 0 0 0.0008 0 
423 8 0.0169322 0.107975 0.00594136 0 0 0 -2.85157 -1.02856 3.15266 0 -1.05196e-05 0 0 0 0 0 0 0 0 0 0 0 0 0 0 0 0 0 0 0.0008 0 
290 6 0.00934489 0.0816468 0.00747533 0 0 0 -0.69978 -1.43442 -1.35963 0 -1.05196e-05 0 0 0 0 0 0 0 0 0 0 0 0 0 0 0 0 0 0 0.0008 0 
277 3 0.00857277 0.0950766 0.00855488 0 0 0 -0.632073 2.94887 0.917794 0 -1.05196e-05 0 0 0 0 0 0 0 0 0 0 0 0 0 0 0 0 0 0 0.0008 0 
23 2 0.00498331 0.106719 0.00801002 0 0 0 -1.89099 -0.239628 0.74629 0 -1.05196e-05 0 0 0 0 0 0 0 0 0 0 0 0 0 0 0 0 0 0 0.0008 0 
444 13 0.0005 0.0331167 0.00998494 0 0 0 -7.24341e-14 -8.48421e-20 -9.36803e-303 0 0 9.18701e-308 0 0 0 0 0 0 0 0 0 0 0 0 0 0 0 0 0 0.0008 0 
851 5 0.0042624 0.0509737 0.0105529 0 0 0 0.709947 -3.61031 -4.02868 0 -1.05196e-05 0 0 0 0 0 0 0 0 0 0 0 0 0 0 0 0 0 0 0.0008 0 
541 3 0.0122892 0.0808585 0.0104219 0 0 0 -0.438753 -2.34036 -2.07583 0 -1.05196e-05 0 0 0 0 0 0 0 0 0 0 0 0 0 0 0 0 0 0 0.0008 0 
912 6 0.0151566 0.0798381 0.0111515 0 0 0 1.86374 -6.41672 -5.65669 0 -1.05196e-05 0 0 0 0 0 0 0 0 0 0 0 0 0 0 0 0 0 0 0.0008 0 
900 3 0.0073619 0.0312263 0.012902 0 0 0 0 -1.1962 -0.0001 0 -1.05196e-05 0 0 0 0 0 0 0 0 0 0 0 0 0 0 0 0 0 0 0.0008 0 
938 2 0.0138775 0.0399571 0.0124127 0 0 0 0 -1.0981 -0.0001 0 -1.05196e-05 0 0 0 0 0 0 0 0 0 0 0 0 0 0 0 0 0 0 0.0008 0 
959 1 0.0170758 0.0407532 0.0128798 0 0 0 0 -1.04905 -0.0001 0 -1.05196e-05 0 0 0 0 0 0 0 0 0 0 0 0 0 0 0 0 0 0 0.0008 0 
385 8 0.00206543 0.0624481 0.0125229 0 0 0 0.14322 -2.91124 -1.38786 0 -1.05196e-05 0 0 0 0 0 0 0 0 0 0 0 0 0 0 0 0 0 0 0.0008 0 
216 3 0.00967117 0.068989 0.0121579 0 0 0 -1.79605 13.1765 -14.0705 0 -1.05196e-05 0 0 0 0 0 0 0 0 0 0 0 0 0 0 0 0 0 0 0.0008 0 
644 2 0.00355486 0.109008 0.0130324 0 0 0 0.653271 -0.608041 -0.598849 0 -1.05196e-05 0 0 0 0 0 0 0 0 0 0 0 0 0 0 0 0 0 0 0.0008 0 
939 3 0.015335 0.0348821 0.0141508 0 0 0 0 -1.0981 -0.0001 0 -1.05196e-05 0 0 0 0 0 0 0 0 0 0 0 0 0 0 0 0 0 0 0.0008 0 
609 5 0.0024533 0.0580635 0.0134438 0 0 0 5.16268 5.91655 -7.93017 0 -1.05196e-05 0 0 0 0 0 0 0 0 0 0 0 0 0 0 0 0 0 0 0.0008 0 
779 3 0.00888243 0.0995747 0.0138972 0 0 0 0.652081 -0.364615 -0.447369 0 -1.05196e-05 0 0 0 0 0 0 0 0 0 0 0 0 0 0 0 0 0 0 0.0008 0 
657 6 0.0141444 0.102983 0.0141076 0 0 0 -0.608999 -1.22752 -1.46369 0 -1.05196e-05 0 0 0 0 0 0 0 0 0 0 0 0 0 0 0 0 0 0 0.0008 0 
769 2 0.00967459 0.0772801 0.0147124 0 0 0 -2.20117 -3.40941 1.3246 0 -1.05196e-05 0 0 0 0 0 0 0 0 0 0 0 0 0 0 0 0 0 0 0.0008 0 
57 4 0.00658057 0.105905 0.014672 0 0 0 1.21298 -1.06762 -2.17199 0 -1.05196e-05 0 0 0 0 0 0 0 0 0 0 0 0 0 0 0 0 0 0 0.0008 0 
327 2 0.0034499 0.0659388 0.015626 0 0 0 2.16958 -4.61422 5.09943 0 -1.05196e-05 0 0 0 0 0 0 0 0 0 0 0 0 0 0 0 0 0 0 0.0008 0 
323 5 0.0124743 0.0767691 0.0157547 0 0 0 0.741343 4.15265 -1.79647 0 -1.05196e-05 0 0 0 0 0 0 0 0 0 0 0 0 0 0 0 0 0 0 0.0008 0 
857 3 0.0145895 0.0809744 0.0155207 0 0 0 2.34494 2.77028 -3.15625 0 -1.05196e-05 0 0 0 0 0 0 0 0 0 0 0 0 0 0 0 0 0 0 0.0008 0 