ITEM: TIMESTEP
11350000
ITEM: NUMBER OF ATOMS
1389
ITEM: BOX BOUNDS ff ff ff
-0.01 0.45
-0.15 0.15
-0.08 0.1
ITEM: ATOMS id type x y z ix iy iz vx vy vz fx fy fz c_cc_1 c_cc_2 c_cc_3 c_cc_4 c_cc_5 c_cc_6 c_cc_7 c_cc_8 c_cc_9 c_cc_10 c_cc_11 c_cc_12 c_cc_13 c_cc_14 c_cc_15 c_cc_16 f_fppacc radius 
29 5 0.00357832 -0.0189356 0.0342866 0 0 0 0.115132 2.35103 -1.13044 0 -0.000164368 0 0 0 0 0 0 0 0 0 0 0 0 0 0 0 0 0 66 0.002 
73 3 0.00430535 -0.0128922 0.0459116 0 0 0 0.737064 0.858657 -3.00949 0 -0.000164368 0 0 0 0 0 0 0 0 0 0 0 0 0 0 0 0 0 47 0.002 
357 7 0.00493359 0.0267667 -0.0247 0 0 0 0.966638 -2.61499 1.10311 0 -0.000164368 0 0 0 0 0 0 0 0 0 0 0 0 0 0 0 0 0 51 0.002 
319 4 0.00451888 0.0374644 0.0237339 0 0 0 0.314971 -1.75801 3.21287 0 -0.000164368 0 0 0 0 0 0 0 0 0 0 0 0 0 0 0 0 0 15 0.002 
41 1 0.0151208 0.0528446 -0.0354978 0 0 0 6.31443e-16 -1.01914e-15 -1.68318e-12 -1.38778e-17 0 0 1 0 0 0 0 0 0 0 0 0 0 0 0 0 0 0 14 0.002 
480 3 0.0160965 0.0564686 -0.0355022 0 0 0 -6.31088e-16 1.12684e-15 -1.68788e-12 1.38778e-17 0 0 1 0 0 0 0 0 0 0 0 0 0 0 0 0 0 0 54 0.002 
1239 4 0.0141388 0.0693827 -0.0315394 0 0 0 1.90951 -0.370089 1.40416 0 -0.000164368 0 0 0 0 0 0 0 0 0 0 0 0 0 0 0 0 0 9 0.002 
612 3 0.0176105 0.0749091 -0.0311287 0 0 0 -0.2695 0.47415 -2.78912 0 -0.000164368 0 0 0 0 0 0 0 0 0 0 0 0 0 0 0 0 0 27 0.002 
842 11 0.0180969 0.0718832 -0.00462998 0 0 0 -1.44914 -0.446158 -1.2643 0 -0.000164368 0 0 0 0 0 0 0 0 0 0 0 0 0 0 0 0 0 47 0.002 
70 6 0.00547238 0.0711818 -0.0148092 0 0 0 -0.705756 -3.04994 2.28532 0 -0.000164368 0 0 0 0 0 0 0 0 0 0 0 0 0 0 0 0 0 44 0.002 
934 1 0.00995257 0.0690681 -0.0130433 0 0 0 1.8745 0.719143 1.50724 0 -0.000164368 0 0 0 0 0 0 0 0 0 0 0 0 0 0 0 0 0 40 0.002 
926 2 0.00983132 0.0650462 -0.00659432 0 0 0 3.1679 0.153107 11.3052 0 -0.000164368 0 0 0 0 0 0 0 0 0 0 0 0 0 0 0 0 0 34 0.002 
882 3 0.00555989 0.0712778 -0.00738962 0 0 0 -0.521017 -2.70294 3.95015 0 -0.000164368 0 0 0 0 0 0 0 0 0 0 0 0 0 0 0 0 0 42 0.002 
268 5 0.0147615 0.0464033 -0.0118589 0 0 0 0.457678 6.42598 -9.43473 0 -0.000164368 0 0 0 0 0 0 0 0 0 0 0 0 0 0 0 0 0 73 0.002 
628 2 0.00890398 0.0699565 -0.000438671 0 0 0 1.77363 1.32187 -1.76617 0.291337 0.445007 -0.305504 0 1 0 0 0 0 0 0 0 0 0 0 0 0 0 0 49 0.002 
347 3 0.00582677 0.0682904 0.000983745 0 0 0 -0.600741 1.46549 -5.69291 -0.291337 -0.445336 0.305504 0 1 0 0 0 0 0 0 0 0 0 0 0 0 0 0 54 0.002 
84 8 0.00759772 0.0732157 0.00401963 0 0 0 0.488424 -0.822587 0.231878 0 -0.000164368 0 0 0 0 0 0 0 0 0 0 0 0 0 0 0 0 0 66 0.002 
1376 3 0.00814565 0.0737045 0.0103434 0 0 0 -0.686868 0.694745 -1.24619 0 -0.000164368 0 0 0 0 0 0 0 0 0 0 0 0 0 0 0 0 0 3 0.002 
874 1 0.0140141 0.0626489 0.0142333 0 0 0 -2.43284 -0.0272768 -0.611988 0 -0.000164368 0 0 0 0 0 0 0 0 0 0 0 0 0 0 0 0 0 42 0.002 
138 4 0.00323067 0.0678187 0.0184441 0 0 0 -0.156409 -0.36533 0.174247 0 -0.000164368 0 0 0 0 0 0 0 0 0 0 0 0 0 0 0 0 0 48 0.002 
924 7 0.00451336 0.0718561 0.0176309 0 0 0 -1.16572 -0.143058 0.718708 0 -0.000164368 0 0 0 0 0 0 0 0 0 0 0 0 0 0 0 0 0 27 0.002 
211 2 0.0110718 0.0737473 0.0179183 0 0 0 -0.890449 0.409925 -0.259879 0 -0.000164368 0 0 0 0 0 0 0 0 0 0 0 0 0 0 0 0 0 44 0.002 
550 10 0.00846799 0.0582944 0.0208629 0 0 0 -2.3299 -2.50295 -0.471132 0 -0.000164368 0 0 0 0 0 0 0 0 0 0 0 0 0 0 0 0 0 48 0.002 
948 3 0.00737484 0.0723135 0.0205257 0 0 0 0.136414 -0.460018 0.0123731 0 -0.000164368 0 0 0 0 0 0 0 0 0 0 0 0 0 0 0 0 0 41 0.002 
845 3 0.0170724 0.0734199 0.0192852 0 0 0 -0.146113 -0.324709 -0.286665 0 -0.000164368 0 0 0 0 0 0 0 0 0 0 0 0 0 0 0 0 0 47 0.002 
300 1 0.0138289 0.0733348 0.0329006 0 0 0 0.0708658 -0.145628 -0.0191951 0 -0.000164368 0 0 0 0 0 0 0 0 0 0 0 0 0 0 0 0 0 57 0.002 
140 4 0.00313702 0.0707169 0.0220431 0 0 0 -0.145537 -0.414962 -0.0112479 0 -0.000164368 0 0 0 0 0 0 0 0 0 0 0 0 0 0 0 0 0 51 0.002 
1341 3 0.0117377 0.0699093 0.0220108 0 0 0 -0.773234 -0.835966 -0.981257 0 -0.000164368 0 0 0 0 0 0 0 0 0 0 0 0 0 0 0 0 0 7 0.002 
891 2 0.01817 0.0592548 0.0239916 0 0 0 -0.252851 -1.18142 -0.464537 0 -0.000164368 0 0 0 0 0 0 0 0 0 0 0 0 0 0 0 0 0 33 0.002 
818 4 0.0127192 0.062486 0.0254485 0 0 0 0.516476 -1.0071 0.0632082 0 -0.000164368 0 0 0 0 0 0 0 0 0 0 0 0 0 0 0 0 0 47 0.002 
377 4 0.00376018 0.0656052 0.0247462 0 0 0 0.0604412 -0.438005 -0.157567 0 -0.000164368 0 0 0 0 0 0 0 0 0 0 0 0 0 0 0 0 0 61 0.002 
1160 2 0.00626692 0.0687364 0.0247734 0 0 0 0.0350154 -0.394889 -0.215527 0 -0.000164368 0 0 0 0 0 0 0 0 0 0 0 0 0 0 0 0 0 27 0.002 
1066 1 0.00631836 0.0747881 0.0241916 0 0 0 0.095057 -0.14194 -0.286319 0 -0.000164368 0 0 0 0 0 0 0 0 0 0 0 0 0 0 0 0 0 31 0.002 
916 8 0.00984675 0.0727801 0.0249439 0 0 0 0.132842 -0.0603788 -0.039456 0 -0.000164368 0 0 0 0 0 0 0 0 0 0 0 0 0 0 0 0 0 49 0.002 
189 5 0.00890546 0.060317 0.0268485 0 0 0 -0.0973515 -0.71805 0.246555 0 -0.000164368 0 0 0 0 0 0 0 0 0 0 0 0 0 0 0 0 0 49 0.002 
400 7 0.00461452 0.0612639 0.0257553 0 0 0 -0.284585 -0.0527632 -0.00789134 0 -0.000164368 0 0 0 0 0 0 0 0 0 0 0 0 0 0 0 0 0 60 0.002 
1207 4 0.0178032 0.065841 0.0262893 0 0 0 -0.271036 -1.07984 0.0246088 0 -0.000164368 0 0 0 0 0 0 0 0 0 0 0 0 0 0 0 0 0 16 0.002 
1299 5 0.0103092 0.0693965 0.0271913 0 0 0 0.0160937 -0.158396 -0.179338 -0.00101268 -0.000477422 0.000748509 0 0 0 0 1 0 0 0 0 0 0 0 0 0 0 0 17 0.002 
1317 6 0.00351897 0.0715261 0.0259475 0 0 0 0.0929646 -0.247582 -0.131159 0 -0.000164368 0 0 0 0 0 0 0 0 0 0 0 0 0 0 0 0 0 15 0.002 
835 12 0.0146031 0.0712704 0.0268049 0 0 0 -0.0176821 -0.473272 -0.688504 0 -0.000164368 0 0 0 0 0 0 0 0 0 0 0 0 0 0 0 0 0 46 0.002 
831 4 0.00400088 0.040296 0.0315155 0 0 0 1.70324 -6.38347 4.29855 0 -0.000164368 0 0 0 0 0 0 0 0 0 0 0 0 0 0 0 0 0 28 0.002 
767 5 0.00523971 0.0599898 0.0300731 0 0 0 -0.328423 -0.59252 0.208067 -0.000649255 -0.00195087 -0.00770797 0 0 0 0 0 0 0 0 0 0 0 0 0 0 0 0 43 0.002 
1232 7 0.0120988 0.0597033 0.0296833 0 0 0 -0.767253 -1.20209 0.106658 0 -0.000164368 0 0 0 0 0 0 0 0 0 0 0 0 0 0 0 0 0 10 0.002 
434 14 0.0165451 0.0619381 0.0286322 0 0 0 -0.594809 -1.01519 -0.281466 0 -0.000164368 0 0 0 0 0 0 0 0 0 0 0 0 0 0 0 0 0 65 0.002 
507 6 0.0031051 0.06412 0.0286786 0 0 0 0.0117821 0.145649 0.214978 0 -0.000164368 0 0 0 0 0 0 0 0 0 0 0 0 0 0 0 0 0 54 0.002 
313 1 0.00942731 0.0646742 0.0279912 0 0 0 -0.216675 -0.521283 -0.735094 0 -0.000164368 0 0 0 0 0 0 0 0 0 0 0 0 0 0 0 0 0 38 0.002 
1154 12 0.0138974 0.0668687 0.0292908 0 0 0 -0.444015 -0.462034 0.0805663 0 -0.000164368 0 0 0 0 0 0 0 0 0 0 0 0 0 0 0 0 0 24 0.002 
1101 3 0.00298921 0.0685119 0.0290371 0 0 0 -0.0131905 -0.357331 -0.0636024 0.00745923 0.00167666 -0.00624559 0 0 1 0 0 0 0 0 0 0 0 0 0 0 0 0 25 0.002 
1062 4 0.00696427 0.0686321 0.0292326 0 0 0 0.0202255 -0.175078 0.0616256 0.00516297 0.000840224 -0.00608225 0 0 1 1 1 0 0 0 0 0 0 0 0 0 0 0 36 0.002 
327 3 0.00332496 0.0734899 0.0296068 0 0 0 0.104752 -0.151044 -0.142334 0 -0.000164368 0 0 0 0 0 0 0 0 0 0 0 0 0 0 0 0 0 23 0.002 
257 6 0.00711487 0.0735146 0.0279671 0 0 0 0.080798 -0.24529 -0.255823 0 -0.000164368 0 0 0 0 0 0 0 0 0 0 0 0 0 0 0 0 0 44 0.002 
1279 4 0.0109952 0.0733765 0.0292637 0 0 0 0.0263371 -0.0834154 -0.0621035 0 -0.000164368 0 0 0 0 0 0 0 0 0 0 0 0 0 0 0 0 0 21 0.002 
846 5 0.00649792 0.0644413 0.0307842 0 0 0 0.294673 -0.359989 0.0303068 0 -0.000164368 0 0 0 0 0 0 0 0 0 0 0 0 0 0 0 0 0 38 0.002 
107 2 0.0146303 0.0604045 0.0329828 0 0 0 -0.39246 -0.64688 -0.024222 0 -0.000164368 0 0 0 0 0 0 0 0 0 0 0 0 0 0 0 0 0 53 0.002 
1203 5 0.00776533 0.0610306 0.0329885 0 0 0 -0.264239 -0.480798 -0.0683133 0.000649255 0.00162213 0.00770797 0 0 0 0 0 0 0 0 0 0 0 0 0 0 0 0 36 0.002 
1169 3 0.00311156 0.0645525 0.0329612 0 0 0 0.144978 -0.197631 -0.0766763 0 -0.000164368 0 0 0 0 0 0 0 0 0 0 0 0 0 0 0 0 0 10 0.002 
713 7 0.010766 0.0643011 0.0326722 0 0 0 -0.333533 -0.385986 -0.142542 0 -0.000164368 0 0 0 0 0 0 0 0 0 0 0 0 0 0 0 0 0 59 0.002 
990 2 0.00767817 0.0675738 0.0330089 0 0 0 -0.0681456 -0.304867 -0.00260736 0.00739373 -0.00129754 -0.00324039 0 0 0 1 0 0 0 0 0 0 0 0 0 0 0 0 38 0.002 
1302 3 0.0153049 0.0655647 0.0328163 0 0 0 -0.022465 -0.419467 0.0714607 0 -0.000164368 0 0 0 0 0 0 0 0 0 0 0 0 0 0 0 0 0 10 0.002 
468 8 0.00376247 0.0687843 0.032978 0 0 0 -0.0140289 -0.223521 -0.0193601 0 -0.000164368 0 0 0 0 0 0 0 0 0 0 0 0 0 0 0 0 0 60 0.002 
1156 1 0.0127356 0.0688397 0.0328921 0 0 0 0.0491365 -0.353669 0.0726465 0 -0.000164368 0 0 0 0 0 0 0 0 0 0 0 0 0 0 0 0 0 20 0.002 
888 1 0.00967378 0.07185 0.0330032 0 0 0 0.0476844 -0.173488 0.00138642 -0.0013686 0.000400856 -0.00296145 0 0 0 0 0 0 0 0 0 0 0 0 0 0 0 0 45 0.002 
457 6 0.017825 0.071933 0.0328026 0 0 0 0.14976 -0.114206 -0.0560492 1.26605e-05 -0.000107134 0.000281619 0 0 0 0 0 1 0 0 0 0 0 0 0 0 0 0 42 0.002 
1026 6 0.00587415 0.0735008 0.0329691 0 0 0 -0.0129527 -0.150245 0.00794123 0 -0.000164368 0 0 0 0 0 0 0 0 0 0 0 0 0 0 0 0 0 50 0.002 
746 1 0.00316884 0.0826755 -0.031711 0 0 0 0.637874 4.53209 1.182 0 -0.000164368 0 0 0 0 0 0 0 0 0 0 0 0 0 0 0 0 0 9 0.002 
1401 3 0.00925116 0.0907783 -0.0318878 0 0 0 2.35829 0.81435 1.16701 0 -0.000164368 0 0 0 0 0 0 0 0 0 0 0 0 0 0 0 0 0 0 0.002 
1068 4 0.0169486 0.0882421 -0.0314967 0 0 0 -0.966659 -1.09025 0.869254 0 -0.000164368 0 0 0 0 0 0 0 0 0 0 0 0 0 0 0 0 0 33 0.002 
658 8 0.00803144 0.095788 -0.0329772 0 0 0 0.231836 2.28748 0.143829 0 -0.000164368 0 0 0 0 0 0 0 0 0 0 0 0 0 0 0 0 0 40 0.002 
979 4 0.016771 0.0945622 -0.0329895 0 0 0 -0.316453 -0.344301 0.413898 0 -0.000164368 0 0 0 0 0 0 0 0 0 0 0 0 0 0 0 0 0 32 0.002 
955 2 0.0163961 0.0998916 -0.0329723 0 0 0 0.29206 2.21568 1.24872 0.0114193 -0.0149898 -0.0182644 0 1 0 0 0 0 0 0 0 0 0 0 0 0 0 0 18 0.002 
486 2 0.00348123 0.101275 -0.0319921 0 0 0 0.190127 -0.389427 0.0283355 0 -0.000164368 0 0 0 0 0 0 0 0 0 0 0 0 0 0 0 0 0 38 0.002 
881 1 0.00947966 0.102388 -0.0329323 0 0 0 0.178095 -0.380566 -0.215356 0 -0.000164368 0 0 0 0 0 0 0 0 0 0 0 0 0 0 0 0 0 39 0.002 
1031 3 0.00398027 0.106256 -0.032669 0 0 0 0.190637 -0.321026 0.0581722 0 -0.000164368 0 0 0 0 0 0 0 0 0 0 0 0 0 0 0 0 0 29 0.002 
1400 2 0.0113468 0.106402 -0.0325873 0 0 0 -0.35526 -0.434556 0.104479 0 -0.000164368 0 0 0 0 0 0 0 0 0 0 0 0 0 0 0 0 0 1 0.002 
849 4 0.0162077 0.107844 -0.0329507 0 0 0 -0.275271 -0.0649153 0.016247 0 -0.000164368 0 0 0 0 0 0 0 0 0 0 0 0 0 0 0 0 0 36 0.002 
745 7 0.0136496 0.0783778 -0.0331012 0 0 0 -1.1535 0.628649 2.36865 0.0237975 -0.0290129 0.0747946 0 0 0 0 0 0 0 0 0 0 0 0 0 0 0 0 42 0.002 
577 2 0.00603737 0.0861725 -0.0313968 0 0 0 -0.532045 0.947015 -3.61452 0 -0.000164368 0 0 0 0 0 0 0 0 0 0 0 0 0 0 0 0 0 31 0.002 
1364 11 0.00336728 0.0972601 -0.0311526 0 0 0 -0.0140635 -0.491087 0.0664167 0 -0.000164368 0 0 0 0 0 0 0 0 0 0 0 0 0 0 0 0 0 3 0.002 
1252 4 0.0123807 0.0988225 -0.0292042 0 0 0 -0.734637 1.78237 0.109354 0 -0.000164368 0 0 0 0 0 0 0 0 0 0 0 0 0 0 0 0 0 10 0.002 
1331 1 0.00695298 0.0993325 -0.0299984 0 0 0 -0.1892 -0.327767 0.295717 0 -0.000164368 0 0 0 0 0 0 0 0 0 0 0 0 0 0 0 0 0 1 0.002 
1356 1 0.01473 0.10323 -0.0316583 0 0 0 -1.65183 2.68167 -1.02249 -0.045349 0.00842906 -0.01677 1 1 0 0 0 0 0 0 0 0 0 0 0 0 0 0 2 0.002 
283 10 0.00661729 0.103515 -0.0296355 0 0 0 -0.385151 -0.433389 0.0927477 0 -0.000164368 0 0 0 0 0 0 0 0 0 0 0 0 0 0 0 0 0 40 0.002 
1383 2 0.0074916 0.10771 -0.0312253 0 0 0 -0.358614 -0.100272 0.183232 0 -0.000164368 0 0 0 0 0 0 0 0 0 0 0 0 0 0 0 0 0 2 0.002 
965 3 0.017671 0.102023 -0.0293884 0 0 0 0.25073 3.40716 -0.44531 -0.101457 -0.286019 0.2848 1 0 1 0 0 0 0 0 0 0 0 0 0 0 0 0 46 0.002 
814 13 0.0103555 0.103136 -0.0281307 0 0 0 0.0852993 1.14199 0.693142 0 -0.000164368 0 0 0 0 0 0 0 0 0 0 0 0 0 0 0 0 0 61 0.002 
1371 4 0.00302099 0.105226 -0.0285268 0 0 0 0.0135157 -0.286195 -0.0932215 0 -0.000164368 0 0 0 0 0 0 0 0 0 0 0 0 0 0 0 0 0 3 0.002 
680 6 0.0144146 0.106619 -0.0286283 0 0 0 -0.401592 -0.193337 -0.0851692 -0.00163505 0.000402687 1.86672e-05 0 0 0 0 0 1 0 0 0 0 0 0 0 0 0 0 69 0.002 
1081 4 0.0184129 0.106404 -0.0288382 0 0 0 -0.458303 -0.292886 -0.0647745 0 -0.000164368 0 0 0 0 0 0 0 0 0 0 0 0 0 0 0 0 0 32 0.002 
1238 1 0.00701816 0.086261 -0.0267488 0 0 0 0.507595 -0.385365 -1.75299 0 -0.000164368 0 0 0 0 0 0 0 0 0 0 0 0 0 0 0 0 0 11 0.002 
967 2 0.00731312 0.1075 -0.0266466 0 0 0 -0.079929 -0.172993 -0.0747038 0 -0.000164368 0 0 0 0 0 0 0 0 0 0 0 0 0 0 0 0 0 32 0.002 
336 9 0.0113854 0.107574 -0.0261999 0 0 0 -0.154261 -0.0973072 0.293695 0.00163505 -0.000731423 -1.86672e-05 0 0 0 0 0 1 0 0 0 0 0 0 0 0 0 0 54 0.002 
1189 5 0.00330308 0.107919 -0.0254572 0 0 0 -0.273075 -0.0740456 -0.179982 0 -0.000164368 0 0 0 0 0 0 0 0 0 0 0 0 0 0 0 0 0 17 0.002 
544 2 0.00581744 0.0993328 -0.0241438 0 0 0 0.371551 -0.447314 0.182223 0.0174735 -0.0261965 -0.0139954 0 1 0 0 0 0 0 0 0 0 0 0 0 0 0 0 57 0.002 
569 3 0.0117045 0.100938 -0.0227089 0 0 0 0.452628 -0.678953 0.270219 0 -0.000164368 0 0 0 0 0 0 0 0 0 0 0 0 0 0 0 0 0 10 0.002 
291 1 0.00659394 0.079873 -0.0224407 0 0 0 0.871878 -0.836704 -1.50196 0 -0.000164368 0 0 0 0 0 0 0 0 0 0 0 0 0 0 0 0 0 56 0.002 
644 7 0.00742739 0.0994046 -0.0204722 0 0 0 0.41905 -0.311073 0.216848 0 -0.000164368 0 0 0 0 0 0 0 0 0 0 0 0 0 0 0 0 0 62 0.002 
742 3 0.00320077 0.10089 -0.0215981 0 0 0 -0.37653 -0.734656 -0.413905 -0.0174735 0.0258678 0.0139954 0 1 0 0 0 0 0 0 0 0 0 0 0 0 0 0 46 0.002 
1174 9 0.00780646 0.103708 -0.0221153 0 0 0 0.0620091 -0.0601516 -0.350446 0 -0.000164368 0 0 0 0 0 0 0 0 0 0 0 0 0 0 0 0 0 12 0.002 
1394 7 0.01559 0.10487 -0.0200885 0 0 0 -0.0350436 -0.214581 0.801963 0 -0.000164368 0 0 0 0 0 0 0 0 0 0 0 0 0 0 0 0 0 0 0.002 
987 4 0.00304781 0.106893 -0.0215608 0 0 0 -0.0174612 -0.259419 -0.144841 0 -0.000164368 0 0 0 0 0 0 0 0 0 0 0 0 0 0 0 0 0 22 0.002 
1046 3 0.0109082 0.106672 -0.0219622 0 0 0 -0.100507 -0.119942 0.443369 0 -0.000164368 0 0 0 0 0 0 0 0 0 0 0 0 0 0 0 0 0 20 0.002 
1091 5 0.00640225 0.0858645 -0.0201803 0 0 0 -0.962793 0.616357 -2.8195 0 -0.000164368 0 0 0 0 0 0 0 0 0 0 0 0 0 0 0 0 0 31 0.002 
1253 2 0.0182649 0.0848755 -0.019327 0 0 0 -0.999486 0.412609 2.5323 0 -0.000164368 0 0 0 0 0 0 0 0 0 0 0 0 0 0 0 0 0 17 0.002 
460 2 0.00305562 0.0842314 -0.0157342 0 0 0 -0.151882 4.81498 0.788329 0 -0.000164368 0 0 0 0 0 0 0 0 0 0 0 0 0 0 0 0 0 49 0.002 
492 4 0.0105262 0.0999769 -0.0156312 0 0 0 0.009442 2.88875 -0.209201 0 -0.000164368 0 0 0 0 0 0 0 0 0 0 0 0 0 0 0 0 0 41 0.002 
194 2 0.00401298 0.108029 -0.0164057 0 0 0 -0.550145 -0.172095 -0.0635916 -0.00245212 -0.0562791 -0.0137078 0 0 0 0 0 0 0 0 0 0 0 0 0 0 0 0 40 0.002 
510 9 0.00768161 0.105653 -0.0160208 0 0 0 -0.543544 -0.405171 -0.119695 0 -0.000164368 0 0 0 0 0 0 0 0 0 0 0 0 0 0 0 0 0 91 0.002 
735 8 0.0135222 0.10796 -0.0157586 0 0 0 -0.152092 -0.0844487 -0.499959 0 -0.000164368 0 0 0 0 0 0 0 0 0 0 0 0 0 0 0 0 0 24 0.002 
998 5 0.00768869 0.0785832 -0.0138295 0 0 0 0.397463 -0.792779 -0.690989 0 -0.000164368 0 0 0 0 0 0 0 0 0 0 0 0 0 0 0 0 0 24 0.002 
962 6 0.0168678 0.0980346 -0.0150424 0 0 0 1.58356 0.844502 -0.0366128 0 -0.000164368 0 0 0 0 0 0 0 0 0 0 0 0 0 0 0 0 0 47 0.002 
685 7 0.00429953 0.102915 -0.0144775 0 0 0 -0.159243 -0.118103 -0.355718 0 -0.000164368 0 0 0 0 0 0 0 0 0 0 0 0 0 0 0 0 0 44 0.002 
968 2 0.0126314 0.104468 -0.0134294 0 0 0 0.333435 -0.43975 0.582736 0 -0.000164368 0 0 0 0 0 0 0 0 0 0 0 0 0 0 0 0 0 19 0.002 
1042 12 0.016359 0.104593 -0.0151912 0 0 0 0.40877 0.335831 -0.41367 0 -0.000164368 0 0 0 0 0 0 0 0 0 0 0 0 0 0 0 0 0 24 0.002 
1405 6 0.00492865 0.0866391 -0.00758264 0 0 0 0.233949 4.50332 6.68794 -0.494125 -0.575534 -0.571481 0 0 0 0 0 1 0 0 0 0 0 0 0 0 0 0 1 0.002 
136 5 0.0124418 0.0878813 -0.0141578 0 0 0 -1.01133 2.47517 -4.30237 0 -0.000164368 0 0 0 0 0 0 0 0 0 0 0 0 0 0 0 0 0 23 0.002 
1178 2 0.00334583 0.0980923 -0.0119613 0 0 0 0.087747 -0.635661 -0.234063 0 -0.000164368 0 0 0 0 0 0 0 0 0 0 0 0 0 0 0 0 0 17 0.002 
229 6 0.013905 0.0940976 -0.0111813 0 0 0 -0.19314 2.70894 -4.58356 0 -0.000164368 0 0 0 0 0 0 0 0 0 0 0 0 0 0 0 0 0 64 0.002 
1103 1 0.00809014 0.0955719 -0.0102145 0 0 0 -0.328127 0.951433 0.478245 0 -0.000164368 0 0 0 0 0 0 0 0 0 0 0 0 0 0 0 0 0 36 0.002 
803 4 0.0158694 0.101029 -0.0109415 0 0 0 -0.18207 -0.908244 -0.489988 0 -0.000164368 0 0 0 0 0 0 0 0 0 0 0 0 0 0 0 0 0 43 0.002 
1155 5 0.00302651 0.106857 -0.0108705 0 0 0 0.428283 0.212264 -0.201338 0 -0.000164368 0 0 0 0 0 0 0 0 0 0 0 0 0 0 0 0 0 29 0.002 
1205 1 0.00731615 0.107533 -0.0086716 0 0 0 -0.576633 -0.221888 0.618094 0 -0.000164368 0 0 0 0 0 0 0 0 0 0 0 0 0 0 0 0 0 22 0.002 
1291 4 0.00664257 0.103148 -0.00863515 0 0 0 -0.113357 -0.335863 -0.655932 0 -0.000164368 0 0 0 0 0 0 0 0 0 0 0 0 0 0 0 0 0 5 0.002 
475 2 0.0040256 0.107997 0.00947312 0 0 0 0.109728 -0.0105712 0.0916914 0 -0.000164368 0 0 0 0 0 0 0 0 0 0 0 0 0 0 0 0 0 36 0.002 
718 11 0.00313629 0.0832213 -0.0057845 0 0 0 -0.103939 -0.224274 -1.66482 0 -0.000164368 0 0 0 0 0 0 0 0 0 0 0 0 0 0 0 0 0 54 0.002 
551 10 0.007411 0.0869021 -0.00467639 0 0 0 1.67382 -2.98626 -0.038981 0.494125 0.575205 0.571481 0 0 0 0 0 1 0 0 0 0 0 0 0 0 0 0 37 0.002 
1186 8 0.00931732 0.102522 -0.00518047 0 0 0 -0.432053 -0.456567 -0.0201326 0 -0.000164368 0 0 0 0 0 0 0 0 0 0 0 0 0 0 0 0 0 20 0.002 
1414 9 0.0175656 0.102687 -0.00451775 0 0 0 0.110117 -1.03075 -1.01907 0 -0.000164368 0 0 0 0 0 0 0 0 0 0 0 0 0 0 0 0 0 0 0.002 
53 3 0.00307209 0.101703 -0.00370594 0 0 0 -0.536314 -1.0783 -0.411915 0 -0.000164368 0 0 0 0 0 0 0 0 0 0 0 0 0 0 0 0 0 70 0.002 
717 2 0.0130139 0.106645 -0.00358013 0 0 0 -0.673821 2.66942 -0.916761 0 -0.000164368 0 0 0 0 0 0 0 0 0 0 0 0 0 0 0 0 0 45 0.002 
539 8 0.00884145 0.107799 -0.00373071 0 0 0 -0.268246 0.220518 -0.240716 0 -0.000164368 0 0 0 0 0 0 0 0 0 0 0 0 0 0 0 0 0 46 0.002 
806 8 0.00746025 0.0975751 0.000391937 0 0 0 0.481151 -0.476166 -0.404778 0 -0.000164368 0 0 0 0 0 0 0 0 0 0 0 0 0 0 0 0 0 51 0.002 
1259 7 0.0106798 0.108022 -0.000181376 0 0 0 -0.184273 0.205963 -0.098805 -0.00736864 -0.0777372 0.0443943 0 0 0 0 0 0 1 0 0 0 0 0 0 0 0 0 10 0.002 
978 1 0.0146425 0.10781 -2.02598e-05 0 0 0 -0.241795 -0.012774 0.362389 0.0287385 0.000890362 -0.0126597 0 0 0 0 0 0 1 0 0 0 0 0 0 0 0 0 26 0.002 
253 2 0.00306139 0.0750827 0.00239498 0 0 0 0.0371998 -0.458116 0.337502 0 -0.000164368 0 0 0 0 0 0 0 0 0 0 0 0 0 0 0 0 0 43 0.002 
1185 6 0.00314819 0.0793661 0.000946246 0 0 0 0.0697031 -1.00736 -0.50379 0 -0.000164368 0 0 0 0 0 0 0 0 0 0 0 0 0 0 0 0 0 19 0.002 
630 2 0.00304056 0.0917021 0.000881404 0 0 0 0.125813 0.359981 -1.4513 0 -0.000164368 0 0 0 0 0 0 0 0 0 0 0 0 0 0 0 0 0 4 0.002 
705 14 0.0167584 0.101489 0.000968966 0 0 0 0.943882 1.85843 -0.240476 0 -0.000164368 0 0 0 0 0 0 0 0 0 0 0 0 0 0 0 0 0 52 0.002 
781 2 0.00342365 0.102068 0.00146459 0 0 0 0.157974 -0.754424 0.0176254 0 -0.000164368 0 0 0 0 0 0 0 0 0 0 0 0 0 0 0 0 0 46 0.002 
380 3 0.0112577 0.101402 0.00175215 0 0 0 0.995307 -0.0622961 -0.646646 0 -0.000164368 0 0 0 0 0 0 0 0 0 0 0 0 0 0 0 0 0 39 0.002 
1387 4 0.00694091 0.104144 0.0011168 0 0 0 -0.0525053 -0.234112 -0.237032 0 -0.000164368 0 0 0 0 0 0 0 0 0 0 0 0 0 0 0 0 0 1 0.002 
764 4 0.00380491 0.107523 0.00228883 0 0 0 0.204349 -0.0323596 -0.260404 0 -0.000164368 0 0 0 0 0 0 0 0 0 0 0 0 0 0 0 0 0 54 0.002 
1289 4 0.00398485 0.0866709 0.00462965 0 0 0 0.0247639 0.142247 -0.479946 0 -0.000164368 0 0 0 0 0 0 0 0 0 0 0 0 0 0 0 0 0 3 0.002 
1406 1 0.0031233 0.0945649 0.00510703 0 0 0 0.0601176 -0.354952 0.299402 0 -0.000164368 0 0 0 0 0 0 0 0 0 0 0 0 0 0 0 0 0 0 0.002 
364 3 0.0030705 0.0991311 0.00424788 0 0 0 0.00931963 -0.389381 0.0623564 0 -0.000164368 0 0 0 0 0 0 0 0 0 0 0 0 0 0 0 0 0 56 0.002 
222 8 0.00526706 0.103048 0.0051017 0 0 0 0.16025 -0.0939941 -0.040874 -2.11063e-05 0.00542744 -0.0109478 0 0 0 0 0 0 0 1 0 0 0 0 0 0 0 0 45 0.002 
1396 1 0.0118043 0.105922 0.00313873 0 0 0 0.854247 0.121322 -0.558554 0 -0.000164368 0 0 0 0 0 0 0 0 0 0 0 0 0 0 0 0 0 1 0.002 
154 5 0.00895172 0.0849989 0.00619931 0 0 0 0.639269 0.300897 -0.674498 0 -0.000164368 0 0 0 0 0 0 0 0 0 0 0 0 0 0 0 0 0 18 0.002 
1107 3 0.00696217 0.0958275 0.00643302 0 0 0 0.220555 -0.680112 0.258683 0 -0.000164368 0 0 0 0 0 0 0 0 0 0 0 0 0 0 0 0 0 12 0.002 
975 4 0.0119955 0.10373 0.00675007 0 0 0 0.233227 0.108986 -0.62435 0 -0.000164368 0 0 0 0 0 0 0 0 0 0 0 0 0 0 0 0 0 24 0.002 
213 4 0.0179935 0.105765 0.00641248 0 0 0 0.341155 0.0627902 0.0673903 0 -0.000164368 0 0 0 0 0 0 0 0 0 0 0 0 0 0 0 0 0 53 0.002 
1122 1 0.0075764 0.108021 0.00759674 0 0 0 0.0458091 -0.0243261 0.00670866 0.00260048 -0.0439399 0.0217328 0 0 0 0 0 0 0 0 0 0 0 0 0 0 0 0 28 0.002 
866 4 0.00474012 0.0876237 0.00913735 0 0 0 -0.0552358 0.176504 -0.41148 0 -0.000164368 0 0 0 0 0 0 0 0 0 0 0 0 0 0 0 0 0 27 0.002 
176 2 0.00852409 0.0906012 0.00852527 0 0 0 -0.0295422 0.374536 -0.547158 0 -0.000164368 0 0 0 0 0 0 0 0 0 0 0 0 0 0 0 0 0 55 0.002 
570 1 0.0160129 0.0903639 0.00768441 0 0 0 -0.488908 -0.31027 -0.51137 0 -0.000164368 0 0 0 0 0 0 0 0 0 0 0 0 0 0 0 0 0 44 0.002 
1275 2 0.0181774 0.0957066 0.00900482 0 0 0 0.957634 0.485804 0.774524 0 -0.000164368 0 0 0 0 0 0 0 0 0 0 0 0 0 0 0 0 0 18 0.002 
732 4 0.00387407 0.0968239 0.00879376 0 0 0 0.198896 0.0575138 0.0282839 0.00249169 -0.00449729 0.000958591 0 0 0 1 0 0 0 0 0 0 0 0 0 0 0 0 47 0.002 
151 8 0.010339 0.0973388 0.00906752 0 0 0 -0.328375 0.219428 -0.485708 -0.00411244 -0.0147043 0.000374623 0 0 0 0 0 0 0 1 0 0 0 0 0 0 0 0 31 0.002 
59 3 0.00368247 0.100714 0.00791164 0 0 0 0.0374217 0.0147864 0.0642239 -0.00241916 -0.00190141 0.00928699 0 0 1 1 0 0 0 1 0 0 0 0 0 0 0 0 35 0.002 
877 4 0.00974733 0.101225 0.00970275 0 0 0 -0.0661614 0.215804 -0.180817 0.00411244 0.0143756 -0.000374623 0 0 0 0 0 0 0 1 0 0 0 0 0 0 0 0 39 0.002 
1089 6 0.0165811 0.102288 0.0079099 0 0 0 0.340965 -0.262841 -0.0648709 0 -0.000164368 0 0 0 0 0 0 0 0 0 0 0 0 0 0 0 0 0 22 0.002 
1358 8 0.0030057 0.104136 0.00986726 0 0 0 0.0172237 -0.0198083 0.0706286 -5.14227e-05 0.00031379 0.000702261 0 0 1 0 0 0 0 0 0 0 0 0 0 0 0 0 3 0.002 
573 1 0.0115491 0.107544 0.00873053 0 0 0 0.0900822 -0.0901203 -0.094347 0 -0.000164368 0 0 0 0 0 0 0 0 0 0 0 0 0 0 0 0 0 71 0.002 
130 1 0.00317066 0.0761684 -0.0287456 0 0 0 0.669835 5.28396 0.106913 0 -0.000164368 0 0 0 0 0 0 0 0 0 0 0 0 0 0 0 0 0 43 0.002 
1311 3 0.00542105 0.0837512 0.0106279 0 0 0 0.58345 0.191151 0.219001 0 -0.000164368 0 0 0 0 0 0 0 0 0 0 0 0 0 0 0 0 0 8 0.002 
1314 3 0.00301124 0.0901375 0.0118699 0 0 0 -0.0229321 -0.0733381 -0.120813 -0.005616 -0.00601914 -0.00353465 0 0 1 0 0 0 0 0 0 0 0 0 0 0 0 0 4 0.002 
695 2 0.0130222 0.0937293 0.0100368 0 0 0 -0.449708 -0.0356146 -0.162733 0 -0.000164368 0 0 0 0 0 0 0 0 0 0 0 0 0 0 0 0 0 41 0.002 
1027 1 0.00681705 0.0983709 0.0110821 0 0 0 -0.342563 0.487993 -0.120232 0.0272357 -0.0112832 -0.00224551 0 0 0 0 0 0 0 0 0 0 0 0 0 0 0 0 33 0.002 
631 1 0.00302114 0.0986769 0.0122504 0 0 0 0.00608217 0.00515828 0.044422 -0.0261953 0.0102679 3.85112e-05 1 0 0 0 0 0 0 0 0 0 0 0 0 0 0 0 44 0.002 
1368 2 0.0146339 0.0987828 0.0119682 0 0 0 -0.246162 0.635394 -0.209841 0 -0.000164368 0 0 0 0 0 0 0 0 0 0 0 0 0 0 0 0 0 1 0.002 
1053 9 0.0186377 0.100451 0.0116336 0 0 0 0.346445 0.116434 -0.0154707 0 -0.000164368 0 0 0 0 0 0 0 0 0 0 0 0 0 0 0 0 0 30 0.002 
392 1 0.00836338 0.105012 0.0102383 0 0 0 0.202749 0.225819 0.0457755 0 -0.000164368 0 0 0 0 0 0 0 0 0 0 0 0 0 0 0 0 0 56 0.002 
149 7 0.0147424 0.105573 0.0104985 0 0 0 0.0499113 -0.222434 0.0477924 0 -0.000164368 0 0 0 0 0 0 0 0 0 0 0 0 0 0 0 0 0 68 0.002 
928 2 0.0179426 0.10797 0.0112562 0 0 0 -0.057337 0.0460033 0.0489931 0 -0.000164368 0 0 0 0 0 0 0 0 0 0 0 0 0 0 0 0 0 43 0.002 
1159 4 0.00303687 0.0861278 0.013471 0 0 0 0.0147104 0.367007 -8.2266e-05 0 -0.000164368 0 0 0 0 0 0 0 0 0 0 0 0 0 0 0 0 0 21 0.002 
375 4 0.0145927 0.0861806 0.0126717 0 0 0 -0.861226 3.562 -0.151416 0 -0.000164368 0 0 0 0 0 0 0 0 0 0 0 0 0 0 0 0 0 50 0.002 
652 4 0.0186829 0.0877578 0.0140527 0 0 0 -0.216377 1.45436 -0.568839 -0.140969 0.00609351 0.0593656 0 0 0 2 0 0 0 0 0 0 0 0 0 0 0 0 45 0.002 
942 2 0.00825035 0.0906777 0.0126962 0 0 0 -0.041495 0.0698101 -0.513833 0 -0.000164368 0 0 0 0 0 0 0 0 0 0 0 0 0 0 0 0 0 32 0.002 
1215 2 0.00303942 0.0945455 0.0122677 0 0 0 0.0159474 0.0438575 -0.0860342 0 -0.000164368 0 0 0 0 0 0 0 0 0 0 0 0 0 0 0 0 0 6 0.002 
370 4 0.0120497 0.0941159 0.0142425 0 0 0 -0.0568595 0.0151392 0.110092 0 -0.000164368 0 0 0 0 0 0 0 0 0 0 0 0 0 0 0 0 0 61 0.002 
531 1 0.0181832 0.0942248 0.0129307 0 0 0 -0.0938392 -0.155701 -0.09255 0 -0.000164368 0 0 0 0 0 0 0 0 0 0 0 0 0 0 0 0 0 73 0.002 
907 8 0.00315867 0.102491 0.0135715 0 0 0 0.0204229 0.0126481 0.105134 0.00105141 -0.0013989 -0.00174496 0 0 0 0 0 0 0 2 0 0 0 0 0 0 0 0 49 0.002 
887 1 0.0071756 0.101933 0.0129499 0 0 0 0.0327412 0.0503416 -0.0694959 0 -0.000164368 0 0 0 0 0 0 0 0 0 0 0 0 0 0 0 0 0 38 0.002 
102 1 0.0129676 0.102628 0.0126963 0 0 0 0.00318663 0.0682287 -0.112536 0 -0.000164368 0 0 0 0 0 0 0 0 0 0 0 0 0 0 0 0 0 53 0.002 
534 13 0.016849 0.10363 0.0133184 0 0 0 0.0380266 -0.0566184 0.150676 0 -0.000164368 0 0 0 0 0 0 0 0 0 0 0 0 0 0 0 0 0 53 0.002 
1381 4 0.00329592 0.106464 0.0131446 0 0 0 0.0433073 0.0191278 0.0771354 -3.77326e-05 -0.000243012 3.07549e-05 0 0 0 0 0 0 0 1 0 0 0 0 0 0 0 0 1 0.002 
1153 8 0.0112689 0.10634 0.0127585 0 0 0 -0.0460779 0.144685 0.118937 0 -0.000164368 0 0 0 0 0 0 0 0 0 0 0 0 0 0 0 0 0 38 0.002 
568 1 0.00727681 0.108005 0.0131123 0 0 0 0.0472147 -0.0368331 -0.0315214 0.00109035 -0.00291461 -0.00117329 0 0 0 0 0 0 0 0 0 0 0 0 0 0 0 0 24 0.002 
1322 2 0.0178789 0.075881 0.0158035 0 0 0 -0.660003 0.421926 -0.169476 0 -0.000164368 0 0 0 0 0 0 0 0 0 0 0 0 0 0 0 0 0 9 0.002 
411 1 0.00817754 0.0853181 0.0146799 0 0 0 0.108655 0.0213337 -0.0949893 0 -0.000164368 0 0 0 0 0 0 0 0 0 0 0 0 0 0 0 0 0 10 0.002 
1268 9 0.00561038 0.0881167 0.0159629 0 0 0 0.15953 -0.133913 0.173882 -0.00428066 -0.00821675 -0.00902949 0 0 0 0 0 0 0 0 1 0 0 0 0 0 0 0 15 0.002 
543 1 0.0157641 0.090435 0.0158833 0 0 0 -0.00226525 0.189308 -0.179506 0 -0.000164368 0 0 0 0 0 0 0 0 0 0 0 0 0 0 0 0 0 59 0.002 
26 9 0.00478758 0.09198 0.0149316 0 0 0 -0.172014 -0.0958184 -0.104267 0.005616 0.0056904 0.00353465 0 0 1 0 0 0 0 0 0 0 0 0 0 0 0 0 49 0.002 
1360 1 0.0031833 0.0954339 0.0164595 0 0 0 0.0717922 -0.0500191 -0.0154651 0 -0.000164368 0 0 0 0 0 0 0 0 0 0 0 0 0 0 0 0 0 5 0.002 
1359 6 0.00810093 0.0944074 0.0154587 0 0 0 -0.176609 0.0556179 0.165572 0 -0.000164368 0 0 0 0 0 0 0 0 0 0 0 0 0 0 0 0 0 6 0.002 
1077 1 0.0162697 0.0950004 0.0164115 0 0 0 -0.0117156 -0.189199 -0.00164738 0 -0.000164368 0 0 0 0 0 0 0 0 0 0 0 0 0 0 0 0 0 17 0.002 
992 6 0.00299825 0.0994271 0.0161723 0 0 0 0.000397088 -0.0164267 0.0719916 -0.00096472 -0.000226922 -0.000898349 1 0 0 0 0 1 0 0 0 0 0 0 0 0 0 0 21 0.002 
693 8 0.00968869 0.0991159 0.014516 0 0 0 0.0785519 0.0574002 -0.00405888 0 -0.000164368 0 0 0 0 0 0 0 0 0 0 0 0 0 0 0 0 0 45 0.002 
1088 8 0.0136057 0.100122 0.0157773 0 0 0 0.0569314 0.225637 0.0299787 0.000207348 -0.000349548 -2.00482e-06 0 0 0 0 0 0 0 1 0 0 0 0 0 0 0 0 17 0.002 
836 4 0.017452 0.0990553 0.0160297 0 0 0 -0.010578 -0.0762472 0.0318021 -0.000207348 2.0812e-05 2.00482e-06 0 0 0 0 0 0 0 1 0 0 0 0 0 0 0 0 47 0.002 
892 5 0.00666744 0.1049 0.0155848 0 0 0 -0.00162093 0.0487501 -0.0602513 0 -0.000164368 0 0 0 0 0 0 0 0 0 0 0 0 0 0 0 0 0 32 0.002 
1366 7 0.0105949 0.103924 0.0159047 0 0 0 0.0837534 0.00301145 0.133693 0 -0.000164368 0 0 0 0 0 0 0 0 0 0 0 0 0 0 0 0 0 5 0.002 
1119 4 0.0138485 0.107616 0.0158753 0 0 0 -0.0231154 0.0387259 0.233902 -0.000325777 -0.000140878 -0.000349552 0 0 0 2 0 0 0 0 0 0 0 0 0 0 0 0 36 0.002 
1020 3 0.0043851 0.107998 0.0166813 0 0 0 -0.0127228 -0.00968613 0.123855 0 -0.000164368 0 0 0 0 0 0 0 0 0 0 0 0 0 0 0 0 0 35 0.002 
133 1 0.0186237 0.107965 0.0153328 0 0 0 0.0116807 -0.0221024 0.0725647 -0.00055977 -0.000153153 0.000209014 1 0 0 0 0 0 0 0 0 0 0 0 0 0 0 0 57 0.002 
1196 5 0.0041268 0.0814489 0.0177929 0 0 0 0.0390291 -0.12995 -0.251716 0 -0.000164368 0 0 0 0 0 0 0 0 0 0 0 0 0 0 0 0 0 15 0.002 
843 4 0.00945878 0.0827279 0.0178928 0 0 0 -0.0674804 0.0796569 0.111988 0 -0.000164368 0 0 0 0 0 0 0 0 0 0 0 0 0 0 0 0 0 15 0.002 
721 5 0.013474 0.0834136 0.0171756 0 0 0 0.142227 -0.0720543 -0.13174 0 -0.000164368 0 0 0 0 0 0 0 0 0 0 0 0 0 0 0 0 0 43 0.002 
1172 8 0.00302364 0.0853879 0.0176997 0 0 0 0.00770153 -0.141741 -0.0783077 0 -0.000164368 0 0 0 0 0 0 0 0 0 0 0 0 0 0 0 0 0 30 0.002 
807 5 0.0167441 0.0871151 0.0179035 0 0 0 0.0676508 -0.0662539 -0.244317 0 -0.000164368 0 0 0 0 0 0 0 0 0 0 0 0 0 0 0 0 0 52 0.002 
167 2 0.00299969 0.0904132 0.0185695 0 0 0 -0.00715122 0.139365 -0.0753378 0.00064897 -0.00039067 0.000370684 0 1 0 0 0 0 0 0 0 0 0 0 0 0 0 0 41 0.002 
797 6 0.00711552 0.0909754 0.0182895 0 0 0 0.0702054 0.101259 -0.00366162 0.00428066 0.00788801 0.00902949 0 0 0 0 0 0 0 0 1 0 0 0 0 0 0 0 48 0.002 
244 1 0.0122571 0.0907031 0.0177986 0 0 0 0.0934358 -0.089139 -0.215661 0 -0.000164368 0 0 0 0 0 0 0 0 0 0 0 0 0 0 0 0 0 41 0.002 
1250 6 0.0184705 0.0918339 0.0185206 0 0 0 -0.100261 -0.109867 -0.00682339 0 -0.000164368 0 0 0 0 0 0 0 0 0 0 0 0 0 0 0 0 0 20 0.002 
995 2 0.00654833 0.0975185 0.0176008 0 0 0 -0.0250541 0.0232402 -0.0543351 0 -0.000164368 0 0 0 0 0 0 0 0 0 0 0 0 0 0 0 0 0 23 0.002 
638 6 0.0107895 0.0966046 0.0174774 0 0 0 0.0236498 0.0177369 0.00342873 0 -0.000164368 0 0 0 0 0 0 0 0 0 0 0 0 0 0 0 0 0 30 0.002 
923 10 0.00770153 0.101377 0.0172341 0 0 0 0.0666414 0.0541216 -0.0102162 0 -0.000164368 0 0 0 0 0 0 0 0 0 0 0 0 0 0 0 0 0 37 0.002 
973 12 0.0114419 0.101006 0.0190272 0 0 0 0.0105207 0.0285243 0.092059 0 -0.000164368 0 0 0 0 0 0 0 0 0 0 0 0 0 0 0 0 0 34 0.002 
508 9 0.00303667 0.104141 0.0172072 0 0 0 0.0127456 0.0182003 0.107782 -0.00101368 0.00114881 0.0017142 0 0 0 0 0 0 0 1 0 0 0 0 0 0 0 0 62 0.002 
489 10 0.0141156 0.104128 0.0178087 0 0 0 -0.030789 0.0416851 0.280165 -8.63023e-05 -0.000341742 -0.000115867 0 0 0 1 0 0 0 0 0 1 0 0 0 0 0 0 44 0.002 
1392 6 0.0180628 0.104401 0.0170592 0 0 0 -0.00822935 -0.0325209 0.0960771 0.000179578 -6.21516e-05 -0.000243573 1 0 0 0 0 0 0 0 0 0 0 0 0 0 0 0 2 0.002 