ITEM: TIMESTEP
2300000
ITEM: NUMBER OF ATOMS
4401
ITEM: BOX BOUNDS ff ff ff
-0.01 0.45
-0.15 0.15
-0.08 0.1
ITEM: ATOMS id type x y z ix iy iz vx vy vz fx fy fz c_cc_1 c_cc_2 c_cc_3 c_cc_4 c_cc_5 c_cc_6 c_cc_7 c_cc_8 c_cc_9 c_cc_10 c_cc_11 c_cc_12 c_cc_13 c_cc_14 c_cc_15 c_cc_16 f_fppacc radius c_cc_17 
4050 3 0.00248945 -0.00663879 -0.0602025 0 0 0 0.0822792 -0.777799 0.119361 0 -1.05196e-05 0 0 0 0 0 0 0 0 0 0 0 0 0 0 0 0 0 0 0.0008 0 
1974 9 0.0144804 -0.0149807 -0.0588896 0 0 0 0.00029453 -0.165043 0.0105304 0 -1.05196e-05 0 0 0 0 0 0 0 0 0 0 0 0 0 0 0 0 0 1 0.0008 0 
991 5 0.0158331 -0.0280876 -0.0540861 0 0 0 0.000311189 -0.196737 0.0979644 4.1305e-11 -6.35261e-06 3.13596e-06 0 0 0 0 0 0 0 0 0 0 0 0 0 0 0 0 0 0.0008 0 
955 3 0.00492923 -0.0123429 -0.0543225 0 0 0 0.215378 -10.0498 -2.98871 0 -1.05196e-05 0 0 0 0 0 0 0 0 0 0 0 0 0 0 0 0 0 2 0.0008 0 
3055 7 0.00593703 -0.00992599 -0.0526453 0 0 0 -7.26366 -22.2081 12.738 0 -1.05196e-05 0 0 0 0 0 0 0 0 0 0 0 0 0 0 0 0 0 1 0.0008 0 
1223 3 0.00765131 -0.0339209 -0.0506792 0 0 0 -0.0305484 -0.307284 0.220554 0 -1.05196e-05 0 0 0 0 0 0 0 0 0 0 0 0 0 0 0 0 0 2 0.0008 0 
1313 4 0.00564124 -0.0422282 -0.0440301 0 0 0 0.0245309 -0.299049 0.338632 0 -1.05196e-05 0 0 0 0 0 0 0 0 0 0 0 0 0 0 0 0 0 2 0.0008 0 
1687 6 0.0114623 -0.0335945 -0.0431662 0 0 0 0.628324 -12.793 6.23668 0 -1.05196e-05 0 0 0 0 0 0 0 0 0 0 0 0 0 0 0 0 0 3 0.0008 0 
4364 9 0.00181667 -0.0428665 -0.0404506 0 0 0 -1.51156 -7.63185 9.31222 0 -1.05196e-05 0 0 0 0 0 0 0 0 0 0 0 0 0 0 0 0 0 0 0.0008 0 
510 4 0.0120648 -0.0483858 -0.037373 0 0 0 0.0668817 -0.382805 0.419917 3.04018e-12 -3.41029e-06 3.74089e-06 0 0 0 0 0 0 0 0 0 0 0 0 0 0 0 0 1 0.0008 0 
3193 11 0.00404017 -0.0518684 -0.0319817 0 0 0 0.0779802 -0.0507178 0.0819121 1.18484e-17 -2.08228e-06 3.363e-06 0 0 0 0 0 0 0 0 0 0 0 0 0 0 0 0 0 0.0008 0 
4129 5 0.0165191 -0.0506398 -0.0299824 0 0 0 1.40926 -8.53668 16.1114 0 -1.05196e-05 0 0 0 0 0 0 0 0 0 0 0 0 0 0 0 0 0 0 0.0008 0 
3742 14 0.00195036 -0.0564329 -0.0225438 0 0 0 0.262957 -0.206951 0.30111 0 -1.05196e-05 0 0 0 0 0 0 0 0 0 0 0 0 0 0 0 0 0 1 0.0008 0 
4307 11 0.00822529 -0.0546627 -0.0215733 0 0 0 -0.116143 -2.45657 7.62343 0 -1.05196e-05 0 0 0 0 0 0 0 0 0 0 0 0 0 0 0 0 0 0 0.0008 0 
4347 5 0.0180135 -0.0541202 -0.020747 0 0 0 0.0966906 -5.497 3.91067 0 -1.05196e-05 0 0 0 0 0 0 0 0 0 0 0 0 0 0 0 0 0 0 0.0008 0 
596 3 0.0141768 -0.0560573 -0.0177735 0 0 0 3.20818 -5.07885 15.4681 0 -1.05196e-05 0 0 0 0 0 0 0 0 0 0 0 0 0 0 0 0 0 0 0.0008 0 
4306 9 0.0160242 -0.0572819 -0.0150271 0 0 0 4.70038 -5.7276 18.7621 0.0443182 0.511908 0.0751955 0 0 0 0 0 0 0 0 0 0 0 0 0 0 0 0 0 0.0008 0 
4327 6 0.0178765 -0.0557709 -0.0153206 0 0 0 -3.87749e-13 -2.05429 8.64086 0 -1.05196e-05 0 0 0 0 0 0 0 0 0 0 0 0 0 0 0 0 0 0 0.0008 0 
604 2 0.00949954 -0.0601135 -0.0100444 0 0 0 -0.0113097 -0.0157722 0.0843739 2.05096e-18 -2.53692e-07 1.35713e-06 0 0 0 0 0 0 0 0 0 0 0 0 0 0 0 0 0 0.0008 0 
1352 4 0.00995642 -0.0606427 -0.0072134 0 0 0 0.0138506 -0.00220611 0.0118016 3.37197e-18 -2.53692e-07 1.35713e-06 0 0 0 0 0 0 0 0 0 0 0 0 0 0 0 0 1 0.0008 0 
924 3 0.0122204 -0.0606413 -0.00722082 0 0 0 0.082613 -0.0151276 0.0809255 -5.91761e-19 -2.53692e-07 1.35713e-06 0 0 0 0 0 0 0 0 0 0 0 0 0 0 0 0 0 0.0008 0 
414 7 0.0046942 -0.0609356 -0.00498313 0 0 0 -0.00831504 3.15183e-12 -0.0278889 1.19811e-18 0 4.8131e-18 0 0 0 0 0 0 0 0 0 0 0 0 0 0 0 0 0 0.0008 0 
690 7 0.00080467 -0.0609356 -0.00423243 0 0 0 0.000279749 6.37453e-12 0.00754376 -3.29524e-20 0 1.20325e-18 0 0 0 0 0 0 0 0 0 0 0 0 0 0 0 0 0 0.0008 0 
3631 2 0.00997997 -0.0609356 -0.00437679 0 0 0 0.221857 -1.84335e-12 0.0799322 5.25976e-06 0 1.59961e-08 0 0 0 0 0 0 0 0 0 0 0 0 0 0 0 0 0 0.0008 0 
1920 3 0.00235967 -0.0609356 -0.00335157 0 0 0 0.00384768 5.75069e-09 0.0310002 6.18376e-15 1.15362e-11 4.98209e-14 0 0 0 0 0 0 0 0 0 0 0 0 0 0 0 0 0 0.0008 0 
1118 3 0.00416831 -0.0609356 -0.00296252 0 0 0 0.0260388 3.4741e-12 0.00791204 1.24104e-18 0 -1.19805e-18 0 0 0 0 0 0 0 0 0 0 0 0 0 0 0 0 0 0.0008 0 
1681 5 0.0138331 -0.0427428 -0.00331422 0 0 0 3.14561 -1.08942 -9.1192 0 -1.05196e-05 0 0 0 0 0 0 0 0 0 0 0 0 0 0 0 0 0 3 0.0008 0 
72 4 0.000936331 -0.0609356 -0.00259969 0 0 0 -0.00775785 -6.15369e-10 0.0147567 1.39762e-15 3.09548e-11 -2.65859e-15 0 0 0 0 0 0 0 0 0 0 0 0 0 0 0 0 0 0.0008 0 
18 2 0.0119795 -0.0609356 -0.0023456 0 0 0 -0.0302909 -6.51627e-12 -0.02118 1.41047e-18 0 -2.41725e-18 0 0 0 0 0 0 0 0 0 0 0 0 0 0 0 0 0 0.0008 0 
1802 7 0.0142803 -0.0609356 -0.00183555 0 0 0 0.0401822 -4.41951e-06 -0.10933 -4.97143e-11 -1.53997e-09 1.35265e-10 0 0 0 0 0 0 0 0 0 0 0 0 0 0 0 0 0 0.0008 0 
1200 7 0.00140767 -0.0609356 -0.000956658 0 0 0 0.0219051 2.51403e-13 0.0127673 -2.39588e-18 0 -1.19797e-18 0 0 0 0 0 0 0 0 0 0 0 0 0 0 0 0 0 0.0008 0 
731 2 0.00350481 -0.0609356 -0.00148325 0 0 0 0.0148144 -3.93811e-12 0.00434859 1.55355e-18 0 1.8246e-19 0 0 0 0 0 0 0 0 0 0 0 0 0 0 0 0 0 0.0008 0 
1887 11 0.00540714 -0.0609356 -0.00122091 0 0 0 0.00483439 3.4741e-12 0.042907 -4.50717e-19 0 -4.8342e-18 0 0 0 0 0 0 0 0 0 0 0 0 0 0 0 0 0 0.0008 0 
585 3 0.00721701 -0.0609356 -0.00138445 0 0 0 0.0088721 -1.01158e-08 0.0459938 -2.37445e-14 -1.0803e-09 -1.19196e-13 0 0 0 0 0 0 0 0 0 0 0 0 0 0 0 0 0 0.0008 0 
1774 1 0.0161782 -0.0609356 -0.000900597 0 0 0 0.061318 -9.15232e-12 -0.00936867 -2.2589e-16 9.27936e-14 3.35788e-17 0 0 0 0 0 0 0 0 0 0 0 0 0 0 0 0 1 0.0008 0 
1002 3 0.00411502 -0.0609356 1.84626e-05 0 0 0 -0.00387967 9.36529e-05 0.014803 1.71688e-05 -2.23649e-07 -1.89818e-05 0 0 1 0 0 0 0 0 0 0 0 0 0 0 0 0 1 0.0008 0 
1470 6 0.00720202 -0.0609356 0.000227243 0 0 0 0.0201897 4.44364e-08 0.0476889 2.4886e-13 -1.29538e-10 5.8769e-13 0 0 0 0 0 0 0 0 0 0 0 0 0 0 0 0 0 0.0008 0 
1871 2 0.000849104 -0.0609356 0.000657284 0 0 0 0.00280959 2.34616e-12 0.014307 2.53566e-19 0 -2.40677e-18 0 0 0 0 0 0 0 0 0 0 0 0 0 0 0 0 0 0.0008 0 
101 5 0.00263596 -0.0609349 0.00062771 0 0 0 -0.0111768 -0.0025553 -0.00385823 -1.97128e-05 -1.21233e-05 2.25055e-05 0 0 1 0 0 0 0 0 0 0 0 0 0 0 0 0 1 0.0008 0 
209 4 0.00562364 -0.0609356 0.000689055 0 0 0 -0.000729263 -5.54945e-12 0.0126682 -4.1336e-20 -1.69407e-21 -1.1981e-18 0 0 0 0 0 0 0 0 0 0 0 0 0 0 0 0 0 0.0008 0 
1039 2 0.00869393 -0.0609099 0.00100949 0 0 0 -0.0501989 -0.0201884 0.0401654 0 -1.05196e-05 0 0 0 0 0 0 0 0 0 0 0 0 0 0 0 0 0 0 0.0008 0 
3997 2 0.00749495 -0.057831 0.000726113 0 0 0 1.14662 1.20103 3.70763 0 -1.05196e-05 0 0 0 0 0 0 0 0 0 0 0 0 0 0 0 0 0 0 0.0008 0 
206 1 0.0027385 -0.0609356 0.00225467 0 0 0 -0.00879997 1.79841e-06 0.00170432 -4.42326e-12 3.33405e-09 8.58337e-13 0 0 0 0 0 0 0 0 0 0 0 0 0 0 0 0 0 0.0008 0 
280 2 0.00428914 -0.0609356 0.00175098 0 0 0 -0.0255702 -5.87173e-12 -0.00226384 2.39606e-18 0 1.54772e-19 0 0 0 0 0 0 0 0 0 0 0 0 0 0 0 0 0 0.0008 0 
1972 6 0.00386855 -0.0609356 0.00341058 0 0 0 -0.0270567 -7.6097e-05 0.0281406 5.74812e-10 -1.36742e-07 -5.97484e-10 0 0 0 0 0 0 0 0 0 0 0 0 0 0 0 0 0 0.0008 0 
553 2 0.00601303 -0.0609356 0.00344402 0 0 0 -0.00940941 -2.48789e-12 0.00329002 1.20862e-18 0 -3.22332e-19 0 0 0 0 0 0 0 0 0 0 0 0 0 0 0 0 1 0.0008 0 
839 1 0.00801251 -0.0609356 0.00281889 0 0 0 0.0290836 -1.96578e-06 0.148551 2.15091e-06 3.29903e-08 -4.81795e-06 0 0 0 0 0 0 0 0 0 0 0 0 0 0 0 0 0 0.0008 0 
4361 1 0.00398675 -0.0583156 0.00332507 0 0 0 -0.778459 0.167443 6.88031 0 -1.05196e-05 0 0 0 0 0 0 0 0 0 0 0 0 0 0 0 0 0 0 0.0008 0 
733 3 0.00123516 -0.0609356 0.00375654 0 0 0 -0.00568027 -4.09924e-12 0.0345844 -5.99036e-19 0 4.79205e-18 0 0 0 0 0 0 0 0 0 0 0 0 0 0 0 0 0 0.0008 0 
317 1 0.004886 -0.0609356 0.00464675 0 0 0 0.00724018 1.11987e-07 0.00100522 -4.30681e-12 1.85503e-10 -4.78308e-14 0 0 0 0 0 0 0 0 0 0 0 0 0 0 0 0 0 0.0008 0 
1890 2 0.0142651 -0.0609356 0.00395008 0 0 0 0.0223565 2.18502e-12 0.0569083 -2.41712e-18 0 -9.62607e-18 0 0 0 0 0 0 0 0 0 0 0 0 0 0 0 0 0 0.0008 0 
2205 3 0.0183445 -0.0609356 0.00428893 0 0 0 -0.0384521 7.34807e-13 0.0581176 -4.79189e-18 0 -4.84449e-18 0 0 0 0 0 0 0 0 0 0 0 0 0 0 0 0 0 0.0008 0 
154 3 0.00741064 -0.0609356 0.0047359 0 0 0 -0.00126639 -4.58265e-12 -0.0112836 7.99484e-20 0 -1.19799e-18 0 0 0 0 0 0 0 0 0 0 0 0 0 0 0 0 1 0.0008 0 
1894 5 0.00499451 -0.0608228 0.00625031 0 0 0 -0.0570876 0.00215434 0.0115231 -4.73745e-12 -2.5251e-07 -1.35738e-06 0 0 0 0 0 0 0 0 0 0 0 0 0 0 0 0 0 0.0008 0 
2069 4 0.00662011 -0.0608206 0.00626184 0 0 0 -0.0553077 -0.00491302 -0.0262823 -6.30725e-18 -2.53692e-07 -1.35713e-06 0 0 0 0 0 0 0 0 0 0 0 0 0 0 0 0 0 0.0008 0 
2966 5 0.0125356 -0.0606969 0.00692347 0 0 0 -0.07273 0.00291405 0.0155888 -3.99586e-19 -2.53692e-07 -1.35713e-06 0 0 0 0 0 0 0 0 0 0 0 0 0 0 0 0 0 0.0008 0 
570 3 0.0126271 -0.0602345 0.00939701 0 0 0 -0.036441 0.00540303 0.0289036 7.0252e-19 -2.53692e-07 -1.35713e-06 0 0 0 0 0 0 0 0 0 0 0 0 0 0 0 0 0 0.0008 0 
210 4 0.0100777 -0.0601586 0.00980334 0 0 0 -0.0860553 0.00620833 0.0332116 -9.77691e-18 -2.53692e-07 -1.35713e-06 0 0 0 0 0 0 0 0 0 0 0 0 0 0 0 0 12 0.0008 0 
1367 1 0.00585063 -0.0599985 0.0106598 0 0 0 0.0375775 -0.047659 -0.254953 3.58872e-18 -2.53692e-07 -1.35713e-06 0 0 0 0 0 0 0 0 0 0 0 0 0 0 0 0 0 0.0008 0 
2610 5 0.0159841 -0.054481 0.0110569 0 0 0 0.182258 1.53321 -2.35923 0 -1.05196e-05 0 0 0 0 0 0 0 0 0 0 0 0 0 0 0 0 0 0 0.0008 0 
248 8 0.0114355 -0.0598047 0.0116966 0 0 0 -0.00571712 0.0103975 0.0556217 -8.16324e-19 -2.53692e-07 -1.35713e-06 0 0 0 0 0 0 0 0 0 0 0 0 0 0 0 0 0 0.0008 0 
2352 2 0.0146469 -0.05936 0.0136899 0 0 0 0.0459509 0.0154077 0.109318 0 -1.05196e-05 0 0 0 0 0 0 0 0 0 0 0 0 0 0 0 0 0 0 0.0008 0 
1591 4 0.0173918 -0.0593565 0.0140941 0 0 0 -0.175887 0.00981507 0.0525059 -9.05031e-18 -2.53692e-07 -1.35713e-06 0 0 0 0 0 0 0 0 0 0 0 0 0 0 0 0 0 0.0008 0 
2985 2 0.0134407 -0.0590812 0.0154363 0 0 0 -0.0808961 0.0294307 0.15924 0 -1.05196e-05 0 0 0 0 0 0 0 0 0 0 0 0 0 0 0 0 0 0 0.0008 0 
2656 2 0.0147234 -0.0599663 0.0194684 0 0 0 -0.0754369 -0.150696 0.145941 0 -1.05196e-05 0 0 0 0 0 0 0 0 0 0 0 0 0 0 0 0 0 0 0.0008 0 
4314 5 0.00347269 -0.0555012 0.0198774 0 0 0 0.316395 4.21178 9.36145 0 -1.05196e-05 0 0 0 0 0 0 0 0 0 0 0 0 0 0 0 0 0 0 0.0008 0 
2353 3 0.00990356 -0.0515204 0.0225683 0 0 0 0.0497291 0.242227 1.35095 0 -1.05196e-05 0 0 0 0 0 0 0 0 0 0 0 0 0 0 0 0 0 2 0.0008 0 
770 2 0.0112297 -0.131518 0.0274484 0 0 0 -0.0419071 -1.19418 0.0860476 0 -1.05196e-05 0 0 0 0 0 0 0 0 0 0 0 0 0 0 0 0 0 0 0.0008 0 
458 3 0.0175018 -0.0776011 0.0336818 0 0 0 0.0362636 -0.665084 0.0815322 0 -1.05196e-05 0 0 0 0 0 0 0 0 0 0 0 0 0 0 0 0 0 0 0.0008 0 
295 1 0.0142541 -0.0247091 0.035257 0 0 0 0.37249 -1.75735 -0.059025 0 -1.05196e-05 0 0 0 0 0 0 0 0 0 0 0 0 0 0 0 0 0 1 0.0008 0 
1217 4 0.00455975 -0.00597609 0.0379612 0 0 0 0.312085 -1.90961 -0.0887338 0 -1.05196e-05 0 0 0 0 0 0 0 0 0 0 0 0 0 0 0 0 0 1 0.0008 0 
1888 3 0.0158295 -0.00718087 0.0427592 0 0 0 0.576499 -8.31206 -4.53058 0 -1.05196e-05 0 0 0 0 0 0 0 0 0 0 0 0 0 0 0 0 0 1 0.0008 0 
4170 8 0.0168219 -0.0361192 0.044553 0 0 0 0.156282 -2.2163 -0.76793 0 -1.05196e-05 0 0 0 0 0 0 0 0 0 0 0 0 0 0 0 0 0 0 0.0008 0 
4379 9 0.00302168 -0.0325073 0.0450648 0 0 0 0.100901 0.206132 0.242877 0 -1.05196e-05 0 0 0 0 0 0 0 0 0 0 0 0 0 0 0 0 0 0 0.0008 0 
4342 2 0.0110531 -0.035507 0.0469481 0 0 0 0.537733 7.40215 4.99871 0 -1.05196e-05 0 0 0 0 0 0 0 0 0 0 0 0 0 0 0 0 0 0 0.0008 0 
4428 3 0.00250375 -0.031741 0.048318 0 0 0 8.63049 26.0646 9.48854 0 -1.05196e-05 0 0 0 0 0 0 0 0 0 0 0 0 0 0 0 0 0 0 0.0008 0 
3084 9 0.00414444 -0.0313611 0.0488246 0 0 0 -0.0974191 5.30805 2.8215 0 -1.05196e-05 0 0 0 0 0 0 0 0 0 0 0 0 0 0 0 0 0 1 0.0008 0 
4438 3 0.0130589 -0.0256116 0.052111 0 0 0 -15.9874 24.2453 15.5497 0 -1.05196e-05 0 0 0 0 0 0 0 0 0 0 0 0 0 0 0 0 0 0 0.0008 0 
3869 8 0.00432058 -0.0286015 0.0534071 0 0 0 -0.26861 -0.666642 -0.312522 0 -1.05196e-05 0 0 0 0 0 0 0 0 0 0 0 0 0 0 0 0 0 0 0.0008 0 
4399 15 0.0135204 -0.0240939 0.0537145 0 0 0 -14.3531 27.822 12.0514 0 -1.05196e-05 0 0 0 0 0 0 0 0 0 0 0 0 0 0 0 0 0 0 0.0008 0 
1004 5 0.012286 -0.0170675 0.0581936 0 0 0 -0.00988607 -0.270729 -0.0533558 0 -1.05196e-05 0 0 0 0 0 0 0 0 0 0 0 0 0 0 0 0 0 4 0.0008 0 
3615 4 0.0187444 -0.017033 0.0584939 0 0 0 -0.000344312 -0.258844 -0.0261279 0 -1.05196e-05 0 0 0 0 0 0 0 0 0 0 0 0 0 0 0 0 0 0 0.0008 0 
2641 8 0.0130763 -0.0030661 0.0605601 0 0 0 0.000209516 -0.0876875 0.0135925 0 -1.05196e-05 0 0 0 0 0 0 0 0 0 0 0 0 0 0 0 0 0 1 0.0008 0 
1451 12 0.00304264 0.00084454 -0.058704 0 0 0 0.41628 -6.60121 -0.286756 0 -1.05196e-05 0 0 0 0 0 0 0 0 0 0 0 0 0 0 0 0 0 3 0.0008 0 
4383 5 0.00723636 0.00439672 -0.0586078 0 0 0 0.00432859 -6.76638 0.410442 0 -1.05196e-05 0 0 0 0 0 0 0 0 0 0 0 0 0 0 0 0 0 0 0.0008 0 
4381 2 0.0154359 0.0074725 -0.0584197 0 0 0 2.00701 -3.81557 0.188767 0 -1.05196e-05 0 0 0 0 0 0 0 0 0 0 0 0 0 0 0 0 0 0 0.0008 0 
692 2 0.0185625 0.0200936 -0.0577087 0 0 0 0.061492 -0.607303 -0.225496 0 -1.05196e-05 0 0 0 0 0 0 0 0 0 0 0 0 0 0 0 0 0 0 0.0008 0 
3551 3 0.0150865 0.0299332 -0.0528994 0 0 0 0.000145445 -0.0132274 -0.0706683 0 -1.05196e-05 0 0 0 0 0 0 0 0 0 0 0 0 0 0 0 0 0 0 0.0008 0 
2001 3 0.00448516 0.0148 -0.0469963 0 0 0 3.96928 -20.3111 4.60807 0 -1.05196e-05 0 0 0 0 0 0 0 0 0 0 0 0 0 0 0 0 0 1 0.0008 0 
4317 6 0.0180536 0.0207037 -0.0434167 0 0 0 -2.36093 -3.73092 -18.0199 0 -1.05196e-05 0 0 0 0 0 0 0 0 0 0 0 0 0 0 0 0 0 0 0.0008 0 
263 3 0.00563291 0.0378599 -0.042751 0 0 0 -0.550455 -1.86278 -2.53657 0 -1.05196e-05 0 0 0 0 0 0 0 0 0 0 0 0 0 0 0 0 0 1 0.0008 0 
4456 7 0.017893 0.0398772 -0.0425522 0 0 0 12.5956 -14.5776 -13.0853 0 -1.05196e-05 0 0 0 0 0 0 0 0 0 0 0 0 0 0 0 0 0 0 0.0008 0 
3019 3 0.0110036 0.000871564 -0.041808 0 0 0 -0.0610892 6.57803 10.7077 0 -1.05196e-05 0 0 0 0 0 0 0 0 0 0 0 0 0 0 0 0 0 0 0.0008 0 
268 11 0.00566942 0.0383914 -0.0399787 0 0 0 0.508442 -1.38724 -1.41361 0 -1.05196e-05 0 0 0 0 0 0 0 0 0 0 0 0 0 0 0 0 0 0 0.0008 0 
2255 7 0.0143319 0.0307735 -0.0389461 0 0 0 1.51713 -3.49176 -1.8688 0 -1.05196e-05 0 0 0 0 0 0 0 0 0 0 0 0 0 0 0 0 0 2 0.0008 0 
2321 7 0.0105027 0.0511169 -0.0355 0 0 0 3.03999e-302 8.49421e-20 -4.72348e-12 -9.17377e-308 0 -2.22045e-16 0 0 0 0 0 0 0 0 0 0 0 0 0 0 0 0 0 0.0008 0 
283 5 0.00822599 0.0521937 -0.0355 0 0 0 -3.16405e-302 -8.49831e-20 5.89795e-12 -9.53062e-308 0 2.22045e-16 0 0 0 0 0 0 0 0 0 0 0 0 0 0 0 0 0 0.0008 0 
478 2 0.00650068 0.0529383 -0.0355 0 0 0 1.27128e-302 2.83311e-20 -2.36062e-12 -9.27345e-308 0 2.22045e-16 0 0 0 0 0 0 0 0 0 0 0 0 0 0 0 0 0 0.0008 0 
871 8 0.00626723 0.055817 -0.0355 0 0 0 3.97733e-302 -8.48578e-20 -3.535e-12 -9.49766e-308 0 -2.22045e-16 0 0 0 0 0 0 0 0 0 0 0 0 0 0 0 0 1 0.0008 0 
2565 7 0.0083279 0.058003 -0.0355 0 0 0 -1.57253e-302 -8.49519e-20 2.36053e-12 -9.18698e-308 0 -2.22045e-16 0 0 0 0 0 0 0 0 0 0 0 0 0 0 0 0 0 0.0008 0 
3089 3 0.010782 0.061684 -0.0355 0 0 0 -3.31462e-302 -1.87969e-20 -4.72344e-12 9.30488e-308 -8.47033e-22 2.22045e-16 0 0 0 0 0 0 0 0 0 0 0 0 0 0 0 0 0 0.0008 0 
2130 11 0.0169328 0.0756711 -0.0355 0 0 0 -1.59694e-302 -9.41954e-21 5.89788e-12 -9.33777e-308 0 -2.22045e-16 0 0 0 0 0 0 0 0 0 0 0 0 0 0 0 0 0 0.0008 0 
1458 8 0.00726389 0.0566105 -0.0334972 0 0 0 -2.82661 1.76334 2.61161 0 -1.05196e-05 0 0 0 0 0 0 0 0 0 0 0 0 0 0 0 0 0 1 0.0008 0 
3847 6 0.0112771 0.0592265 -0.0342309 0 0 0 3.64239 4.35328 0.376153 -0.014743 -0.0160459 0.0435655 0 0 0 0 0 0 0 0 0 0 0 0 0 0 0 0 0 0.0008 0 
148 3 0.0100075 0.0973438 -0.0335484 0 0 0 1.20784 -4.91223 1.16686 0 -1.05196e-05 0 0 0 0 0 0 0 0 0 0 0 0 0 0 0 0 0 7 0.0008 0 
2525 2 0.0023019 0.0997505 -0.0336959 0 0 0 -0.868638 1.37332 -2.28478 0 -1.05196e-05 0 0 0 0 0 0 0 0 0 0 0 0 0 0 0 0 0 1 0.0008 0 
4076 2 0.0088076 0.102462 -0.0341914 0 0 0 -0.588662 -0.97942 0.0832114 0 -1.05196e-05 0 0 0 0 0 0 0 0 0 0 0 0 0 0 0 0 0 0 0.0008 0 
4261 2 0.0152085 0.101635 -0.0341075 0 0 0 -0.0320734 -2.76214 0.459622 0 -1.05196e-05 0 0 0 0 0 0 0 0 0 0 0 0 0 0 0 0 0 0 0.0008 0 
3257 5 0.00651967 0.103901 -0.0339328 0 0 0 0.116227 0.88254 0.196676 0 -1.05196e-05 0 0 0 0 0 0 0 0 0 0 0 0 0 0 0 0 0 3 0.0008 0 
1500 2 0.0166292 0.103604 -0.0335937 0 0 0 -0.962753 1.83029 0.340264 0 -1.05196e-05 0 0 0 0 0 0 0 0 0 0 0 0 0 0 0 0 0 1 0.0008 0 
1624 4 0.0120956 0.104883 -0.0334999 0 0 0 0.0666249 -0.404456 -0.358736 0 -1.05196e-05 0 0 0 0 0 0 0 0 0 0 0 0 0 0 0 0 0 1 0.0008 0 
2947 5 0.0184396 0.106605 -0.0338018 0 0 0 0.80315 0.41739 0.284347 0 -1.05196e-05 0 0 0 0 0 0 0 0 0 0 0 0 0 0 0 0 0 1 0.0008 0 
3082 5 0.00369883 0.107442 -0.0337641 0 0 0 -0.198934 -0.241253 0.0727889 0 -1.05196e-05 0 0 0 0 0 0 0 0 0 0 0 0 0 0 0 0 0 0 0.0008 0 
3524 4 0.00722909 0.107981 -0.033975 0 0 0 0.111572 -0.342936 -0.00851131 0 -1.05196e-05 0 0 0 0 0 0 0 0 0 0 0 0 0 0 0 0 0 0 0.0008 0 
2170 7 0.00875436 0.108451 -0.0341932 0 0 0 0.06873 -0.0201035 0.0209756 0 -1.05196e-05 0 0 0 0 0 0 0 0 0 0 0 0 0 0 0 0 0 6 0.0008 0 
2481 11 0.0112213 0.108475 -0.0336632 0 0 0 -0.0318515 -0.275964 -0.236116 0 -1.05196e-05 0 0 0 0 0 0 0 0 0 0 0 0 0 0 0 0 0 12 0.0008 0 
1010 2 0.0137744 0.108425 -0.0338111 0 0 0 1.15941 -0.654335 -1.40335 0 -1.05196e-05 0 0 0 0 0 0 0 0 0 0 0 0 0 0 0 0 0 1 0.0008 0 
2408 9 0.00353716 0.1091 -0.0339366 0 0 0 0.312175 -0.112873 0.0640854 0 -1.05196e-05 0 0 0 0 0 0 0 0 0 0 0 0 0 0 0 0 0 0 0.0008 0 
4444 10 0.00243537 0.0618535 -0.0332606 0 0 0 3.71583 1.91505 -12.9742 0 -1.05196e-05 0 0 0 0 0 0 0 0 0 0 0 0 0 0 0 0 0 0 0.0008 0 
246 6 0.0132359 0.0714519 -0.0329757 0 0 0 -1.40226 -1.3178 0.24025 0 -1.05196e-05 0 0 0 0 0 0 0 0 0 0 0 0 0 0 0 0 0 1 0.0008 0 
3857 7 0.00270927 0.0734686 -0.032491 0 0 0 0.595594 0.0287679 -0.156034 0 -1.05196e-05 0 0 0 0 0 0 0 0 0 0 0 0 0 0 0 0 0 0 0.0008 0 
4397 4 0.00193712 0.0749372 -0.0325548 0 0 0 -1.89338 -1.17157 -3.22225 0 -1.05196e-05 0 0 0 0 0 0 0 0 0 0 0 0 0 0 0 0 0 0 0.0008 0 
4161 7 0.00834255 0.0797254 -0.0327275 0 0 0 -2.71727 2.66838 2.53975 0 -1.05196e-05 0 0 0 0 0 0 0 0 0 0 0 0 0 0 0 0 0 0 0.0008 0 
3671 5 0.00272102 0.0849842 -0.0325393 0 0 0 0.402503 -0.0815004 0.425538 0 -1.05196e-05 0 0 0 0 0 0 0 0 0 0 0 0 0 0 0 0 0 0 0.0008 0 
552 6 0.00603379 0.0896325 -0.0326584 0 0 0 0.0269192 1.48894 -0.528977 0 -1.05196e-05 0 0 0 0 0 0 0 0 0 0 0 0 0 0 0 0 0 1 0.0008 0 
4219 7 0.011885 0.0955962 -0.0325596 0 0 0 -1.09658 -0.553737 0.636055 0 -1.05196e-05 0 0 0 0 0 0 0 0 0 0 0 0 0 0 0 0 0 0 0.0008 0 
2908 4 0.00233626 0.102215 -0.0330533 0 0 0 -0.807413 -0.652453 0.484657 0 -1.05196e-05 0 0 0 0 0 0 0 0 0 0 0 0 0 0 0 0 0 0 0.0008 0 
1955 8 0.00733564 0.10479 -0.0326851 0 0 0 0.0204594 -0.567468 0.323073 0 -1.05196e-05 0 0 0 0 0 0 0 0 0 0 0 0 0 0 0 0 0 4 0.0008 0 
2910 10 0.00659904 0.107097 -0.0327875 0 0 0 0.17099 -0.408458 -0.0127806 0 -1.05196e-05 0 0 0 0 0 0 0 0 0 0 0 0 0 0 0 0 0 0 0.0008 0 
3973 1 0.0109205 0.106903 -0.0326613 0 0 0 -0.383282 -0.130128 -0.206443 0 -1.05196e-05 0 0 0 0 0 0 0 0 0 0 0 0 0 0 0 0 0 0 0.0008 0 
3066 8 0.0125155 0.106811 -0.0327498 0 0 0 -0.252171 0.162788 0.0986695 0 -1.05196e-05 0 0 0 0 0 0 0 0 0 0 0 0 0 0 0 0 0 0 0.0008 0 
2403 4 0.00718214 0.109093 -0.0326507 0 0 0 0.430391 -0.0540162 0.0120399 0 -1.05196e-05 0 0 0 0 0 0 0 0 0 0 0 0 0 0 0 0 0 0 0.0008 0 
2319 4 0.0098228 0.109193 -0.0332316 0 0 0 0.0888426 -0.0268651 0.102527 0 -1.05196e-05 0 0 0 0 0 0 0 0 0 0 0 0 0 0 0 0 0 2 0.0008 0 
558 3 0.0139433 0.0493699 -0.0323384 0 0 0 1.54174 -0.722279 1.27781 0 -1.05196e-05 0 0 0 0 0 0 0 0 0 0 0 0 0 0 0 0 0 1 0.0008 0 
1906 6 0.00289673 0.0518443 -0.0313276 0 0 0 0.47948 -2.70793 -2.36606 0 -1.05196e-05 0 0 0 0 0 0 0 0 0 0 0 0 0 0 0 0 0 0 0.0008 0 
3484 1 0.0159427 0.0532391 -0.0321983 0 0 0 -1.32373 -0.66482 -0.816243 0 -1.05196e-05 0 0 0 0 0 0 0 0 0 0 0 0 0 0 0 0 0 1 0.0008 0 
1599 1 0.00423757 0.066979 -0.0322382 0 0 0 0.481124 0.120606 -1.0142 0 -1.05196e-05 0 0 0 0 0 0 0 0 0 0 0 0 0 0 0 0 0 1 0.0008 0 
3632 3 0.0123421 0.0734532 -0.0313454 0 0 0 -1.30753 -0.0906329 0.831352 0 -1.05196e-05 0 0 0 0 0 0 0 0 0 0 0 0 0 0 0 0 0 2 0.0008 0 
2371 3 0.0101273 0.0747845 -0.0314346 0 0 0 0.643235 1.40246 -1.55825 0 -1.05196e-05 0 0 0 0 0 0 0 0 0 0 0 0 0 0 0 0 0 0 0.0008 0 
2651 9 0.00536833 0.075565 -0.0317366 0 0 0 1.90177 0.271419 -3.28198 0 -1.05196e-05 0 0 0 0 0 0 0 0 0 0 0 0 0 0 0 0 0 3 0.0008 0 
3926 5 0.0142714 0.0889009 -0.0321783 0 0 0 0.0645582 0.107976 1.66509 0 -1.05196e-05 0 0 0 0 0 0 0 0 0 0 0 0 0 0 0 0 0 0 0.0008 0 
2447 8 0.0161888 0.0887886 -0.0322048 0 0 0 1.40243 -0.340656 0.651913 0 -1.05196e-05 0 0 0 0 0 0 0 0 0 0 0 0 0 0 0 0 0 1 0.0008 0 
3177 1 0.00882053 0.0940568 -0.0315241 0 0 0 -1.67691 -0.914035 -0.00386472 0 -1.05196e-05 0 0 0 0 0 0 0 0 0 0 0 0 0 0 0 0 0 1 0.0008 0 
4266 4 0.0155131 0.10227 -0.0323015 0 0 0 -1.44023e-13 9.4377 -11.5938 0 -1.05196e-05 0 0 0 0 0 0 0 0 0 0 0 0 0 0 0 0 0 0 0.0008 0 
1239 7 0.00180946 0.10801 -0.0314071 0 0 0 0.163312 -0.0533318 0.440851 0 -1.05196e-05 0 0 0 0 0 0 0 0 0 0 0 0 0 0 0 0 0 3 0.0008 0 
2558 3 0.00446444 0.108396 -0.0318919 0 0 0 0.295056 0.165115 -0.0476461 0 -1.05196e-05 0 0 0 0 0 0 0 0 0 0 0 0 0 0 0 0 0 1 0.0008 0 
3237 1 0.00869872 0.109004 -0.0321057 0 0 0 0.477354 0.0438522 0.353522 0 -1.05196e-05 0 0 0 0 0 0 0 0 0 0 0 0 0 0 0 0 0 0 0.0008 0 
804 8 0.0102396 0.108874 -0.0316011 0 0 0 0.493272 0.517798 0.434991 0 -1.05196e-05 0 0 0 0 0 0 0 0 0 0 0 0 0 0 0 0 0 4 0.0008 0 
1901 2 0.017152 0.0439391 -0.0303577 0 0 0 4.73467 -0.315928 -21.7935 0 -1.05196e-05 0 0 0 0 0 0 0 0 0 0 0 0 0 0 0 0 0 1 0.0008 0 
3253 3 0.00737899 0.0543273 -0.0311198 0 0 0 0.762103 8.80517 -13.6546 0 -1.05196e-05 0 0 0 0 0 0 0 0 0 0 0 0 0 0 0 0 0 2 0.0008 0 
3078 4 0.00217937 0.0713189 -0.0305787 0 0 0 1.79971 -1.47091 -1.06342 0 -1.05196e-05 0 0 0 0 0 0 0 0 0 0 0 0 0 0 0 0 0 3 0.0008 0 
3715 8 0.00552965 0.0723351 -0.031118 0 0 0 -0.155634 -3.80927 5.29275 0 -1.05196e-05 0 0 0 0 0 0 0 0 0 0 0 0 0 0 0 0 0 0 0.0008 0 
3129 3 0.0083964 0.0761427 -0.0307158 0 0 0 0.442698 -0.42516 0.929678 0 -1.05196e-05 0 0 0 0 0 0 0 0 0 0 0 0 0 0 0 0 0 1 0.0008 0 
455 1 0.00814804 0.08552 -0.0306574 0 0 0 -1.64487 -2.29133 0.220708 0 -1.05196e-05 0 0 0 0 0 0 0 0 0 0 0 0 0 0 0 0 0 0 0.0008 0 
1826 8 0.00507282 0.087773 -0.0302644 0 0 0 -0.578777 -0.534797 -0.137478 0 -1.05196e-05 0 0 0 0 0 0 0 0 0 0 0 0 0 0 0 0 0 0 0.0008 0 
4408 2 0.0074927 0.0923019 -0.0304757 0 0 0 2.17405 -0.82572 1.53054 0 -1.05196e-05 0 0 0 0 0 0 0 0 0 0 0 0 0 0 0 0 0 0 0.0008 0 
3948 7 0.0103488 0.101484 -0.0309126 0 0 0 10.3187 -1.46282 6.4288 0 -1.05196e-05 0 0 0 0 0 0 0 0 0 0 0 0 0 0 0 0 0 1 0.0008 0 
2497 9 0.0162169 0.103696 -0.0304722 0 0 0 3.19877 1.75242 0.318035 0 -1.05196e-05 0 0 0 0 0 0 0 0 0 0 0 0 0 0 0 0 0 0 0.0008 0 
2507 3 0.00448328 0.105641 -0.0306689 0 0 0 -3.20138 0.971782 -0.712602 0 -1.05196e-05 0 0 0 0 0 0 0 0 0 0 0 0 0 0 0 0 0 1 0.0008 0 
3737 3 0.00927344 0.106675 -0.0311663 0 0 0 0.689025 -0.565903 0.35384 0 -1.05196e-05 0 0 0 0 0 0 0 0 0 0 0 0 0 0 0 0 0 5 0.0008 0 
249 12 0.0148718 0.106135 -0.0312322 0 0 0 -0.19543 -2.16547 -1.56413 0 -1.05196e-05 0 0 0 0 0 0 0 0 0 0 0 0 0 0 0 0 0 0 0.0008 0 
1787 5 0.0080626 0.108315 -0.0306894 0 0 0 0.449573 -0.178196 0.641349 0 -1.05196e-05 0 0 0 0 0 0 0 0 0 0 0 0 0 0 0 0 0 2 0.0008 0 
1337 13 0.00653558 0.109152 -0.0310062 0 0 0 0.337899 -0.318047 0.303863 0 -1.05196e-05 0 0 0 0 0 0 0 0 0 0 0 0 0 0 0 0 0 1 0.0008 0 
3924 4 0.00553235 0.079811 -0.0294218 0 0 0 -0.456031 0.68746 -3.55499 0 -1.05196e-05 0 0 0 0 0 0 0 0 0 0 0 0 0 0 0 0 0 0 0.0008 0 
3577 5 0.0111851 0.0909675 -0.0302078 0 0 0 1.47817 -0.315326 0.744276 0 -1.05196e-05 0 0 0 0 0 0 0 0 0 0 0 0 0 0 0 0 0 1 0.0008 0 
4285 1 0.00229716 0.100993 -0.0292984 0 0 0 0.529144 -0.953851 -1.60694 0 -1.05196e-05 0 0 0 0 0 0 0 0 0 0 0 0 0 0 0 0 0 0 0.0008 0 
2449 2 0.0164359 0.102399 -0.0292186 0 0 0 2.61196 0.9846 -2.39953 0 -1.05196e-05 0 0 0 0 0 0 0 0 0 0 0 0 0 0 0 0 0 2 0.0008 0 
2623 1 0.0184193 0.0789721 -0.0282538 0 0 0 13.5653 -4.69795 8.51075 0 -1.05196e-05 0 0 0 0 0 0 0 0 0 0 0 0 0 0 0 0 0 1 0.0008 0 
4178 4 0.00719614 0.0800375 -0.0287045 0 0 0 0.92504 1.83344 -1.61395 0 -1.05196e-05 0 0 0 0 0 0 0 0 0 0 0 0 0 0 0 0 0 0 0.0008 0 
354 6 0.0033926 0.0850957 -0.0290399 0 0 0 -2.98625 8.46617 4.97892 0 -1.05196e-05 0 0 0 0 0 0 0 0 0 0 0 0 0 0 0 0 0 1 0.0008 0 
4103 9 0.0149095 0.102005 -0.0283658 0 0 0 0.617838 0.0437767 -2.51391 0 -1.05196e-05 0 0 0 0 0 0 0 0 0 0 0 0 0 0 0 0 0 0 0.0008 0 
2017 5 0.00229997 0.107353 -0.0290408 0 0 0 0.206423 0.0857921 0.544682 0 -1.05196e-05 0 0 0 0 0 0 0 0 0 0 0 0 0 0 0 0 0 0 0.0008 0 
4228 7 0.0155533 0.108515 -0.0290805 0 0 0 -0.373867 -0.761324 -1.08517 0 -1.05196e-05 0 0 0 0 0 0 0 0 0 0 0 0 0 0 0 0 0 0 0.0008 0 
4074 1 0.00223724 0.108912 -0.0285827 0 0 0 0.0914587 0.00800409 1.22934 0 -1.05196e-05 0 0 0 0 0 0 0 0 0 0 0 0 0 0 0 0 0 0 0.0008 0 
207 2 0.00924113 0.108944 -0.0290538 0 0 0 -1.14444 -1.01643 -0.013448 0 -1.05196e-05 0 0 0 0 0 0 0 0 0 0 0 0 0 0 0 0 0 0 0.0008 0 
4362 1 0.0124373 0.108883 -0.0286929 0 0 0 4.54319 2.88299 1.66818 0 -1.05196e-05 0 0 0 0 0 0 0 0 0 0 0 0 0 0 0 0 0 0 0.0008 0 
1841 5 0.00799725 0.0554375 -0.0273128 0 0 0 -0.102449 -1.02489 -0.0845539 0 -1.05196e-05 0 0 0 0 0 0 0 0 0 0 0 0 0 0 0 0 0 4 0.0008 0 
3569 6 0.0160913 0.061946 -0.027068 0 0 0 -0.245919 -2.93387 -0.652649 0 -1.05196e-05 0 0 0 0 0 0 0 0 0 0 0 0 0 0 0 0 0 3 0.0008 0 
2315 1 0.0022101 0.0739909 -0.0272748 0 0 0 0.279503 -0.990479 -1.82508 0 -1.05196e-05 0 0 0 0 0 0 0 0 0 0 0 0 0 0 0 0 0 4 0.0008 0 
4003 3 0.0106627 0.0850143 -0.0277077 0 0 0 0.384676 -2.34801 -0.990418 0 -1.05196e-05 0 0 0 0 0 0 0 0 0 0 0 0 0 0 0 0 0 0 0.0008 0 
2570 4 0.00297645 0.094832 -0.0270627 0 0 0 0.643555 0.663158 -0.0641899 0 -1.05196e-05 0 0 0 0 0 0 0 0 0 0 0 0 0 0 0 0 0 3 0.0008 0 
4190 7 0.0105415 0.106991 -0.0271953 0 0 0 -0.415096 -1.21543 1.20924 0 -1.05196e-05 0 0 0 0 0 0 0 0 0 0 0 0 0 0 0 0 0 0 0.0008 0 
2529 1 0.016555 0.0401461 -0.0270304 0 0 0 -0.148493 -2.40307 0.417593 0 -1.05196e-05 0 0 0 0 0 0 0 0 0 0 0 0 0 0 0 0 0 2 0.0008 0 
3235 6 0.0124743 0.0783993 -0.026928 0 0 0 0.719151 1.12108 -0.94142 0 -1.05196e-05 0 0 0 0 0 0 0 0 0 0 0 0 0 0 0 0 0 0 0.0008 0 
4270 4 0.00275314 0.106048 -0.0264304 0 0 0 -0.0926191 -0.590739 1.21665 0 -1.05196e-05 0 0 0 0 0 0 0 0 0 0 0 0 0 0 0 0 0 0 0.0008 0 
3999 1 0.00773695 0.106639 -0.0264821 0 0 0 0.806845 -1.50465 -0.539125 0 -1.05196e-05 0 0 0 0 0 0 0 0 0 0 0 0 0 0 0 0 0 0 0.0008 0 
1388 1 0.00326074 0.108175 -0.0264694 0 0 0 -0.433469 -0.0496395 -0.33863 0 -1.05196e-05 0 0 0 0 0 0 0 0 0 0 0 0 0 0 0 0 0 2 0.0008 0 
4163 8 0.00858396 0.108884 -0.0262272 0 0 0 -2.3211 1.36909 0.609487 0 -1.05196e-05 0 0 0 0 0 0 0 0 0 0 0 0 0 0 0 0 0 0 0.0008 0 
4251 1 0.00657814 0.079987 -0.0256278 0 0 0 1.21572 -2.35477 1.7817 0 -1.05196e-05 0 0 0 0 0 0 0 0 0 0 0 0 0 0 0 0 0 0 0.0008 0 
4206 1 0.00946324 0.0826191 -0.0257896 0 0 0 -0.627222 -0.918813 0.088364 0 -1.05196e-05 0 0 0 0 0 0 0 0 0 0 0 0 0 0 0 0 0 0 0.0008 0 
3853 3 0.00197439 0.0972971 -0.0254648 0 0 0 0.0506952 -0.781824 -0.480227 0 -1.05196e-05 0 0 0 0 0 0 0 0 0 0 0 0 0 0 0 0 0 0 0.0008 0 
1651 9 0.00572073 0.101923 -0.0249936 0 0 0 0.44572 0.66734 -1.54052 0 -1.05196e-05 0 0 0 0 0 0 0 0 0 0 0 0 0 0 0 0 0 2 0.0008 0 
4192 7 0.00527444 0.103485 -0.0254202 0 0 0 -0.935105 -0.294804 0.712164 0 -1.05196e-05 0 0 0 0 0 0 0 0 0 0 0 0 0 0 0 0 0 0 0.0008 0 
461 6 0.0116427 0.103173 -0.0251334 0 0 0 -0.393619 -1.16079 0.980372 0 -1.05196e-05 0 0 0 0 0 0 0 0 0 0 0 0 0 0 0 0 0 2 0.0008 0 
1386 1 0.00858543 0.106331 -0.0251348 0 0 0 2.24466 -0.105886 1.25755 0 -1.05196e-05 0 0 0 0 0 0 0 0 0 0 0 0 0 0 0 0 0 0 0.0008 0 
2222 3 0.00426976 0.106875 -0.0255246 0 0 0 -0.987748 -1.21848 -1.07245 -0.00562147 0.00605956 -0.0114314 0 0 1 0 0 0 0 0 0 0 0 0 0 0 0 0 2 0.0008 0 
2981 1 0.00198017 0.109121 -0.0251325 0 0 0 0.0446136 -0.0628381 0.843516 0 -1.05196e-05 0 0 0 0 0 0 0 0 0 0 0 0 0 0 0 0 0 1 0.0008 0 
4363 8 0.00600555 0.108897 -0.0250889 0 0 0 -0.534159 -0.0682303 -1.35789 0 -1.05196e-05 0 0 0 0 0 0 0 0 0 0 0 0 0 0 0 0 0 0 0.0008 0 
2453 3 0.00296053 0.0867692 -0.0240223 0 0 0 0.393017 0.0329052 0.895193 0 -1.05196e-05 0 0 0 0 0 0 0 0 0 0 0 0 0 0 0 0 0 1 0.0008 0 
1910 1 0.0143524 0.103823 -0.0248788 0 0 0 1.11348 0.0713579 -0.223261 0 -1.05196e-05 0 0 0 0 0 0 0 0 0 0 0 0 0 0 0 0 0 0 0.0008 0 
3492 4 0.0071262 0.104997 -0.0245832 0 0 0 0.636497 0.475413 0.80218 0 -1.05196e-05 0 0 0 0 0 0 0 0 0 0 0 0 0 0 0 0 0 0 0.0008 0 
2787 9 0.00476742 0.106072 -0.0242731 0 0 0 -0.664273 -1.47178 -0.667196 0.00562147 -0.0060806 0.0114314 0 0 1 0 0 0 0 0 0 0 0 0 0 0 0 0 11 0.0008 0 
4303 1 0.00261396 0.10731 -0.0238827 0 0 0 0.141419 -0.134518 -0.3966 0 -1.05196e-05 0 0 0 0 0 0 0 0 0 0 0 0 0 0 0 0 0 0 0.0008 0 
4217 5 0.0089386 0.107975 -0.0240496 0 0 0 0.777704 1.03938 0.323273 0 -1.05196e-05 0 0 0 0 0 0 0 0 0 0 0 0 0 0 0 0 0 0 0.0008 0 
2132 1 0.00397608 0.109151 -0.0239082 0 0 0 0.381821 -0.161901 0.337933 0 -1.05196e-05 0 0 0 0 0 0 0 0 0 0 0 0 0 0 0 0 0 1 0.0008 0 
4237 8 0.00542657 0.0806782 -0.0232945 0 0 0 -3.25061 -1.12261 -1.79042 0 -1.05196e-05 0 0 0 0 0 0 0 0 0 0 0 0 0 0 0 0 0 1 0.0008 0 
2137 3 0.0171974 0.102248 -0.0237692 0 0 0 0.625324 2.18453 -2.0061 0 -1.05196e-05 0 0 0 0 0 0 0 0 0 0 0 0 0 0 0 0 0 2 0.0008 0 
4274 2 0.0152726 0.108778 -0.0234388 0 0 0 1.14088 0.498014 -0.362534 0 -1.05196e-05 0 0 0 0 0 0 0 0 0 0 0 0 0 0 0 0 0 0 0.0008 0 
3962 4 0.00605844 0.104177 -0.0228195 0 0 0 -1.97569 0.49891 -0.28991 0 -1.05196e-05 0 0 0 0 0 0 0 0 0 0 0 0 0 0 0 0 0 0 0.0008 0 
2228 3 0.0022175 0.108076 -0.0222155 0 0 0 -0.908991 -0.0878129 -0.232761 0 -1.05196e-05 0 0 0 0 0 0 0 0 0 0 0 0 0 0 0 0 0 0 0.0008 0 
2738 2 0.00389035 0.108913 -0.0219437 0 0 0 -0.524233 0.515483 0.0169052 0 -1.05196e-05 0 0 0 0 0 0 0 0 0 0 0 0 0 0 0 0 0 0 0.0008 0 
4334 5 0.00499435 0.0390231 -0.0211578 0 0 0 -6.62709 7.80576 -9.5028 0 -1.05196e-05 0 0 0 0 0 0 0 0 0 0 0 0 0 0 0 0 0 0 0.0008 0 
3097 3 0.00616231 0.0536346 -0.021709 0 0 0 3.14701 -5.55268 5.91807 0 -1.05196e-05 0 0 0 0 0 0 0 0 0 0 0 0 0 0 0 0 0 1 0.0008 0 
4257 6 0.0149753 0.064665 -0.0207426 0 0 0 0.597563 -1.29974 -1.51053 0 -1.05196e-05 0 0 0 0 0 0 0 0 0 0 0 0 0 0 0 0 0 0 0.0008 0 
2642 1 0.00725583 0.0728471 -0.0209756 0 0 0 1.39285 0.119063 2.11732 0 -1.05196e-05 0 0 0 0 0 0 0 0 0 0 0 0 0 0 0 0 0 1 0.0008 0 