ITEM: TIMESTEP
10900000
ITEM: NUMBER OF ATOMS
17537
ITEM: BOX BOUNDS ff ff ff
-0.01 0.45
-0.15 0.15
-0.08 0.1
ITEM: ATOMS id type x y z ix iy iz vx vy vz fx fy fz c_cc_1 c_cc_2 c_cc_3 c_cc_4 c_cc_5 c_cc_6 c_cc_7 c_cc_8 c_cc_9 c_cc_10 c_cc_11 c_cc_12 c_cc_13 c_cc_14 c_cc_15 c_cc_16 f_fppacc radius c_cc_17 
8804 5 0.0451089 -0.0118793 -0.057678 0 0 0 -4.48433 -15.9176 2.3265 0 -1.05196e-05 0 0 0 0 0 0 0 0 0 0 0 0 0 0 0 0 0 87 0.0008 0 
7490 6 0.0148071 -0.0176207 -0.0560107 0 0 0 2.18604 -5.35743 1.84441 0 -1.05196e-05 0 0 0 0 0 0 0 0 0 0 0 0 0 0 0 0 0 105 0.0008 0 
10983 6 0.0084391 -0.0140732 -0.0569671 0 0 0 0.409977 -0.314978 0.678479 0 -1.05196e-05 0 0 0 0 0 0 0 0 0 0 0 0 0 0 0 0 0 59 0.0008 0 
19233 3 0.00969432 -0.0111115 -0.056315 0 0 0 -0.693121 -11.463 1.01542 0 -3.55035e-05 0 0 0 0 0 0 0 0 0 0 0 0 0 0 0 0 0 0 0.0012 0 
12514 3 0.00407501 -0.0191104 -0.0542873 0 0 0 -0.493176 -3.02865 2.17193 0 -1.05196e-05 0 0 0 0 0 0 0 0 0 0 0 0 0 0 0 0 0 79 0.0008 0 
19215 5 0.0322908 -0.0117981 -0.056449 0 0 0 14.6994 -61.0628 -8.12427 0 -3.55035e-05 0 0 0 0 0 0 0 0 0 0 0 0 0 0 0 0 0 0 0.0012 0 
3267 4 0.0236857 -0.000629229 -0.0563733 0 0 0 0.548041 -0.515544 0.0940009 0 -1.05196e-05 0 0 0 0 0 0 0 0 0 0 0 0 0 0 0 0 0 102 0.0008 0 
16986 8 0.0262432 -0.00331539 -0.0562913 0 0 0 -0.839299 -4.44862 -0.367514 0 -1.05196e-05 0 0 0 0 0 0 0 0 0 0 0 0 0 0 0 0 0 21 0.0008 0 
19222 7 0.0141135 -0.0113899 -0.0543174 0 0 0 -0.190359 -2.06055 0.696781 0 -3.55035e-05 0 0 0 0 0 0 0 0 0 0 0 0 0 0 0 0 0 0 0.0012 0 
12295 4 0.0426211 -0.0288988 -0.0511497 0 0 0 3.85527 -6.5124 3.68693 0 -1.05196e-05 0 0 0 0 0 0 0 0 0 0 0 0 0 0 0 0 0 51 0.0008 0 
18232 1 0.0117153 -0.000138647 -0.0502508 0 0 0 0.261135 -0.081532 -1.15496 0 -1.05196e-05 0 0 0 0 0 0 0 0 0 0 0 0 0 0 0 0 0 17 0.0008 0 
12144 5 0.0169985 -0.0424077 -0.0399043 0 0 0 0.64824 -6.89166 12.0807 0 -1.05196e-05 0 0 0 0 0 0 0 0 0 0 0 0 0 0 0 0 0 44 0.0008 0 
11963 10 0.021373 -0.041429 -0.0419851 0 0 0 -2.08669 -5.31523 14.1591 0 -1.05196e-05 0 0 0 0 0 0 0 0 0 0 0 0 0 0 0 0 0 105 0.0008 0 
19221 5 0.0139391 -0.0159729 -0.0459732 0 0 0 1.38601 -3.3441 -1.81015 0 -3.55035e-05 0 0 0 0 0 0 0 0 0 0 0 0 0 0 0 0 0 0 0.0012 0 
6962 2 0.0155105 -0.00734669 -0.0426052 0 0 0 1.75612 -2.11658 1.63319 0 -1.05196e-05 0 0 0 0 0 0 0 0 0 0 0 0 0 0 0 0 0 67 0.0008 0 
1744 6 0.0311487 -0.046271 -0.0362536 0 0 0 2.14166 -17.9675 10.5655 0 -1.05196e-05 0 0 0 0 0 0 0 0 0 0 0 0 0 0 0 0 0 82 0.0008 0 
15176 2 0.0153883 -0.0491497 -0.0326396 0 0 0 -8.7838 -5.25871 8.93676 -0.00544094 0.0313951 0.0185252 0 0 0 0 0 0 0 0 0 0 0 0 0 0 0 0 41 0.0008 0 
4373 4 0.0311297 -0.0602243 0.00945191 0 0 0 -0.0118014 0.00335278 0.0179094 3.13026e-09 -4.40709e-07 -1.31935e-06 0 0 0 0 0 0 0 0 0 0 0 0 0 0 0 0 41 0.0008 0 
9248 8 0.0256023 -0.0156182 -0.0367931 0 0 0 -0.0786642 -73.6653 31.2533 1.16731e-05 0.0670729 0.158156 0 0 0 0 0 0 0 1 0 0 0 0 0 0 0 0 303 0.0008 0 
6942 12 0.0234415 -0.0192074 -0.0430797 0 0 0 0.0245872 -86.1881 38.587 0.000118215 0.0837833 0.184688 0 0 0 0 0 0 0 0 0 0 0 7 0 0 0 0 409 0.0008 0 
4086 2 0.0229666 -0.0198167 -0.0440246 0 0 0 -0.11087 -87.975 39.8883 -0.000949496 0.0871094 0.188974 0 7 0 0 0 0 0 0 0 0 0 1 0 0 0 0 126 0.0008 0 
5218 9 0.023367 -0.0192243 -0.0403344 0 0 0 0.00332899 -80.7139 38.1517 -5.48717e-05 0.0813884 0.174225 0 0 0 0 0 0 0 0 3 0 0 0 0 0 0 0 472 0.0008 0 
3831 9 0.0213337 -0.0215619 -0.0415705 0 0 0 -0.0361138 -83.1514 42.9823 -0.000193866 0.0918814 0.179006 0 0 0 0 0 0 0 0 8 0 0 0 0 0 0 0 611 0.0008 0 
2858 2 0.00358251 -0.0602007 0.00957787 0 0 0 1.1072e-05 2.52065e-05 0.000132189 9.70915e-07 1.98656e-08 7.28051e-07 0 4 0 0 0 0 0 0 0 0 0 0 0 0 0 0 158 0.0008 0 
10425 1 0.000800536 -0.0601978 0.00959354 0 0 0 -7.723e-05 6.58421e-06 -4.432e-05 -1.75105e-07 -3.76866e-08 -8.20699e-08 2 0 0 0 0 0 0 0 0 0 0 0 0 0 0 0 114 0.0008 0 
2966 5 0.0199282 -0.0603037 0.00902692 0 0 0 -0.000815061 -3.87276e-05 -0.000645339 -6.71232e-08 9.41521e-07 -1.55373e-06 0 0 0 0 0 0 0 0 0 0 0 0 0 0 0 0 118 0.0008 0 
11428 3 0.0381875 -0.0530831 -0.03002 0 0 0 0.0677626 0.0609565 -0.0984482 -3.65706e-18 -2.08228e-06 3.363e-06 0 0 0 0 0 0 0 0 0 0 0 0 0 0 0 0 18 0.0008 0 
2556 1 0.0331871 -0.00785439 -0.0353691 0 0 0 0.0273223 -70.7619 15.7132 -0.00308713 0.0356619 0.151046 2 0 0 0 0 0 0 0 0 0 0 0 0 0 0 0 857 0.0008 0 
47 1 0.03104 -0.00786938 -0.0371457 0 0 0 -0.0109473 -74.2914 15.7581 -9.117e-05 0.0339637 0.159709 6 0 0 0 0 0 0 0 0 0 0 0 0 0 0 0 720 0.0008 0 
6951 2 0.033 -0.00863061 -0.0402525 0 0 0 -0.0341218 -80.4656 17.3066 -0.000784268 0.0385291 0.173695 0 5 0 0 0 0 0 0 0 0 0 0 0 0 0 0 481 0.0008 0 
7478 3 0.0323306 -0.00750982 -0.0365125 0 0 0 0.0385855 -73.0232 15.0073 -0.00277583 0.0328991 0.158032 2 0 2 0 0 0 0 0 0 0 0 0 0 0 0 0 626 0.0008 0 
2800 3 0.02545 -0.0167139 -0.039535 0 0 0 -0.0234598 -79.0875 33.3777 -0.00010108 0.0713922 0.169468 0 0 4 0 0 0 0 0 0 0 0 0 0 0 0 0 562 0.0008 0 
1252 1 0.0231518 -0.0202212 -0.0453817 0 0 0 0.0247962 -90.6846 40.5161 0.000243455 0.0871576 0.194125 4 1 0 0 0 0 0 0 0 0 0 0 0 0 0 0 735 0.0008 0 
500 6 0.0226178 -0.0197515 -0.0417333 0 0 0 0.0483233 -83.4467 39.6996 1.67042e-05 0.0854213 0.178778 0 0 0 0 0 6 0 0 0 0 0 0 0 0 0 0 713 0.0008 0 
9513 9 0.0227017 -0.0207906 -0.0434133 0 0 0 0.00127571 -86.9217 41.3289 -0.000316556 0.088283 0.186692 0 1 0 0 0 0 0 0 6 0 0 0 0 0 0 0 420 0.0008 0 
5050 3 0.0199821 -0.0235649 -0.0466138 0 0 0 -0.00291815 -93.2174 47.1782 0.000903919 0.101546 0.201871 0 0 3 0 0 0 0 0 0 0 0 0 0 0 0 0 642 0.0008 0 
7147 3 0.0207372 -0.0222853 -0.0421909 0 0 0 -0.0439706 -84.4801 44.4778 0.000160828 0.0953492 0.18178 0 0 5 0 0 0 0 0 1 0 0 0 0 0 0 0 595 0.0008 0 
6228 2 0.0211332 -0.0207029 -0.0370074 0 0 0 0.176333 -74.0028 41.2064 0.000131686 0.0880382 0.158615 0 6 0 0 0 0 0 0 0 0 0 0 0 0 0 0 446 0.0008 0 
4325 3 0.00219456 -0.060347 0.0087951 0 0 0 -0.000135964 -2.80628e-05 -4.61432e-05 -5.91748e-08 2.06796e-07 1.05018e-07 0 0 1 0 0 0 0 0 0 0 0 0 0 0 0 0 188 0.0008 0 
14381 3 0.0460442 -0.0602497 0.00931597 0 0 0 -0.00529699 -0.000690107 -0.00369174 3.53701e-16 -2.53679e-07 -1.35713e-06 0 0 0 0 0 0 0 0 0 0 0 0 0 0 0 0 14 0.0008 0 
9957 4 0.038626 -0.0604788 0.00809006 0 0 0 -0.0268884 -0.00417814 -0.0350985 -4.7794e-05 7.78025e-05 0.000250236 0 0 0 1 0 0 0 0 0 0 0 0 0 0 0 0 95 0.0008 0 
16383 9 0.0467316 -0.0406409 0.00865482 0 0 0 0.0230204 17.332 81.201 0.000117929 0.172024 -0.0360426 0 0 0 0 0 0 0 0 5 0 0 0 0 0 0 0 246 0.0008 0 
760 7 0.0303802 -0.00882938 -0.0378951 0 0 0 0.00835068 -75.818 17.6832 0.00183168 0.0374342 0.161426 1 0 0 0 0 0 5 0 0 0 0 0 0 0 0 0 699 0.0008 0 
16763 1 0.0335035 -0.0092877 -0.0385908 0 0 0 -0.000867441 -77.1813 18.5762 0.000247927 0.0396788 0.1646 5 0 0 0 0 0 0 0 0 0 0 0 0 0 0 0 158 0.0008 0 
13798 2 0.0333093 -0.00843728 -0.0372689 0 0 0 0.0158816 -74.5639 16.8792 0.000802717 0.0353273 0.16031 1 3 1 0 0 0 0 0 0 0 0 0 0 0 0 0 333 0.0008 0 
5427 6 0.031858 -0.00943062 -0.0399992 0 0 0 -0.0236652 -79.9959 18.847 0.00471006 0.0353038 0.163569 0 1 0 0 0 7 0 0 0 0 0 0 0 0 0 0 296 0.0008 0 
16148 6 0.030833 -0.00779155 -0.0356811 0 0 0 -0.0229535 -71.3782 15.6054 0.000817172 0.0344326 0.154087 1 0 0 0 0 1 0 0 0 0 0 0 0 0 0 0 209 0.0008 0 
2167 5 0.0305593 -0.00880457 -0.0394085 0 0 0 -0.00110021 -78.8539 17.6432 -0.000549965 0.0268974 0.163802 0 0 0 0 2 1 1 0 0 0 0 0 0 0 0 0 692 0.0008 0 
18733 5 0.0320585 -0.00833276 -0.0385305 0 0 0 0.0142433 -77.0528 16.6931 -0.000919348 0.121107 0.561131 2 2 0 0 3 1 1 0 0 0 0 0 0 0 0 0 100 0.0012 0 
3056 7 0.0262576 -0.0156988 -0.0393514 0 0 0 0.111471 -78.6483 31.339 2.58736e-05 0.0670598 0.168369 0 0 1 0 0 0 2 0 0 0 0 0 0 0 0 0 623 0.0008 0 
16766 3 0.0336729 -0.00792125 -0.0391917 0 0 0 -0.00110233 -78.3808 15.8569 -0.000179422 0.0346158 0.168891 1 1 0 0 1 0 0 0 0 0 0 0 0 0 0 0 35 0.0008 0 
11658 5 0.024605 -0.0165989 -0.0364451 0 0 0 -0.0883023 -72.975 33.2427 2.53873e-05 0.0714394 0.156695 0 0 0 0 1 0 0 1 0 0 0 0 0 0 0 0 253 0.0008 0 
3345 7 0.0345802 -0.00838345 -0.0444406 0 0 0 -0.0642127 -88.9292 16.839 0.00141922 0.0374913 0.189177 0 0 0 0 0 0 0 0 0 0 0 0 0 0 0 0 113 0.0008 0 
12243 4 0.0228971 -0.0209787 -0.0451256 0 0 0 0.0993006 -90.2652 41.6816 0.00107309 0.0879634 0.19273 1 0 0 4 0 0 0 0 0 0 0 0 0 0 0 0 263 0.0008 0 
16883 3 0.0222747 -0.0202759 -0.0430844 0 0 0 0.0152987 -86.0867 40.7687 -0.000301141 0.0875335 0.184417 0 1 3 0 0 1 0 0 1 0 0 1 0 0 0 0 100 0.0008 0 
282 4 0.0236129 -0.0175528 -0.0361679 0 0 0 -0.0233474 -72.3705 35.1205 0.000100192 0.0754611 0.155174 0 0 0 2 1 0 0 0 0 0 0 0 0 0 0 0 668 0.0008 0 
675 3 0.0225413 -0.0195187 -0.0403849 0 0 0 -0.0236026 -80.7662 39.2141 4.02502e-05 0.0846647 0.173384 0 0 5 0 0 1 0 0 1 0 0 0 0 0 0 0 617 0.0008 0 
258 1 0.0207802 -0.0232715 -0.0463728 0 0 0 0.0199103 -92.7314 46.443 8.70641e-05 0.0995546 0.200356 5 0 1 0 0 0 0 0 0 0 0 0 0 0 0 0 647 0.0008 0 
34 8 0.021017 -0.0206282 -0.0390415 0 0 0 -0.0354676 -78.1208 41.4603 -0.000145851 0.0892217 0.167562 0 0 0 0 0 0 0 7 0 0 0 0 0 0 0 0 657 0.0008 0 
7671 3 0.0214064 -0.0195995 -0.0359992 0 0 0 -0.140434 -71.9749 39.3972 -6.35434e-05 0.0849181 0.154461 0 1 4 0 0 0 0 0 0 0 0 0 0 0 0 0 511 0.0008 0 
3437 2 0.0201784 -0.0210014 -0.0365564 0 0 0 0.0485352 -73.1267 41.9999 0.000100035 0.0901504 0.156786 0 4 0 0 0 0 0 0 0 0 0 0 0 0 0 0 666 0.0008 0 
604 2 0.0242099 -0.0602825 0.00914001 0 0 0 -0.0025811 -0.00103462 -0.00583723 -7.63729e-07 -1.57094e-06 5.5721e-06 0 1 0 0 0 0 0 0 0 0 0 0 0 0 0 0 98 0.0008 0 
10666 7 0.0428841 -0.0603736 0.00865299 0 0 0 0.00226404 0.000121618 0.000650598 -4.36776e-17 -2.53691e-07 -1.35713e-06 0 0 0 0 0 0 0 0 0 0 0 0 0 0 0 0 108 0.0008 0 
9965 4 0.0471203 -0.0604738 0.00811736 0 0 0 -0.000409924 2.5893e-05 0.000223136 1.63359e-06 5.56117e-07 8.1354e-07 0 0 0 2 0 0 0 0 0 0 0 0 0 0 0 0 74 0.0008 0 
5191 1 0.0370312 -0.0605632 0.00763884 0 0 0 0.00443161 -0.00417727 -0.0223464 1.11872e-19 -2.53692e-07 -1.35713e-06 0 0 0 0 0 0 0 0 0 0 0 0 0 0 0 0 108 0.0008 0 
13953 4 0.0456634 -0.0398992 0.00943951 0 0 0 -0.0208747 18.9306 79.792 -0.00192913 0.170506 -0.0401948 0 0 0 4 0 0 0 0 1 0 0 0 0 0 0 0 320 0.0008 0 
18657 6 0.0472415 -0.0396856 0.00984872 0 0 0 -0.00135717 19.7139 79.2983 -0.00256676 0.560471 -0.143302 0 0 0 1 0 15 0 0 1 0 0 0 0 0 0 0 232 0.0012 0 
3211 8 0.0463481 -0.0409697 0.00991239 0 0 0 0.000907133 19.8439 81.822 -0.000567213 0.17497 -0.0419452 0 0 0 1 0 1 0 1 1 0 0 0 0 0 0 0 980 0.0008 0 
11268 4 0.0462375 -0.0391001 0.00847152 0 0 0 -0.0881362 16.8945 78.2403 -0.00628643 0.165398 -0.0265086 0 0 0 4 0 1 0 0 0 0 0 0 0 0 0 0 493 0.0008 0 
11699 8 0.0473787 -0.0394272 0.0079128 0 0 0 -0.27888 15.8014 78.8412 0.0178355 0.184251 -0.00754337 0 0 0 1 0 1 0 4 1 0 0 0 0 0 0 0 278 0.0008 0 
320 3 0.0473554 -0.0379973 0.00765483 0 0 0 -0.136245 16.0398 78.6958 0.126944 0.172277 0.165794 0 0 4 0 0 0 0 1 0 0 0 0 0 0 0 0 188 0.0008 0 
11146 1 0.032801 -0.00974529 -0.0410821 0 0 0 -0.00259526 -82.0054 19.4932 0.00180349 0.0292584 0.175483 2 1 0 0 0 1 0 0 0 0 0 0 0 0 0 0 334 0.0008 0 
5066 2 0.0318827 -0.0089607 -0.0365074 0 0 0 0.07058 -73.0386 17.8774 0.000589908 0.0400872 0.157325 1 3 1 0 0 0 0 0 0 0 0 0 0 0 0 0 417 0.0008 0 
14143 1 0.0304606 -0.00992358 -0.0404193 0 0 0 0.292317 -81.2113 19.634 0.0073895 0.0383231 0.169319 2 0 0 0 1 1 0 0 0 0 0 0 0 0 0 0 230 0.0008 0 
759 5 0.0336182 -0.00992316 -0.0399539 0 0 0 -0.00853926 -79.8968 19.8564 0.000799241 0.0435819 0.171579 2 1 0 0 1 0 0 0 0 0 0 0 0 0 0 0 835 0.0008 0 
739 7 0.0315454 -0.00892497 -0.0409552 0 0 0 -0.0684261 -81.8263 17.9066 0.00260724 0.0349831 0.16731 2 0 0 0 0 1 1 0 0 0 0 0 0 0 0 0 734 0.0008 0 
3329 4 0.0317174 -0.0104406 -0.0351246 0 0 0 -0.00674544 -70.2336 20.9012 -0.000234396 0.0441197 0.149131 0 0 0 3 0 0 0 0 0 0 0 0 0 0 0 0 715 0.0008 0 
2651 9 0.0273185 -0.0151873 -0.0418831 0 0 0 0.0075941 -83.7449 30.4262 5.51877e-05 0.0654291 0.179623 0 0 0 0 0 0 0 0 1 0 0 0 0 0 0 0 708 0.0008 0 
5208 5 0.0295316 -0.0144752 -0.0475894 0 0 0 -0.0115614 -95.2008 28.9082 4.27254e-06 0.0619132 0.204226 0 0 0 0 0 0 0 0 0 0 0 0 0 0 0 0 85 0.0008 0 
579 4 0.0259046 -0.0161173 -0.0403529 0 0 0 -0.101359 -80.7287 32.3468 8.93538e-05 0.0695228 0.172955 0 0 1 2 0 0 1 0 0 0 0 0 0 0 0 0 339 0.0008 0 
4454 12 0.0248605 -0.0181878 -0.0427331 0 0 0 0.0901862 -85.4581 36.1665 -0.00349247 0.078338 0.177106 0 0 0 0 0 0 0 0 0 0 0 5 0 0 0 0 631 0.0008 0 
44 2 0.0224051 -0.0215765 -0.046174 0 0 0 -0.0462778 -92.2428 42.9602 -0.000195827 0.091577 0.197442 0 3 0 1 0 0 0 0 0 0 0 0 0 0 0 0 696 0.0008 0 
17555 2 0.0245438 -0.0172967 -0.0382137 0 0 0 -0.0586569 -76.3482 34.9178 7.86501e-05 0.0756539 0.163455 0 2 0 0 0 0 0 0 0 0 0 0 0 0 0 0 58 0.0008 0 
53 4 0.0213357 -0.0217276 -0.0448528 0 0 0 0.0864667 -89.6201 43.6809 -9.1751e-05 0.0942945 0.191734 0 0 0 7 0 0 0 0 0 0 0 0 0 0 0 0 772 0.0008 0 
9969 12 0.0220585 -0.0209493 -0.0441227 0 0 0 -0.0514185 -88.3128 42.0232 3.33646e-05 0.090026 0.1896 0 1 1 2 0 0 0 0 1 0 0 3 0 0 0 0 384 0.0008 0 
15619 1 0.0210108 -0.0228914 -0.0471936 0 0 0 0.00835564 -94.3737 45.771 -3.77977e-05 0.0976068 0.20201 4 0 1 0 0 0 0 0 0 0 0 0 0 0 0 0 124 0.0008 0 
5630 1 0.0226798 -0.0189488 -0.0373328 0 0 0 0.0166623 -74.6293 37.922 3.33502e-05 0.0816499 0.159924 5 0 0 0 0 0 0 0 0 0 0 0 0 0 0 0 624 0.0008 0 
10493 4 0.0221508 -0.0206 -0.0407744 0 0 0 -0.0370778 -81.6265 40.9587 0.000222347 0.0876249 0.175489 0 0 1 5 0 1 0 0 1 0 0 0 0 0 0 0 280 0.0008 0 
8427 2 0.0223853 -0.019436 -0.03825 0 0 0 0.020501 -76.5482 38.8277 -0.00017678 0.0827382 0.163994 1 5 0 0 0 0 0 0 0 0 0 0 0 0 0 0 212 0.0008 0 
2302 4 0.0206629 -0.0212855 -0.0404236 0 0 0 -0.0712377 -80.8335 42.7988 1.26105e-05 0.0922662 0.173601 0 0 0 5 0 0 0 1 1 0 0 0 0 0 0 0 682 0.0008 0 
10725 10 0.0218479 -0.0193946 -0.035507 0 0 0 -0.0342293 -71.0535 38.7465 -3.09481e-05 0.0830709 0.152356 0 0 1 0 0 0 0 0 0 2 0 0 0 0 0 0 538 0.0008 0 
8750 4 0.0119846 -0.00114168 -0.0539594 0 0 0 -0.937549 -18.1865 2.23956 0 -1.05196e-05 0 0 0 0 0 0 0 0 0 0 0 0 0 0 0 0 0 100 0.0008 0 
7012 3 0.0325028 -0.0149641 -0.057106 0 0 0 -13.2273 -51.4676 17.8111 -0.0251877 -0.00614816 0.114615 0 0 0 0 0 0 0 0 0 0 0 0 0 0 0 0 36 0.0008 0 
11745 5 0.0444407 -0.0602919 0.00909021 0 0 0 0.00782473 -0.00127989 -0.00684451 -9.38804e-13 -2.50454e-07 -1.35774e-06 0 0 0 0 0 0 0 0 0 0 0 0 0 0 0 0 67 0.0008 0 
12900 3 0.0401782 -0.060161 0.00948675 0 0 0 -0.0242072 0.00301496 -0.00904924 0 -1.05196e-05 0 0 0 0 0 0 0 0 0 0 0 0 0 0 0 0 0 80 0.0008 0 
6493 9 0.0184351 -0.0601981 0.00959216 0 0 0 -0.00451832 -0.00169143 -0.00884036 4.81323e-08 -4.97619e-07 -1.32103e-06 0 0 0 0 0 0 0 0 0 0 0 0 0 0 0 0 87 0.0008 0 
13018 4 0.0226718 -0.0602009 0.00957689 0 0 0 -0.000785591 -0.000345721 -0.00163539 2.74053e-06 -1.79801e-06 1.33641e-06 0 0 0 1 0 0 0 0 0 0 0 0 0 0 0 0 84 0.0008 0 
10606 8 0.0214552 -0.0603919 0.00855553 0 0 0 -0.00136297 2.56436e-05 -0.00149177 6.0596e-07 -1.46238e-06 1.08984e-06 0 0 0 1 0 0 0 2 0 0 0 0 0 0 0 0 114 0.0008 0 
3491 3 0.0139989 -0.0603175 0.0089531 0 0 0 0.000218136 5.26113e-05 -0.000436415 -2.85757e-06 1.59864e-06 4.18767e-07 0 0 3 0 0 0 0 0 0 0 0 0 0 0 0 0 95 0.0008 0 
6135 3 0.0454319 -0.060527 0.00783245 0 0 0 -0.00202695 -4.85784e-05 -0.000215407 7.6286e-08 -4.48916e-07 -1.0544e-06 0 0 1 0 0 0 0 0 0 0 0 0 0 0 0 0 76 0.0008 0 
12396 1 0.0438698 -0.0606057 0.00741168 0 0 0 -0.00615577 -0.000508925 -0.00235402 3.12487e-08 3.0591e-07 -1.48889e-06 0 0 0 0 0 0 0 0 0 0 0 0 0 0 0 0 115 0.0008 0 
10479 4 0.0326025 -0.0604999 0.00797736 0 0 0 0.00322878 -0.000892985 -0.00565924 -5.39055e-08 2.03196e-06 -1.73989e-06 0 0 0 0 0 0 0 0 0 0 0 0 0 0 0 0 98 0.0008 0 
9563 9 0.035456 -0.0606276 0.00729411 0 0 0 0.00102352 -0.0025823 -0.0138141 -1.15259e-20 -2.53692e-07 -1.35713e-06 0 0 0 0 0 0 0 0 0 0 0 0 0 0 0 0 118 0.0008 0 
13351 2 0.00874995 -0.0305664 -0.0254452 0 0 0 -0.0867692 -2.37818 2.63704 0 -1.05196e-05 0 0 0 0 0 0 0 0 0 0 0 0 0 0 0 0 0 50 0.0008 0 
18178 2 0.0457305 -0.038586 0.00968214 0 0 0 0.0293588 19.3774 77.091 -0.00117831 0.164811 -0.0431304 0 3 0 2 0 1 0 0 0 0 0 0 0 0 0 0 46 0.0008 0 
442 6 0.0474706 -0.0385921 0.00888849 0 0 0 -0.253967 17.6892 77.076 0.00916409 0.167156 0.0438904 0 0 1 1 0 4 0 1 0 0 0 0 0 0 0 0 901 0.0008 0 
15876 6 0.0467463 -0.0379572 0.00958758 0 0 0 0.0697304 19.1903 75.4759 -0.0134394 0.161084 -0.0048219 0 1 0 0 0 6 0 0 0 0 0 0 0 0 0 0 119 0.0008 0 
2019 5 0.0461791 -0.0378033 0.00835087 0 0 0 0.0729791 16.8714 75.4162 -0.0375219 0.171815 0.0545281 0 0 1 1 3 1 0 0 0 0 0 0 0 0 0 0 669 0.0008 0 
12281 3 0.0468942 -0.0368208 0.00750731 0 0 0 -0.0565132 15.1914 73.6083 -0.00439717 0.182573 0.0480647 0 0 5 0 1 0 0 0 0 0 0 0 0 0 0 0 83 0.0008 0 
2324 1 0.00334781 -0.0513028 -0.0287258 0 0 0 -0.27725 1.00676 -7.22811 0 -1.05196e-05 0 0 0 0 0 0 0 0 0 0 0 0 0 0 0 0 0 118 0.0008 0 
134 7 0.0305473 -0.00958539 -0.0351288 0 0 0 -0.0102598 -70.224 19.2079 2.59386e-05 0.0413289 0.15122 0 0 0 1 0 0 1 0 0 0 0 0 0 0 0 0 654 0.0008 0 
7604 2 0.033384 -0.0105558 -0.0387332 0 0 0 -0.0101705 -77.4505 21.144 0.00121977 0.0450647 0.167864 1 3 0 0 1 0 0 0 0 0 0 0 0 0 0 0 450 0.0008 0 
11851 5 0.0303065 -0.00902699 -0.0364279 0 0 0 0.00164789 -72.859 18.0848 0.000127745 0.0382165 0.155184 1 1 0 0 1 1 2 0 0 0 0 0 0 0 0 0 335 0.0008 0 
9772 4 0.0312803 -0.0106078 -0.0365025 0 0 0 0.000598478 -73.0235 21.216 0.00121125 0.0455028 0.155923 0 0 0 3 0 0 0 0 0 0 0 0 0 0 0 0 548 0.0008 0 
100 2 0.0321725 -0.011309 -0.0404698 0 0 0 0.516846 -82.3479 21.2488 0.00308238 -0.127873 0.0129076 0 4 0 0 0 0 0 0 0 0 0 0 0 0 0 0 824 0.0008 0 
9524 3 0.0296341 -0.0120993 -0.039109 0 0 0 0.0575791 -78.1757 24.2743 -0.00966208 0.0531046 0.165611 0 0 1 0 0 0 0 0 0 0 0 0 0 0 0 0 198 0.0008 0 
16015 1 0.0267819 -0.0154247 -0.0405628 0 0 0 -0.0514533 -81.1732 30.7564 -1.57029e-05 0.0658427 0.174393 0 0 0 1 0 0 1 0 1 0 0 0 0 0 0 0 147 0.0008 0 
16848 5 0.0268207 -0.01443 -0.0370754 0 0 0 -0.0846898 -74.2339 28.879 1.32731e-05 0.0619894 0.159382 0 0 0 0 0 0 0 0 0 0 0 0 0 0 0 0 75 0.0008 0 
10637 1 0.0272625 -0.0144526 -0.0387183 0 0 0 -0.00989977 -77.4362 28.9479 1.72009e-08 0.062175 0.166073 0 0 0 0 0 0 0 0 0 0 0 0 0 0 0 0 280 0.0008 0 
16691 6 0.0243725 -0.0186513 -0.0440023 0 0 0 -0.0555186 -88.0012 37.5034 0.000672915 0.0861744 0.185865 0 0 0 0 0 5 0 0 0 0 0 2 0 0 0 0 129 0.0008 0 
3382 4 0.0241513 -0.0183643 -0.0426223 0 0 0 0.0282984 -85.0881 37.056 -0.000583348 0.0803949 0.181402 0 0 0 4 0 1 0 0 0 0 0 2 0 0 0 0 701 0.0008 0 
2710 6 0.0235054 -0.0190089 -0.0419971 0 0 0 -0.0499316 -84.0097 38.206 -0.000353406 0.0821976 0.180694 0 0 0 1 0 2 0 0 0 0 0 1 0 0 0 0 678 0.0008 0 
9966 6 0.0238792 -0.0188563 -0.0414602 0 0 0 0.167872 -82.8877 37.5813 -0.000164393 0.0800056 0.178177 0 0 0 1 0 2 0 0 1 0 0 0 0 0 0 0 488 0.0008 0 
11603 8 0.0211008 -0.0232653 -0.0486393 0 0 0 0.0200502 -97.2785 46.5085 6.005e-05 0.0997123 0.208585 1 0 0 0 0 0 0 1 0 0 0 0 0 0 0 0 125 0.0008 0 
370 1 0.0219283 -0.0219941 -0.0451041 0 0 0 0.0107814 -90.324 43.6567 -0.000250372 0.0929712 0.193759 4 1 0 2 0 0 0 0 0 0 0 1 0 0 0 0 599 0.0008 0 
7049 2 0.0214282 -0.0219076 -0.0463992 0 0 0 -0.042228 -92.6685 44.0255 -0.00016946 0.0945711 0.198354 3 3 0 1 0 0 0 0 0 0 0 0 0 0 0 0 670 0.0008 0 
10324 7 0.0217354 -0.0215742 -0.0430079 0 0 0 0.114115 -86.1241 42.8478 -0.000634242 0.0910992 0.185479 0 0 2 0 0 0 3 0 2 0 0 1 0 0 0 0 376 0.0008 0 
15410 5 0.0221839 -0.0195432 -0.0391881 0 0 0 -0.0525275 -78.3587 39.1925 -0.000585894 0.0839789 0.168114 0 1 1 0 2 0 0 0 0 0 0 0 0 0 0 0 265 0.0008 0 
3488 2 0.0199015 -0.0231694 -0.0452429 0 0 0 -0.036055 -90.4778 46.4172 -0.000144234 0.101256 0.199099 1 2 1 0 0 0 0 0 0 0 0 0 0 0 0 0 432 0.0008 0 
1299 8 0.0226184 -0.0185847 -0.0357788 0 0 0 -0.0581802 -71.6098 37.1786 -4.33851e-06 0.079803 0.153649 1 0 1 1 0 0 0 1 0 1 0 0 0 0 0 0 794 0.0008 0 
10239 8 0.0215324 -0.0203574 -0.0402233 0 0 0 -0.0098022 -80.3991 40.858 -3.40459e-05 0.0878 0.172291 0 0 1 2 1 0 0 3 0 0 0 0 0 0 0 0 374 0.0008 0 
11253 8 0.0204781 -0.0225991 -0.0430616 0 0 0 -0.0717497 -86.1214 45.1865 -0.000133657 0.0969259 0.184616 0 0 1 0 0 0 0 4 0 0 0 0 0 0 0 0 458 0.0008 0 
123 1 0.0214988 -0.0206232 -0.0383095 0 0 0 0.0363983 -76.6233 40.9908 0.000113556 0.0871943 0.164403 4 2 0 0 1 0 0 1 0 0 0 0 0 0 0 0 761 0.0008 0 
8933 4 0.0204798 -0.0213429 -0.037812 0 0 0 -0.00641449 -75.616 42.6557 7.91527e-06 0.0913948 0.162031 1 2 0 2 0 0 0 1 0 0 0 0 0 0 0 0 503 0.0008 0 
3794 3 0.0202762 -0.0219655 -0.0400716 0 0 0 -0.0595285 -80.2021 43.8475 -8.19414e-05 0.0938548 0.172183 0 0 2 1 0 0 0 0 0 0 0 0 0 0 0 0 591 0.0008 0 
10453 9 0.028702 -0.0601542 0.00982693 0 0 0 -0.00675093 -1.07519e-05 -5.75176e-05 -8.14223e-19 -2.53692e-07 -1.35713e-06 0 0 0 0 0 0 0 0 0 0 0 0 0 0 0 0 46 0.0008 0 
6053 1 0.0168284 -0.0601655 0.00976638 0 0 0 -0.00380112 0.0013287 0.00710789 2.59429e-18 -2.53692e-07 -1.35713e-06 0 0 0 0 0 0 0 0 0 0 0 0 0 0 0 0 100 0.0008 0 
13214 1 0.0125424 -0.0601959 0.00960401 0 0 0 0.000219278 -0.000270073 0.000157801 8.98764e-07 -9.12587e-07 -6.16672e-06 3 0 1 0 0 0 0 0 0 0 0 0 0 0 0 0 46 0.0008 0 
13492 7 0.035673 -0.0603215 0.00893182 0 0 0 0.00243593 -0.000842475 -0.00450684 3.46546e-18 -2.53692e-07 -1.35713e-06 0 0 0 0 0 0 0 0 0 0 0 0 0 0 0 0 28 0.0008 0 
3877 5 0.00943244 -0.0603454 0.00880359 0 0 0 -2.43793e-06 -0.000126919 -0.00178903 -3.69397e-06 2.53905e-06 8.37855e-06 0 0 0 0 1 0 0 0 0 0 0 0 0 0 0 0 129 0.0008 0 
12475 3 0.0402732 -0.0606621 0.00710958 0 0 0 0.00771177 -0.000384615 -0.00473495 -1.38945e-08 -1.03692e-05 4.17453e-08 0 0 0 0 0 0 0 0 0 0 0 0 0 0 0 0 127 0.0008 0 
6261 7 0.0341909 -0.0604331 0.00833471 0 0 0 0.00466945 -0.00123079 -0.00437265 3.19212e-07 5.47792e-06 -3.11166e-06 0 0 0 0 0 0 0 0 0 0 0 0 0 0 0 0 72 0.0008 0 
5753 8 0.0412895 -0.060435 0.00832472 0 0 0 -0.00238177 0.000733137 0.00411582 2.86918e-10 -2.30646e-07 -1.35902e-06 0 0 0 0 0 0 0 0 0 0 0 0 0 0 0 0 141 0.0008 0 
881 4 0.0456869 -0.0371301 0.00944537 0 0 0 0.0158477 18.7911 74.0991 -0.00223692 0.166664 -0.0358377 0 1 0 4 1 1 0 0 0 0 0 0 0 0 0 0 968 0.0008 0 
8283 1 0.0298337 -0.0603967 0.00852937 0 0 0 0.00178968 -0.000271133 -0.00109373 -7.51431e-09 -9.88064e-08 -1.40443e-06 0 0 0 0 0 0 0 0 0 0 0 0 0 0 0 0 73 0.0008 0 
1937 15 0.0283053 -0.0604873 0.00804505 0 0 0 0.00199208 -7.03564e-05 -0.000414257 -1.01747e-08 -2.24662e-07 -7.86773e-07 0 0 0 0 0 0 0 0 0 0 0 0 0 0 1 0 110 0.0008 0 
1208 3 0.0459333 -0.0358862 0.00978639 0 0 0 0.0239488 19.503 71.7079 0.00194809 0.153862 -0.043334 0 0 6 1 0 0 0 0 0 0 0 0 0 0 0 0 115 0.0008 0 
3022 1 0.0458755 -0.036394 0.00837429 0 0 0 0.0305977 16.7257 72.6526 -0.0111857 0.166274 -0.0306661 2 0 2 1 1 0 0 0 0 0 0 0 0 0 0 0 799 0.0008 0 
3113 8 0.0468028 -0.0366272 0.00928817 0 0 0 -0.0417292 18.4208 72.8492 0.0106211 0.162558 -0.018684 1 0 1 1 0 1 0 5 0 0 0 0 0 0 0 0 946 0.0008 0 
14029 1 0.0458325 -0.0351213 0.00853748 0 0 0 0.0275338 17.0088 70.2517 -0.00443549 0.149008 -0.0377918 4 0 1 0 0 0 0 0 0 0 0 0 0 0 0 0 357 0.0008 0 
4608 6 0.0464097 -0.0355375 0.00743873 0 0 0 0.0414502 14.9064 71.0144 -0.000909452 0.158668 -0.03725 2 0 1 0 0 3 0 0 0 0 0 0 0 0 0 0 915 0.0008 0 
6492 9 0.04662 -0.0343833 0.00709537 0 0 0 -0.00363976 14.2163 68.7689 -0.000436686 0.146161 -0.0303917 0 0 0 0 0 1 0 0 5 0 0 0 0 0 0 0 759 0.0008 0 
17832 1 0.0104373 -0.0557236 -0.0185788 0 0 0 2.0656 -3.74463 11.5263 0 -1.05196e-05 0 0 0 0 0 0 0 0 0 0 0 0 0 0 0 0 0 21 0.0008 0 
6581 1 0.0316251 -0.0104198 -0.0412377 0 0 0 0.104102 -82.7492 20.6511 0.00426059 0.0225305 0.174539 1 1 0 0 0 0 1 0 0 0 0 0 0 0 0 0 525 0.0008 0 
564 10 0.0335267 -0.00912997 -0.0360512 0 0 0 0.0231134 -72.1139 18.2921 0.000257158 0.0388609 0.154879 1 1 0 0 0 0 0 0 0 3 0 0 0 0 0 0 833 0.0008 0 
5616 7 0.0315524 -0.0100494 -0.0389902 0 0 0 0.0521739 -77.9823 20.1132 0.00683489 0.0298648 0.157944 0 0 0 0 1 1 5 0 0 0 0 0 0 0 0 0 551 0.0008 0 
19073 1 0.0294246 -0.0133092 -0.0419594 0 0 0 -0.0462981 -84.6141 26.0807 -0.112075 0.46583 0.516889 1 0 0 0 0 0 0 0 0 0 0 0 0 0 0 0 13 0.0012 0 
19122 5 0.0304792 -0.0119415 -0.0411813 0 0 0 1.22268 -83.4419 23.5207 -1.05108 1.21143 0.32227 2 1 0 0 1 0 0 0 0 0 0 0 0 0 0 0 18 0.0012 0 
2782 8 0.0324953 -0.0110592 -0.0378368 0 0 0 0.0347449 -75.7191 22.0918 0.00197618 0.0458951 0.167646 0 1 0 0 0 0 0 4 0 0 0 0 0 0 0 0 817 0.0008 0 
10970 2 0.0319292 -0.0152358 -0.0535609 0 0 0 33.982 -83.9576 7.43683 0 -1.05196e-05 0 0 0 0 0 0 0 0 0 0 0 0 0 0 0 0 0 64 0.0008 0 
717 6 0.0262879 -0.0163591 -0.0423252 0 0 0 0.0148009 -84.6192 32.6512 4.40568e-06 0.0702443 0.181999 0 0 0 0 0 2 0 0 0 0 0 0 0 0 0 0 721 0.0008 0 
16590 4 0.0256425 -0.0172031 -0.0430483 0 0 0 -0.0243083 -86.0237 34.4029 -0.0334062 0.0980347 0.185423 0 0 0 2 0 1 0 0 0 0 0 1 0 0 0 0 170 0.0008 0 
12004 1 0.0245903 -0.0170557 -0.0390188 0 0 0 0.00128161 -78.0849 34.323 9.79581e-05 0.0741364 0.167532 1 1 1 0 0 0 0 0 0 0 0 0 0 0 0 0 242 0.0008 0 
14906 2 0.0250036 -0.0184492 -0.045363 0 0 0 -0.266117 -90.5573 36.8933 -0.0295364 0.105671 0.197503 0 2 0 0 0 1 0 0 0 0 0 0 0 0 0 0 83 0.0008 0 
4918 9 0.0238939 -0.0194553 -0.0450251 0 0 0 0.0196022 -89.985 38.9364 -0.00058754 0.0843913 0.19267 1 2 0 0 0 1 0 0 1 0 0 0 0 0 0 0 685 0.0008 0 
3400 4 0.0236585 -0.0199387 -0.0440977 0 0 0 -0.0615237 -88.2624 39.53 5.21294e-05 0.0846062 0.190054 1 1 0 1 0 1 0 0 2 0 0 1 0 0 0 0 738 0.0008 0 
2095 7 0.0236843 -0.0184136 -0.0389505 0 0 0 -0.0828546 -77.9909 36.6876 -0.000203483 0.0783829 0.16762 0 1 0 0 0 0 2 0 0 0 0 0 0 0 0 0 671 0.0008 0 
97 5 0.023072 -0.0183821 -0.0383186 0 0 0 0.0907167 -76.5638 36.9549 -0.000271177 0.0792608 0.163587 1 1 0 0 0 0 1 0 0 0 0 0 0 0 0 0 736 0.0008 0 
7206 6 0.0217503 -0.0224507 -0.046574 0 0 0 -0.0473527 -93.1394 44.7557 -0.000395952 0.0954722 0.199412 3 2 0 0 0 0 0 0 0 0 0 0 0 0 0 0 511 0.0008 0 
2549 2 0.0214809 -0.0207285 -0.0416252 0 0 0 -0.0411339 -83.2222 41.6202 -0.000129811 0.0895339 0.178768 0 1 0 2 0 1 0 1 1 0 0 0 0 0 0 0 656 0.0008 0 
5029 5 0.0207404 -0.0222664 -0.043774 0 0 0 0.0425172 -87.4985 44.5714 0.000407856 0.0955023 0.187397 0 0 1 1 3 0 1 1 0 0 0 0 0 0 0 0 222 0.0008 0 
5538 5 0.0220155 -0.0203916 -0.0392868 0 0 0 0.0710825 -78.6097 40.5071 -7.31301e-05 0.086095 0.168795 1 1 1 1 0 0 0 2 0 0 0 0 0 0 0 0 519 0.0008 0 
2399 5 0.0212329 -0.0214682 -0.0399562 0 0 0 0.0510773 -79.9472 42.5993 0.000121955 0.0905667 0.171204 0 0 1 2 0 0 0 2 0 0 0 0 0 0 0 0 693 0.0008 0 
4033 5 0.0202053 -0.0215851 -0.0388344 0 0 0 0.0329102 -77.6634 43.1546 9.95066e-06 0.0924803 0.166412 0 0 1 1 0 0 0 1 0 0 0 0 0 0 0 0 577 0.0008 0 
5629 1 0.037262 -0.0602382 0.00925017 0 0 0 -0.018082 -0.0233622 -0.00560574 0 -1.05196e-05 0 0 0 0 0 0 0 0 0 0 0 0 0 0 0 0 0 83 0.0008 0 
510 4 0.0272295 -0.0602696 0.00920921 0 0 0 0.000732476 -0.000383938 -0.00173183 7.20336e-08 -2.13331e-07 -1.29088e-06 0 0 0 0 0 0 0 0 0 0 0 0 0 0 0 0 77 0.0008 0 
7002 9 0.0107097 -0.0601246 0.00998472 0 0 0 4.79761e-05 -7.64731e-05 0.000497803 2.4055e-06 -4.76392e-06 -4.49119e-06 0 0 0 0 0 0 0 0 2 0 0 0 0 0 0 0 86 0.0008 0 
13823 5 0.00635408 -0.0602016 0.00957316 0 0 0 6.33219e-05 -6.49532e-05 -0.000197405 -5.64097e-07 3.56487e-07 -9.56487e-07 0 0 0 0 2 0 0 0 0 0 0 0 0 0 0 0 78 0.0008 0 
9290 4 0.0257337 -0.060374 0.008651 0 0 0 0.000437219 -0.000350192 -0.0017003 -7.80564e-07 -2.39387e-07 5.92807e-07 0 0 0 1 0 0 0 0 0 0 0 0 0 0 0 0 54 0.0008 0 
5875 2 0.00784458 -0.0603086 0.00900083 0 0 0 -3.37954e-05 -2.81641e-05 -0.00033607 2.67808e-08 -4.59321e-07 -9.03138e-07 0 1 0 0 0 0 0 0 0 0 0 0 0 0 0 0 86 0.0008 0 
8682 5 0.00496685 -0.0603481 0.00878937 0 0 0 7.05685e-05 0.000177095 8.08744e-05 5.19283e-07 -4.93441e-07 6.28272e-07 0 1 0 0 3 0 0 0 0 0 0 0 0 0 0 0 119 0.0008 0 
14073 8 0.0459671 -0.0344861 0.00956692 0 0 0 0.0023673 19.1382 68.9612 -0.000933592 0.146869 -0.0428911 1 0 1 0 0 0 0 2 0 0 0 0 0 0 0 0 220 0.0008 0 
11423 4 0.0267901 -0.0605948 0.00746994 0 0 0 0.00158272 -0.000202287 -0.000799311 6.37667e-07 -5.97768e-07 -3.51093e-07 0 0 0 1 0 0 0 0 0 0 0 0 0 0 0 0 70 0.0008 0 
420 5 0.0471815 -0.0351476 0.0092305 0 0 0 -0.0706831 18.3967 70.1892 0.0114735 0.140923 -0.0302677 1 0 1 0 4 0 0 2 0 0 0 0 0 0 0 0 962 0.0008 0 
8329 2 0.045816 -0.0338341 0.00807819 0 0 0 -0.0125265 16.1454 67.6961 -0.00151398 0.142536 -0.0352606 1 2 0 0 0 0 0 0 1 0 0 0 0 0 0 0 651 0.0008 0 
12978 6 0.0451511 -0.0328833 0.00680413 0 0 0 -0.0136597 13.6648 65.7476 6.33325e-06 0.140793 -0.0293619 0 0 0 0 0 5 0 0 0 0 0 0 0 0 0 0 333 0.0008 0 
10109 1 0.0464534 -0.0332586 0.00650259 0 0 0 -0.0514822 13.0204 66.4209 -0.000196738 0.141147 -0.0278598 3 0 0 0 0 1 0 0 1 0 0 0 0 0 0 0 412 0.0008 0 
1330 2 0.0456602 -0.0321318 0.0055792 0 0 0 -0.000447187 11.2006 64.2606 2.81465e-05 0.13773 -0.0240937 0 1 0 0 0 1 0 0 0 0 0 0 0 0 0 0 508 0.0008 0 
10644 9 0.0473453 -0.03295 0.00549532 0 0 0 0.0168942 11.0352 65.8805 9.6087e-06 0.141171 -0.0237092 1 0 0 0 0 0 0 0 3 0 0 0 0 0 0 0 127 0.0008 0 
1601 3 0.0471131 -0.0315759 0.00556249 0 0 0 0.0121032 11.1664 63.1739 -7.65863e-06 0.13557 -0.0239517 0 1 6 0 0 0 0 0 1 0 0 0 0 0 0 0 1068 0.0008 0 
4861 9 0.0417458 -0.0568609 -0.0153399 0 0 0 -5.91415 -4.71156 14.3385 0 -1.05196e-05 0 0 0 0 0 0 0 0 0 0 0 0 0 0 0 0 0 58 0.0008 0 
847 1 0.0303213 -0.0100347 -0.0389383 0 0 0 0.0746888 -77.9636 19.8895 0.00818591 0.0276499 0.168626 3 0 0 0 1 0 2 0 0 0 0 0 0 0 0 0 474 0.0008 0 
16871 1 0.0324417 -0.00917666 -0.0350855 0 0 0 0.0436096 -70.135 18.3496 -0.000892298 0.0386698 0.149977 0 1 0 1 0 0 0 0 0 1 0 0 0 0 0 0 145 0.0008 0 
5110 13 0.0306482 -0.0111876 -0.0396129 0 0 0 0.641285 -79.8511 22.6392 -0.0922848 0.0693408 0.128093 2 0 1 0 1 0 1 0 0 0 0 0 1 0 0 0 787 0.0008 0 
9091 5 0.0318643 -0.0114726 -0.0390861 0 0 0 0.0931921 -78.2614 23.156 0.00149303 0.0360421 0.137523 0 1 0 0 1 0 1 1 0 0 0 0 1 0 0 0 445 0.0008 0 
8968 1 0.0287316 -0.0147375 -0.0459372 0 0 0 -0.0127372 -91.8751 29.5251 2.0904e-08 0.0634287 0.197042 0 0 0 0 0 0 0 0 0 0 0 0 0 0 0 0 79 0.0008 0 
15817 4 0.0256738 -0.0174882 -0.0445819 0 0 0 -2.32691 -86.8639 34.4537 0.110771 -0.0461202 0.251591 0 1 0 2 0 0 0 0 0 0 0 0 0 0 0 0 60 0.0008 0 