ITEM: TIMESTEP
10150000
ITEM: NUMBER OF ATOMS
17284
ITEM: BOX BOUNDS ff ff ff
-0.01 0.45
-0.15 0.15
-0.08 0.1
ITEM: ATOMS id type x y z ix iy iz vx vy vz fx fy fz c_cc_1 c_cc_2 c_cc_3 c_cc_4 c_cc_5 c_cc_6 c_cc_7 c_cc_8 c_cc_9 c_cc_10 c_cc_11 c_cc_12 c_cc_13 c_cc_14 c_cc_15 c_cc_16 f_fppacc radius c_cc_17 
13570 9 0.00825906 -0.0143525 -0.0570902 0 0 0 3.32496 -10.509 3.97578 0 -1.05196e-05 0 0 0 0 0 0 0 0 0 0 0 0 0 0 0 0 0 64 0.0008 0 
12275 5 0.0367158 -0.0188323 -0.0559202 0 0 0 -2.43712 -18.7826 6.19912 0 -1.05196e-05 0 0 0 0 0 0 0 0 0 0 0 0 0 0 0 0 0 54 0.0008 0 
9442 8 0.0125678 -0.00536974 -0.0548903 0 0 0 2.01487 -6.91092 -0.592117 0 -1.05196e-05 0 0 0 0 0 0 0 0 0 0 0 0 0 0 0 0 0 64 0.0008 0 
988 9 0.0257379 -0.0297359 -0.0529241 0 0 0 -0.177195 -0.573269 0.252786 0 -1.05196e-05 0 0 0 0 0 0 0 0 0 0 0 0 0 0 0 0 0 61 0.0008 0 
16736 5 0.0295844 -0.0266426 -0.0523903 0 0 0 -18.2324 -23.0654 13.1465 0 -1.05196e-05 0 0 0 0 0 0 0 0 0 0 0 0 0 0 0 0 0 2 0.0008 0 
12473 2 0.0234056 -0.0327627 -0.0466713 0 0 0 4.4439 -12.5527 0.707164 0 -1.05196e-05 0 0 0 0 0 0 0 0 0 0 0 0 0 0 0 0 0 54 0.0008 0 
3899 1 0.00415974 -0.0301925 -0.0467509 0 0 0 0.96357 -2.72464 1.47825 0 -1.05196e-05 0 0 0 0 0 0 0 0 0 0 0 0 0 0 0 0 0 76 0.0008 0 
15338 1 0.00930286 -0.0145219 -0.0475307 0 0 0 0.6233 -0.236842 1.19086 0 -1.05196e-05 0 0 0 0 0 0 0 0 0 0 0 0 0 0 0 0 0 24 0.0008 0 
16759 2 0.0399262 -0.0372071 -0.0455423 0 0 0 0.721275 -15.877 13.3622 0 -1.05196e-05 0 0 0 0 0 0 0 0 0 0 0 0 0 0 0 0 0 12 0.0008 0 
16245 5 0.0133564 -0.0327735 -0.0464011 0 0 0 1.86725 -3.31504 2.06127 0 -1.05196e-05 0 0 0 0 0 0 0 0 0 0 0 0 0 0 0 0 0 20 0.0008 0 
10761 5 0.0061082 -0.0399235 -0.0432446 0 0 0 0.397506 -6.77999 5.69145 0 -1.05196e-05 0 0 0 0 0 0 0 0 0 0 0 0 0 0 0 0 0 56 0.0008 0 
18149 2 0.0190919 -0.0110547 -0.0402046 0 0 0 0.560165 -4.24986 -0.694456 0 -1.05196e-05 0 0 0 0 0 0 0 0 0 0 0 0 0 0 0 0 0 4 0.0008 0 
7133 7 0.00190698 -0.00791808 -0.0403618 0 0 0 0.056994 -4.93656 -0.978385 0 -1.05196e-05 0 0 0 0 0 0 0 0 0 0 0 0 0 0 0 0 0 55 0.0008 0 
13152 4 0.0267285 -0.0442571 -0.038769 0 0 0 -6.55792 -15.1646 18.5075 0 -1.05196e-05 0 0 0 0 0 0 0 0 0 0 0 0 0 0 0 0 0 45 0.0008 0 
13333 2 0.00650711 -0.0356387 -0.0390374 0 0 0 1.31556 -18.4348 10.9093 0 -1.05196e-05 0 0 0 0 0 0 0 0 0 0 0 0 0 0 0 0 0 61 0.0008 0 
10617 7 0.00297561 -0.0256321 -0.0388941 0 0 0 -0.288537 -2.4347 0.654359 0 -1.05196e-05 0 0 0 0 0 0 0 0 0 0 0 0 0 0 0 0 0 48 0.0008 0 
6937 4 0.032839 -0.0479379 -0.0341825 0 0 0 2.40776 -3.12 3.79426 0 -1.05196e-05 0 0 0 0 0 0 0 0 0 0 0 0 0 0 0 0 0 40 0.0008 0 
1748 4 0.0368016 -0.0502357 -0.0306731 0 0 0 5.0886 -6.31134 11.5017 0 -1.05196e-05 0 0 0 0 0 0 0 0 0 0 0 0 0 0 0 0 0 81 0.0008 0 
3907 7 0.0188336 -0.0518601 -0.02828 0 0 0 -0.241517 -10.4754 16.7378 0.000115039 0.0616498 0.0334285 0 0 0 0 0 0 0 0 0 0 0 0 0 0 0 0 66 0.0008 0 
4979 3 0.026024 -0.0516181 -0.0286662 0 0 0 -6.35245 -13.3961 16.6402 0.0579442 0.13043 0.0422279 0 0 0 0 0 0 0 0 0 0 0 0 0 0 0 0 68 0.0008 0 
8602 1 0.0469591 -0.0578501 -0.0193555 0 0 0 -0.185252 -0.00838082 0.0216334 4.01043e-19 -9.80505e-07 2.53098e-06 0 0 0 0 0 0 0 0 0 0 0 0 0 0 0 0 29 0.0008 0 
18754 1 0.0366652 -0.0474567 -0.0191527 0 0 0 1.36123 -11.8828 24.7184 0 -3.55035e-05 0 0 0 0 0 0 0 0 0 0 0 0 0 0 0 0 0 0 0.0012 0 
14055 8 0.0471768 -0.0584566 -0.01779 0 0 0 0.119973 0.0309462 -0.0798813 -1.31886e-17 -9.80505e-07 2.53098e-06 0 0 0 0 0 0 0 0 0 0 0 0 0 0 0 0 18 0.0008 0 
12335 5 0.0141915 -0.0590304 -0.015835 0 0 0 -0.150726 -0.0382171 0.232217 0 -1.05196e-05 0 0 0 0 0 0 0 0 0 0 0 0 0 0 0 0 0 11 0.0008 0 
702 2 0.0236166 -0.0591827 -0.0150238 0 0 0 -0.117703 -0.00211672 0.0113234 -2.3074e-18 -2.53692e-07 1.35713e-06 0 0 0 0 0 0 0 0 0 0 0 0 0 0 0 0 64 0.0008 0 
11726 4 0.0356872 -0.0590753 -0.0155986 0 0 0 -0.0795004 -0.000853373 0.00456514 8.97857e-18 -2.53692e-07 1.35713e-06 0 0 0 0 0 0 0 0 0 0 0 0 0 0 0 0 19 0.0008 0 
1800 14 0.0345213 -0.056784 -0.0158041 0 0 0 5.27147 -4.06113 12.2755 0 -1.05196e-05 0 0 0 0 0 0 0 0 0 0 0 0 0 0 0 0 0 96 0.0008 0 
10753 9 0.0419582 -0.0562694 -0.0147545 0 0 0 5.2211 -5.7536 21.3019 0 -1.05196e-05 0 0 0 0 0 0 0 0 0 0 0 0 0 0 0 0 0 66 0.0008 0 
11974 2 0.0232397 -0.0594944 -0.0133562 0 0 0 -0.100842 -0.00350249 0.0187366 4.56188e-18 -2.53692e-07 1.35713e-06 0 0 0 0 0 0 0 0 0 0 0 0 0 0 0 0 17 0.0008 0 
13872 3 0.0252129 -0.0594021 -0.01385 0 0 0 -0.169179 0.000261247 -0.00139755 -4.63688e-18 -2.53692e-07 1.35713e-06 0 0 0 0 0 0 0 0 0 0 0 0 0 0 0 0 20 0.0008 0 
14062 1 0.0355899 -0.0594027 -0.0138471 0 0 0 -0.019462 -0.00282279 0.0151006 -3.12578e-15 -2.53692e-07 1.35713e-06 0 0 0 0 0 0 0 0 0 0 0 0 0 0 0 0 37 0.0008 0 
15694 7 0.0396714 -0.0593303 -0.0142343 0 0 0 -0.0197563 0.00526789 -0.0281807 -4.16663e-18 -2.53692e-07 1.35713e-06 0 0 0 0 0 0 0 0 0 0 0 0 0 0 0 0 0 0.0008 0 
17627 1 0.0460907 -0.0593673 -0.0140362 0 0 0 0.0529747 -0.00057144 0.00305693 -4.89654e-18 -2.53692e-07 1.35713e-06 0 0 0 0 0 0 0 0 0 0 0 0 0 0 0 0 0 0.0008 0 
13923 7 0.00213387 -0.0596246 -0.0126599 0 0 0 0.0542267 -0.00332438 0.0177838 3.59038e-18 -2.53692e-07 1.35713e-06 0 0 0 0 0 0 0 0 0 0 0 0 0 0 0 0 20 0.0008 0 
17465 4 0.0245031 -0.0597839 -0.0118079 0 0 0 -0.0436196 0.000328926 -0.0017596 2.69305e-18 -2.53692e-07 1.35713e-06 0 0 0 0 0 0 0 0 0 0 0 0 0 0 0 0 0 0.0008 0 
18396 4 0.0271699 -0.0597112 -0.0121968 0 0 0 -0.071836 0.00591901 -0.0316698 2.26299e-11 -2.13738e-07 1.36489e-06 0 0 0 0 0 0 0 0 0 0 0 0 0 0 0 0 1 0.0008 0 
17917 3 0.0345032 -0.0596253 -0.0126561 0 0 0 -0.0121799 -0.00437074 0.0233814 1.26081e-15 -2.53689e-07 1.35713e-06 0 0 0 0 0 0 0 0 0 0 0 0 0 0 0 0 1 0.0008 0 
1313 4 0.0363566 -0.0596947 -0.0122847 0 0 0 0.0024195 -0.00663767 0.0355084 -7.41361e-19 -2.53692e-07 1.35713e-06 0 0 0 0 0 0 0 0 0 0 0 0 0 0 0 0 40 0.0008 0 
10209 5 0.0429075 -0.0597238 -0.0121294 0 0 0 0.0701046 0.00759211 -0.0406141 8.1256e-18 -2.53692e-07 1.35713e-06 0 0 0 0 0 0 0 0 0 0 0 0 0 0 0 0 34 0.0008 0 
14994 1 0.0445183 -0.0596158 -0.0127067 0 0 0 0.0787895 0.006847 -0.0366282 -3.63748e-18 -2.53692e-07 1.35713e-06 0 0 0 0 0 0 0 0 0 0 0 0 0 0 0 0 16 0.0008 0 
3859 5 0.019772 -0.0457627 -0.0121044 0 0 0 2.59828 -2.07229 5.43883 0 -1.05196e-05 0 0 0 0 0 0 0 0 0 0 0 0 0 0 0 0 0 97 0.0008 0 
16349 4 0.000806504 -0.0598302 -0.0115602 0 0 0 0.00146085 0.00207246 -0.0110867 3.42764e-16 -2.53717e-07 1.35713e-06 0 0 0 0 0 0 0 0 0 0 0 0 0 0 0 0 4 0.0008 0 
7470 3 0.00633989 -0.0597295 -0.0108844 0 0 0 -0.07141 0.0405289 -0.108126 0 -1.05196e-05 0 0 0 0 0 0 0 0 0 0 0 0 0 0 0 0 0 46 0.0008 0 
15203 3 0.0175843 -0.0599949 -0.0106791 0 0 0 -0.0538033 0.00320042 -0.0171207 2.68313e-18 -2.53692e-07 1.35713e-06 0 0 0 0 0 0 0 0 0 0 0 0 0 0 0 0 18 0.0008 0 
13193 11 0.021357 -0.0600165 -0.0105635 0 0 0 -0.0493528 -0.00234857 0.0125637 5.61321e-18 -2.53692e-07 1.35713e-06 0 0 0 0 0 0 0 0 0 0 0 0 0 0 0 0 28 0.0008 0 
17453 12 0.0229735 -0.0598972 -0.0112013 0 0 0 -0.0446778 0.000298325 -0.00159589 -2.64815e-18 -2.53692e-07 1.35713e-06 0 0 0 0 0 0 0 0 0 0 0 0 0 0 0 0 2 0.0008 0 
9644 2 0.026276 -0.0599562 -0.010886 0 0 0 -0.033426 0.00022208 -0.00118883 1.09534e-12 -2.83193e-07 1.35136e-06 0 0 0 0 0 0 0 0 0 0 0 0 0 0 0 0 14 0.0008 0 
11428 3 0.0321591 -0.0599317 -0.0110169 0 0 0 -0.0398981 0.00309595 -0.0165618 -3.56751e-18 -2.53692e-07 1.35713e-06 0 0 0 0 0 0 0 0 0 0 0 0 0 0 0 0 15 0.0008 0 
6537 6 0.0346028 -0.0600059 -0.0106203 0 0 0 -0.0103269 -0.00273389 0.014625 -1.0716e-18 -2.53692e-07 1.35713e-06 0 0 0 0 0 0 0 0 0 0 0 0 0 0 0 0 30 0.0008 0 
5801 6 0.036587 -0.0600537 -0.0103642 0 0 0 -0.00676804 -0.00684395 0.0366119 9.71245e-19 -2.53692e-07 1.35713e-06 0 0 0 0 0 0 0 0 0 0 0 0 0 0 0 0 38 0.0008 0 
15188 4 0.0380309 -0.0599169 -0.0110963 0 0 0 -0.00976309 -0.00778984 0.0416719 4.31946e-18 -2.5285e-07 1.35263e-06 0 0 0 0 0 0 0 0 0 0 0 0 0 0 0 0 3 0.0008 0 
4489 4 0.0399791 -0.0600007 -0.0106479 0 0 0 0.0607159 0.00486484 -0.0260246 -4.11558e-18 -2.53692e-07 1.35713e-06 0 0 0 0 0 0 0 0 0 0 0 0 0 0 0 0 55 0.0008 0 
10781 5 0.0417526 -0.0599321 -0.0110148 0 0 0 0.0582615 0.0125889 -0.0673445 -1.50132e-18 -2.53692e-07 1.35713e-06 0 0 0 0 0 0 0 0 0 0 0 0 0 0 0 0 56 0.0008 0 
12382 5 0.0443464 -0.0599725 -0.0107987 0 0 0 0.0233505 0.00184483 -0.00986898 3.14755e-18 -2.53692e-07 1.35713e-06 0 0 0 0 0 0 0 0 0 0 0 0 0 0 0 0 14 0.0008 0 
18815 4 0.0284277 -0.056644 -0.0116074 0 0 0 15.5832 -7.95877 34.6096 0 -3.55035e-05 0 0 0 0 0 0 0 0 0 0 0 0 0 0 0 0 0 0 0.0012 0 
17147 2 0.01777 -0.0603207 -0.008936 0 0 0 0.00160064 0.00397243 -0.0212506 3.45823e-17 -2.53694e-07 1.35713e-06 0 0 0 0 0 0 0 0 0 0 0 0 0 0 0 0 8 0.0008 0 
10441 10 0.0219798 -0.0603004 -0.00904489 0 0 0 -0.0068406 -0.001531 0.00819014 -7.36745e-19 -2.53692e-07 1.35713e-06 0 0 0 0 0 0 0 0 0 0 0 0 0 0 0 0 48 0.0008 0 
12749 3 0.0236062 -0.0603001 -0.00904652 0 0 0 -0.00426951 2.08351e-05 -0.0012652 4.7602e-07 2.53999e-06 3.48653e-06 0 0 1 0 0 0 0 0 0 0 0 0 0 0 0 0 15 0.0008 0 
13493 8 0.0463329 -0.0603177 -0.00895226 0 0 0 0.00100236 0.00181032 -0.00968436 8.21625e-20 -2.53692e-07 1.35713e-06 0 0 0 0 0 0 0 0 0 0 0 0 0 0 0 0 63 0.0008 0 
14170 7 0.00110109 -0.0601262 -0.00997636 0 0 0 -0.0225283 0.000512911 -0.00275258 -3.44256e-09 -2.20634e-07 1.33436e-06 0 0 0 0 0 0 0 0 0 0 0 0 0 0 0 0 11 0.0008 0 
15555 3 0.00249733 -0.0602721 -0.00919589 0 0 0 -0.0267399 -1.45034e-05 -0.00121 -1.27621e-10 -8.44041e-08 1.37619e-06 0 0 0 0 0 0 0 0 0 0 0 0 0 0 0 0 10 0.0008 0 
14527 2 0.00408229 -0.0601032 -0.0100996 0 0 0 -0.0135535 0.000984705 -0.0052677 -5.69282e-18 -2.53692e-07 1.35713e-06 0 0 0 0 0 0 0 0 0 0 0 0 0 0 0 0 15 0.0008 0 
5338 2 0.0053006 -0.0602168 -0.00903191 0 0 0 -0.0268321 -0.0138306 -0.00763649 0 -1.05196e-05 0 0 0 0 0 0 0 0 0 0 0 0 0 0 0 0 0 63 0.0008 0 
14539 6 0.01011 -0.059716 -0.0101931 0 0 0 0.00177663 -0.02035 -0.0328717 0 -1.05196e-05 0 0 0 0 0 0 0 0 0 0 0 0 0 0 0 0 0 4 0.0008 0 
13645 4 0.0147038 -0.0602534 -0.009296 0 0 0 0.0511557 0.0120556 -0.0644919 -7.30013e-20 -2.53692e-07 1.35713e-06 0 0 0 0 0 0 0 0 0 0 0 0 0 0 0 0 52 0.0008 0 
18001 5 0.0163394 -0.0601826 -0.00967483 0 0 0 -0.0122308 0.000666578 -0.00356587 -2.78604e-16 -2.53692e-07 1.35713e-06 0 0 0 0 0 0 0 0 0 0 0 0 0 0 0 0 1 0.0008 0 
15517 2 0.0198949 -0.060201 -0.0095763 0 0 0 -0.0328586 0.00265524 -0.0142043 -2.4856e-18 -2.53692e-07 1.35713e-06 0 0 0 0 0 0 0 0 0 0 0 0 0 0 0 0 13 0.0008 0 
2010 2 0.0251265 -0.0602073 -0.00953655 0 0 0 -0.00183828 -0.00731354 0.0151618 0 -1.05196e-05 0 0 0 0 0 0 0 0 0 0 0 0 0 0 0 0 0 50 0.0008 0 
1903 4 0.0267256 -0.0602389 -0.00937382 0 0 0 -0.0156037 0.000963256 -0.00515391 6.09168e-13 -2.67536e-07 1.35442e-06 0 0 0 0 0 0 0 0 0 0 0 0 0 0 0 0 87 0.0008 0 
17490 7 0.0297854 -0.0601969 -0.00959846 0 0 0 0.0172054 5.3103e-05 -0.000284076 -5.8731e-16 -2.53691e-07 1.35713e-06 0 0 0 0 0 0 0 0 0 0 0 0 0 0 0 0 2 0.0008 0 
8211 15 0.0350831 -0.0602913 -0.0090935 0 0 0 -0.0173556 -0.00340592 0.0182201 -2.01774e-18 -2.53692e-07 1.35713e-06 0 0 0 0 0 0 0 0 0 0 0 0 0 0 0 0 60 0.0008 0 
9184 3 0.0429856 -0.0601407 -0.00989898 0 0 0 0.0249133 -0.00032942 0.00176224 7.42909e-18 -2.53692e-07 1.35713e-06 0 0 0 0 0 0 0 0 0 0 0 0 0 0 0 0 62 0.0008 0 
924 3 0.0447588 -0.0602576 -0.00927344 0 0 0 -0.00182812 0.00061636 -0.00329723 -2.40198e-17 -2.53687e-07 1.35713e-06 0 0 0 0 0 0 0 0 0 0 0 0 0 0 0 0 51 0.0008 0 
12757 3 0.000800106 -0.060415 -0.00843168 0 0 0 0.000392472 -0.000318387 0.00173282 1.73993e-08 -6.36754e-07 1.30483e-06 0 0 0 0 0 0 0 0 0 0 0 0 0 0 0 0 28 0.0008 0 
7654 8 0.00241457 -0.0605657 -0.00762521 0 0 0 -0.0148615 0.000244694 -0.00064344 2.27667e-08 -2.11782e-06 7.94885e-07 0 0 0 0 0 0 0 0 0 0 0 0 0 0 0 0 93 0.0008 0 
17336 10 0.00385878 -0.0604267 -0.00836913 0 0 0 -0.02484 0.000328337 -0.000488531 6.49064e-06 4.85381e-06 -8.952e-07 0 0 0 0 0 0 0 0 0 0 0 0 0 0 0 0 27 0.0008 0 
15828 4 0.00525404 -0.0605949 -0.00746943 0 0 0 -0.0157469 5.82693e-06 -6.26248e-06 -1.63155e-06 3.49337e-07 -1.99845e-06 0 0 0 0 0 0 0 0 0 0 0 0 0 0 0 0 17 0.0008 0 
15381 2 0.00718791 -0.0603997 -0.00826013 0 0 0 0.0146954 -0.024419 -0.0254331 0 -1.05196e-05 0 0 0 0 0 0 0 0 0 0 0 0 0 0 0 0 0 8 0.0008 0 
8467 4 0.00898479 -0.0603605 -0.0087262 0 0 0 0.000573054 0.00494207 -0.00881099 -7.01745e-07 0.000119424 3.72091e-05 0 0 0 0 0 0 0 0 0 0 0 0 0 0 0 0 53 0.0008 0 
752 3 0.0101759 -0.0605628 -0.00764081 0 0 0 -0.000562436 0.000247003 -0.00117686 -2.61683e-09 -2.27676e-08 1.40944e-06 0 0 0 0 0 0 0 0 0 0 0 0 0 0 0 0 58 0.0008 0 
2108 4 0.011587 -0.0604228 -0.00838955 0 0 0 0.0161768 -0.00593618 0.027307 -2.69593e-09 9.76267e-07 8.75863e-07 0 0 0 0 0 0 0 0 0 0 0 0 0 0 0 0 68 0.0008 0 
7967 9 0.0131716 -0.0605294 -0.0078194 0 0 0 0.0435809 0.00110077 -0.00588861 -2.98151e-14 -2.53653e-07 1.35714e-06 0 0 0 0 0 0 0 0 0 0 0 0 0 0 0 0 79 0.0008 0 
13527 2 0.0158426 -0.0604934 -0.00801234 0 0 0 0.0191427 0.000744733 -0.00398396 2.37265e-18 -2.53692e-07 1.35713e-06 0 0 0 0 0 0 0 0 0 0 0 0 0 0 0 0 16 0.0008 0 
16168 4 0.0191309 -0.0604869 -0.008047 0 0 0 -0.0109836 -0.00071728 0.00383711 1.96028e-17 -2.53692e-07 1.35713e-06 0 0 0 0 0 0 0 0 0 0 0 0 0 0 0 0 26 0.0008 0 
9574 2 0.0218822 -0.0605968 -0.00745927 0 0 0 -0.000910288 -0.00195638 0.0104657 -1.41893e-19 -2.53692e-07 1.35713e-06 0 0 0 0 0 0 0 0 0 0 0 0 0 0 0 0 50 0.0008 0 
7627 1 0.0235913 -0.060594 -0.00747401 0 0 0 -0.00677214 0.000379976 -0.000790896 2.81013e-07 8.48158e-07 4.66229e-07 1 0 1 0 0 0 0 0 0 0 0 0 0 0 0 0 41 0.0008 0 
17720 5 0.0252515 -0.0605426 -0.00774915 0 0 0 0.00776922 -0.00183316 0.00980656 5.33426e-19 -2.53692e-07 1.35713e-06 0 0 0 0 0 0 0 0 0 0 0 0 0 0 0 0 5 0.0008 0 
874 2 0.0271038 -0.0605247 -0.007845 0 0 0 0.00461579 0.00173957 -0.00930586 -2.79971e-13 -2.42894e-07 1.35924e-06 0 0 0 0 0 0 0 0 0 0 0 0 0 0 0 0 49 0.0008 0 
4132 2 0.0284039 -0.0603526 -0.00876541 0 0 0 0.00897604 0.000911651 -0.0048769 1.12322e-15 -2.53694e-07 1.35713e-06 0 0 0 0 0 0 0 0 0 0 0 0 0 0 0 0 68 0.0008 0 
18020 5 0.0308099 -0.0604459 -0.0082662 0 0 0 -0.00872233 0.00282648 -0.0151276 1.18651e-09 -2.24573e-07 1.36147e-06 0 0 0 0 0 0 0 0 0 0 0 0 0 0 0 0 1 0.0008 0 
5232 3 0.0397299 -0.0603451 -0.00880531 0 0 0 0.0495618 0.0102815 -0.0550012 -1.23633e-14 -2.53706e-07 1.35713e-06 0 0 0 0 0 0 0 0 0 0 0 0 0 0 0 0 55 0.0008 0 
7503 4 0.0406309 -0.0605967 -0.00745975 0 0 0 0.0183841 0.00426669 -0.0228247 -1.74293e-16 -2.53689e-07 1.35713e-06 0 0 0 0 0 0 0 0 0 0 0 0 0 0 0 0 59 0.0008 0 
4160 5 0.0423172 -0.0604211 -0.00839897 0 0 0 -0.00291667 0.000226436 -0.0012372 3.85691e-12 -2.81097e-07 1.35149e-06 0 0 0 0 0 0 0 0 0 0 0 0 0 0 0 0 56 0.0008 0 
7257 5 0.0438866 -0.0605061 -0.00794416 0 0 0 -0.00256381 0.000545737 -0.00250318 -9.27687e-08 -3.27004e-07 1.2783e-06 0 0 0 0 1 0 0 0 0 0 0 0 0 0 0 0 26 0.0008 0 
3129 3 0.000802576 -0.060709 -0.00685869 0 0 0 -0.000132557 -0.000357226 0.00191372 1.05903e-08 -8.61724e-08 3.84898e-07 0 0 1 0 0 0 0 0 0 0 0 0 0 0 0 0 39 0.0008 0 
8040 3 0.0022065 -0.0608574 -0.00606487 0 0 0 0.00110445 -0.000671529 0.00377883 -1.84366e-09 5.32441e-07 1.51688e-06 0 0 0 0 0 0 0 0 0 0 0 0 0 0 0 0 103 0.0008 0 
14580 12 0.00380412 -0.060721 -0.00679487 0 0 0 -0.0176506 -0.000209887 0.00368211 1.44235e-08 -3.23787e-06 4.16292e-07 0 0 0 0 0 0 0 0 0 0 0 0 0 0 0 0 52 0.0008 0 
12332 2 0.0066616 -0.0607564 -0.00660538 0 0 0 -0.00245336 0.000676281 -0.00361628 -1.9561e-13 -2.57394e-07 1.35642e-06 0 0 0 0 0 0 0 0 0 0 0 0 0 0 0 0 48 0.0008 0 
17589 11 0.0082073 -0.0606719 -0.00705731 0 0 0 -0.0089347 -5.36084e-05 0.000219061 -2.68619e-09 5.46729e-08 1.57304e-07 0 0 0 0 0 0 0 0 0 0 1 0 0 0 0 0 27 0.0008 0 
16821 3 0.00955688 -0.0608341 -0.00618977 0 0 0 -0.00354264 0.000148743 -0.000940652 5.20172e-09 -5.85613e-07 1.28097e-06 0 0 0 0 0 0 0 0 0 0 0 0 0 0 0 0 27 0.0008 0 
15785 4 0.0115683 -0.0607192 -0.00680422 0 0 0 0.0134188 0.00258593 -0.0138335 -8.10284e-17 -2.53692e-07 1.35713e-06 0 0 0 0 0 0 0 0 0 0 0 0 0 0 0 0 11 0.0008 0 
16369 1 0.0141347 -0.0607641 -0.006559 0 0 0 0.0193072 0.0127763 -0.00793478 -8.59653e-05 3.93585e-05 -2.06587e-05 1 0 0 0 0 0 0 0 0 0 0 0 0 0 0 0 21 0.0008 0 
1637 5 0.0156721 -0.0608462 -0.00612768 0 0 0 0.0274609 -0.000823748 -0.000538677 1.1124e-06 0.00010011 1.38684e-05 1 0 0 0 1 0 0 0 0 0 0 0 0 0 0 0 80 0.0008 0 
13175 6 0.0174372 -0.060611 -0.00738286 0 0 0 0.016948 0.00236538 -0.0125724 -1.71761e-09 -3.52902e-07 1.33958e-06 0 0 0 0 0 0 0 0 0 0 0 0 0 0 0 0 33 0.0008 0 
5399 2 0.0187751 -0.0607738 -0.00651209 0 0 0 0.0062322 -0.0010988 0.00583837 -7.87229e-09 -1.55665e-07 1.37244e-06 0 0 0 0 0 0 0 0 0 0 0 0 0 0 0 0 89 0.0008 0 
15806 3 0.0203472 -0.0606844 -0.00699023 0 0 0 -0.00491544 -0.000305817 0.00163597 1.0209e-18 -2.53692e-07 1.35713e-06 0 0 0 0 0 0 0 0 0 0 0 0 0 0 0 0 29 0.0008 0 
15618 1 0.0248437 -0.0608343 -0.00618832 0 0 0 -0.00663875 0.000442855 -0.00236072 3.77043e-12 -2.301e-07 1.36183e-06 0 0 0 0 0 0 0 0 0 0 0 0 0 0 0 0 19 0.0008 0 
658 6 0.0264304 -0.0607947 -0.00640044 0 0 0 -0.00941279 0.00250752 -0.0133176 -2.0148e-09 -5.24643e-07 1.3042e-06 0 0 0 0 0 0 0 0 0 0 0 0 0 0 0 0 68 0.0008 0 
16870 13 0.0282956 -0.060721 -0.0067951 0 0 0 0.00719738 0.00185559 -0.0128272 1.09328e-06 2.69912e-06 -1.01874e-05 0 0 0 0 0 0 0 0 0 0 0 0 1 0 0 0 15 0.0008 0 
9557 4 0.0299719 -0.0606967 -0.0069246 0 0 0 0.000203819 0.00179146 -0.00958784 2.69779e-11 -2.05553e-07 1.36646e-06 0 0 0 0 0 0 0 0 0 0 0 0 0 0 0 0 55 0.0008 0 
15810 2 0.0316053 -0.0607151 -0.00682594 0 0 0 0.0108181 0.000416795 -0.00389703 1.52667e-07 -5.80193e-06 -5.4157e-08 0 0 0 0 0 0 0 0 0 0 0 0 0 0 0 0 5 0.0008 0 
8496 3 0.0359365 -0.0606858 -0.00698272 0 0 0 -0.00170749 0.00103614 -0.00554285 -6.13041e-19 -2.53692e-07 1.35713e-06 0 0 0 0 0 0 0 0 0 0 0 0 0 0 0 0 50 0.0008 0 
338 3 0.0374056 -0.0608117 -0.0063096 0 0 0 0.00315807 0.00276053 -0.0147681 -1.05615e-13 -2.50454e-07 1.35776e-06 0 0 0 0 0 0 0 0 0 0 0 0 0 0 0 0 44 0.0008 0 
4777 3 0.0414845 -0.0608503 -0.00610278 0 0 0 -0.0108228 0.000167497 -0.000795662 -1.58349e-08 -9.82517e-07 1.19999e-06 0 0 0 0 0 0 0 0 0 0 0 0 0 0 0 0 76 0.0008 0 
4952 4 0.0430203 -0.0607607 -0.0065824 0 0 0 -0.0127101 0.000318535 -0.00170401 8.91944e-16 -2.53692e-07 1.35713e-06 0 0 0 0 0 0 0 0 0 0 0 0 0 0 0 0 67 0.0008 0 
11962 4 0.0453701 -0.0606162 -0.00735518 0 0 0 -0.0104182 -0.00322248 0.0174072 -4.03954e-07 -1.07203e-07 1.32459e-06 0 0 0 0 1 0 0 0 0 0 0 0 0 0 0 0 43 0.0008 0 
10116 2 0.0469549 -0.0606573 -0.00713529 0 0 0 -0.00260981 0.00498729 -0.0172058 -2.20438e-06 -1.68008e-05 -1.78315e-06 0 0 0 0 0 0 0 0 0 0 0 0 0 0 0 0 64 0.0008 0 
18794 3 0.0216414 -0.0580459 -0.00603267 0 0 0 -9.21374 1.89086 39.2935 -0.218996 0.451787 -0.0614138 0 0 1 0 0 0 0 0 0 0 0 0 0 0 0 0 1 0.0012 0 
7649 2 0.000810422 -0.0609356 -0.00527488 0 0 0 0.00127508 1.74981e-06 0.00197255 -1.51512e-08 5.52707e-08 2.79787e-07 0 0 1 0 0 0 0 0 0 0 0 0 0 0 0 0 58 0.0008 0 
4413 6 0.00366068 -0.0609356 -0.00521515 0 0 0 -0.00378065 0.000235735 0.00524322 1.26151e-06 7.21655e-07 -1.20959e-06 0 0 0 0 0 1 0 0 0 0 0 0 0 0 0 0 74 0.0008 0 
14360 4 0.00523279 -0.0608888 -0.00589693 0 0 0 -0.000303134 -4.1281e-06 0.000244477 -3.37776e-07 -3.55815e-07 1.91657e-06 0 0 0 1 0 0 0 0 0 0 0 0 0 0 0 0 41 0.0008 0 
3837 1 0.00654971 -0.0609356 -0.00498959 0 0 0 -0.000373577 -4.05778e-05 -0.000220644 6.22061e-07 -2.69859e-07 1.34668e-06 1 0 0 1 0 0 0 0 0 0 0 0 0 0 0 0 109 0.0008 0 
4306 9 0.00807112 -0.0609356 -0.00548513 0 0 0 -2.4647e-05 -8.38297e-07 0.000958403 -4.21031e-07 -1.13454e-07 -4.56854e-07 0 0 0 0 0 0 0 0 1 0 1 0 0 0 0 0 66 0.0008 0 
2611 5 0.00936601 -0.0609356 -0.00454538 0 0 0 9.58392e-05 -4.75379e-06 0.000595746 8.93808e-08 1.64447e-08 4.26905e-07 0 0 0 0 1 0 0 0 1 0 0 0 0 0 0 0 67 0.0008 0 
255 2 0.0108661 -0.0609356 -0.00524427 0 0 0 0.00260961 -2.4944e-09 -0.00656032 -1.8152e-15 -1.10671e-11 4.56325e-15 0 0 0 0 0 0 0 0 0 0 0 0 0 0 0 0 57 0.0008 0 
4848 7 0.0125277 -0.0609356 -0.00553695 0 0 0 0.00549241 -8.99641e-07 -0.0163284 -3.58459e-11 6.39676e-08 -9.86528e-12 0 0 0 0 0 0 0 0 0 0 0 0 0 0 0 0 66 0.0008 0 
15272 2 0.014023 -0.0609356 -0.00496142 0 0 0 0.00219014 2.8582e-07 -0.00328886 -5.43979e-11 -5.56285e-08 -2.15093e-11 0 0 0 0 0 0 0 0 0 0 0 0 0 0 0 0 17 0.0008 0 
14749 4 0.0156132 -0.0609356 -0.00453144 0 0 0 -0.0001161 9.86869e-05 -0.00387011 5.06952e-06 5.54965e-07 1.36445e-05 0 0 0 0 1 0 0 0 0 0 0 0 0 0 0 0 36 0.0008 0 
5892 2 0.0172697 -0.0609035 -0.00581857 0 0 0 0.0160169 0.00772724 -0.0113456 -2.87873e-06 -3.55499e-05 -5.59422e-06 0 0 0 0 0 0 0 0 0 0 0 0 0 0 0 0 55 0.0008 0 
14256 8 0.0185902 -0.0609356 -0.00491408 0 0 0 0.0059372 -7.79237e-06 0.00676972 -1.05899e-10 -1.90585e-07 -1.11024e-10 0 0 0 0 0 0 0 0 0 0 0 0 0 0 0 0 33 0.0008 0 
11880 4 0.0201091 -0.0609356 -0.00541994 0 0 0 0.0034852 1.65983e-05 -0.00344761 -2.16348e-07 2.51002e-07 -9.35127e-08 0 0 0 1 0 0 0 0 0 0 0 0 0 0 0 0 56 0.0008 0 
16506 3 0.0216689 -0.0609107 -0.00577993 0 0 0 0.00536177 -0.000984879 0.00525775 -1.10848e-11 -2.55353e-07 1.35669e-06 0 0 0 0 0 0 0 0 0 0 0 0 0 0 0 0 12 0.0008 0 
13149 4 0.0232615 -0.0608816 -0.00593529 0 0 0 0.00467282 -0.000880942 0.00193533 -6.64929e-07 -2.21457e-06 2.18719e-06 1 0 0 2 0 0 0 0 0 0 0 0 0 0 0 0 70 0.0008 0 
14683 7 0.0242288 -0.0609356 -0.00466211 0 0 0 0.00256315 0.000394184 0.00456675 6.69098e-07 -2.67593e-06 1.13225e-06 0 0 0 1 0 0 0 0 0 0 0 0 0 0 0 0 28 0.0008 0 
12617 7 0.0258195 -0.0609356 -0.00492287 0 0 0 -0.000471143 -3.81503e-06 -0.0105875 1.10164e-10 6.20039e-08 1.06425e-10 0 0 0 0 0 0 0 0 0 0 0 0 0 0 0 0 36 0.0008 0 
14576 3 0.0276359 -0.0609356 -0.00535368 0 0 0 -0.00172502 0.000557463 -0.0178525 -5.92018e-06 9.07215e-07 2.40749e-05 0 0 0 0 0 0 0 0 0 0 0 0 1 0 0 0 24 0.0008 0 
6450 6 0.0292439 -0.0609356 -0.0055188 0 0 0 -0.00602632 3.87915e-05 -0.01255 -2.77986e-08 -4.3344e-07 6.79173e-08 0 0 0 0 0 0 0 0 0 0 0 0 0 0 0 0 57 0.0008 0 
3551 3 0.0308743 -0.0609356 -0.00541948 0 0 0 0.00421829 -0.00105388 -0.00518535 -1.74488e-06 9.90116e-06 1.74285e-06 0 0 0 0 0 0 0 0 0 0 0 0 0 0 0 0 41 0.0008 0 
10802 6 0.0325889 -0.0609356 -0.00558124 0 0 0 0.0150929 -3.12276e-09 -0.00874693 -1.3314e-14 3.03685e-11 7.71605e-15 0 0 0 0 0 0 0 0 0 0 0 0 0 0 0 0 20 0.0008 0 
2102 5 0.0341202 -0.0609356 -0.00509598 0 0 0 0.00832406 -2.12201e-11 0.0192393 -5.65372e-17 2.04e-13 -1.3173e-16 0 0 0 0 0 0 0 0 0 0 0 0 0 0 0 0 103 0.0008 0 
4071 8 0.0364685 -0.0609356 -0.0047849 0 0 0 0.0298329 -4.90492e-12 -0.0180253 4.81302e-18 0 5.35318e-19 0 0 0 0 0 0 0 0 0 0 0 0 0 0 0 0 58 0.0008 0 
9740 2 0.0381384 -0.0609356 -0.00488481 0 0 0 0.0189079 -3.01014e-05 -0.0195843 -1.63433e-10 4.08963e-07 1.69672e-10 0 0 0 0 0 0 0 0 0 0 0 0 0 0 0 0 52 0.0008 0 
6612 3 0.040061 -0.0609356 -0.00504545 0 0 0 -0.000980118 -0.000300029 -0.0251839 2.4458e-06 -3.85631e-06 1.00014e-06 0 0 0 0 0 0 0 0 0 0 0 0 0 0 0 0 50 0.0008 0 
9087 1 0.0444014 -0.0609107 -0.0057796 0 0 0 -0.00757606 0.00189556 -0.011231 -3.00965e-07 -5.28471e-06 5.50754e-07 0 0 0 0 0 0 0 0 0 0 0 0 0 0 0 0 48 0.0008 0 
4793 1 0.0431687 -0.0609357 -0.00475064 0 0 0 -0.0181487 0.00111965 -0.0177653 -5.76659e-07 1.32899e-06 -3.82344e-07 0 0 0 0 0 0 0 0 0 0 0 0 0 0 0 0 37 0.0008 0 
9387 3 0.0460044 -0.0609147 -0.00575828 0 0 0 -0.00574981 0.00264015 -0.0149962 5.69596e-09 -1.33409e-06 1.14743e-06 0 0 0 0 0 0 0 0 0 0 0 0 0 0 0 0 36 0.0008 0 
4709 6 0.0474975 -0.060837 -0.0051875 0 0 0 -0.00379426 0.015091 -0.0291741 0 -1.05196e-05 0 0 0 0 0 0 0 0 0 0 0 0 0 0 0 0 0 66 0.0008 0 
4121 6 0.0226098 -0.0591877 -0.00517501 0 0 0 4.15929 -9.79652 16.0977 -0.154772 1.18981 -0.669372 0 0 1 0 0 0 0 0 0 0 0 0 0 0 0 0 89 0.0008 0 
7937 2 0.000827364 -0.0609356 -0.00367497 0 0 0 0.00401374 1.2797e-06 0.00181065 1.13655e-12 -2.64798e-08 1.40542e-12 0 0 0 0 0 0 0 0 0 0 0 0 0 0 0 0 65 0.0008 0 
10595 5 0.00225093 -0.0609356 -0.00445855 0 0 0 -0.00141248 -3.99733e-05 0.00941176 3.30336e-06 -3.15627e-07 -2.00732e-06 0 0 0 0 0 1 0 0 0 0 0 0 0 0 0 0 102 0.0008 0 
9977 6 0.00361767 -0.0609356 -0.0036071 0 0 0 0.00139774 -1.60666e-06 0.0028961 -4.467e-09 -5.27643e-08 1.53792e-09 0 0 0 0 0 0 0 0 0 0 0 0 0 0 0 0 60 0.0008 0 
5611 3 0.00505637 -0.0609356 -0.00430734 0 0 0 0.000122981 -1.79798e-05 -0.000196126 4.0939e-09 1.02861e-07 -3.50986e-09 0 0 0 0 0 0 0 0 0 0 0 0 0 0 0 0 91 0.0008 0 
8455 4 0.00658931 -0.0609356 -0.00339011 0 0 0 0.0066669 4.96645e-06 -0.000449957 2.6414e-07 7.1088e-08 2.42745e-07 1 0 0 1 0 0 0 0 0 0 0 0 0 0 0 0 93 0.0008 0 
12917 2 0.0112156 -0.0609356 -0.00368248 0 0 0 -0.00226731 -5.36524e-07 -0.00544492 4.90557e-13 -1.03181e-08 8.98645e-13 0 0 0 0 0 0 0 0 0 0 0 0 0 0 0 0 43 0.0008 0 
2015 2 0.0127969 -0.0609356 -0.00393083 0 0 0 -0.0021821 -3.81853e-06 -0.00701523 1.51769e-12 -6.21249e-09 6.93135e-12 0 0 0 0 0 0 0 0 0 0 0 0 0 0 0 0 49 0.0008 0 
12116 6 0.0141543 -0.0609356 -0.00308105 0 0 0 0.00174252 4.6987e-06 -0.0112023 3.00315e-12 4.25536e-08 -1.41371e-11 0 0 0 0 0 0 0 0 0 0 0 0 0 0 0 0 18 0.0008 0 
16330 3 0.017172 -0.0609357 -0.0041703 0 0 0 0.000183094 6.69613e-06 -0.00228435 -3.49605e-07 5.09282e-06 -3.0663e-07 0 0 1 0 0 0 0 0 0 0 0 0 0 0 0 0 34 0.0008 0 
700 8 0.0195525 -0.0609356 -0.00362993 0 0 0 0.00188634 0.000103038 -0.0013309 6.01012e-08 -1.3346e-06 -6.11345e-08 0 0 0 0 0 0 0 0 0 0 0 0 0 0 0 0 34 0.0008 0 
11529 2 0.0210696 -0.0609356 -0.00414035 0 0 0 -0.000299694 -5.07102e-05 -0.000530724 -1.64375e-06 -3.11628e-08 2.08806e-06 0 1 0 1 0 0 0 0 0 0 0 0 0 0 0 0 26 0.0008 0 
13211 3 0.0226365 -0.0609356 -0.00446355 0 0 0 -0.000522006 -1.4823e-05 -0.00031288 -2.18136e-06 -9.12884e-07 3.47607e-06 0 1 0 1 0 0 0 0 0 0 0 0 0 0 0 0 47 0.0008 0 
2137 3 0.0239129 -0.0609356 -0.00309277 0 0 0 0.00158979 -1.79645e-07 0.00280217 -7.89294e-14 -2.54184e-09 -1.38706e-13 0 0 0 0 0 0 0 0 0 0 0 0 0 0 0 0 49 0.0008 0 
11224 7 0.0254933 -0.0609356 -0.00334785 0 0 0 -4.71341e-05 1.26087e-07 -0.00744618 -1.73634e-15 -1.28529e-08 -2.87701e-13 0 0 0 0 0 0 0 0 0 0 0 0 0 0 0 0 25 0.0008 0 
9227 6 0.0270415 -0.0609356 -0.00386813 0 0 0 0.0103989 -0.000193974 -0.0156977 -6.39683e-10 4.95443e-07 8.90061e-10 0 0 0 0 0 0 0 0 0 0 0 0 0 0 0 0 53 0.0008 0 
808 1 0.0286474 -0.0609356 -0.00403407 0 0 0 0.000457439 4.63547e-05 -0.00906943 1.59339e-07 -1.69538e-06 -2.88474e-07 0 0 0 0 0 0 0 0 0 0 0 0 0 0 0 0 65 0.0008 0 
9751 4 0.0302794 -0.0609356 -0.00392996 0 0 0 0.00342796 -4.6499e-05 -0.00922182 -8.17043e-10 1.90324e-07 9.96534e-10 0 0 0 0 0 0 0 0 0 0 0 0 0 0 0 0 36 0.0008 0 
10544 4 0.0318905 -0.0609356 -0.00413899 0 0 0 0.0120387 -8.7417e-06 -0.0150688 -1.27055e-08 -9.85402e-08 2.82625e-07 0 0 0 0 0 0 0 0 0 0 0 0 0 0 0 0 34 0.0008 0 
693 3 0.0359846 -0.0609356 -0.00319496 0 0 0 -0.00806812 3.72979e-06 -0.0215841 -8.15753e-12 1.43298e-08 -2.23715e-11 0 0 0 0 0 0 0 0 0 0 0 0 0 0 0 0 39 0.0008 0 
5264 7 0.0388051 -0.0609358 -0.00342974 0 0 0 -0.023012 0.00161646 -0.00454477 -1.61087e-05 1.53431e-05 -2.70891e-06 0 0 0 0 0 0 1 0 0 0 0 0 0 0 0 0 49 0.0008 0 
12082 1 0.0403986 -0.0609344 -0.00329155 0 0 0 -0.0214517 0.00849327 0.000820908 -3.49985e-05 7.37395e-06 -5.80117e-06 1 0 0 0 0 0 1 0 0 0 0 0 0 0 0 0 74 0.0008 0 
818 5 0.0415679 -0.0609352 -0.00450674 0 0 0 -0.00841825 -0.000976082 0.000405643 0 -1.05196e-05 0 0 0 0 0 0 0 0 0 0 0 0 0 0 0 0 0 87 0.0008 0 
298 1 0.0445615 -0.0609318 -0.00396101 0 0 0 -0.0294169 -0.00102349 -0.00353555 0 -1.05196e-05 0 0 0 0 0 0 0 0 0 0 0 0 0 0 0 0 0 38 0.0008 0 
8538 8 0.0461145 -0.0605606 -0.0040882 0 0 0 -0.0289391 -9.0517e-05 -0.0612188 0 -1.05196e-05 0 0 0 0 0 0 0 0 0 0 0 0 0 0 0 0 0 52 0.0008 0 
5540 9 0.000806298 -0.0609356 -0.00206284 0 0 0 -0.00178575 -2.03881e-06 0.000247749 1.13688e-12 -1.71242e-08 -6.71711e-14 0 0 0 0 0 0 0 0 0 0 0 0 0 0 0 0 106 0.0008 0 
894 6 0.00220468 -0.0609356 -0.00285384 0 0 0 -0.00115354 -8.25066e-07 -0.000563987 5.37695e-14 2.90701e-09 3.22766e-13 0 0 0 0 0 0 0 0 0 0 0 0 0 0 0 0 79 0.0008 0 
1225 1 0.00359789 -0.0609356 -0.00200702 0 0 0 0.0011331 6.26978e-07 0.00304064 6.14404e-12 4.46732e-08 5.83074e-12 0 0 0 0 0 0 0 0 0 0 0 0 0 0 0 0 188 0.0008 0 
9269 5 0.0050877 -0.0609356 -0.00269152 0 0 0 0.00358037 2.27129e-09 -0.00156986 2.25007e-15 3.01056e-11 -9.86617e-16 0 0 0 0 0 0 0 0 0 0 0 0 0 0 0 0 81 0.0008 0 
11208 2 0.00648048 -0.0609356 -0.00179384 0 0 0 -8.19395e-05 -7.18321e-06 -0.000879716 2.18926e-08 -5.86493e-10 3.18013e-07 0 0 0 1 0 0 0 0 0 0 0 0 0 0 0 0 47 0.0008 0 
10613 5 0.00795127 -0.0609356 -0.00247418 0 0 0 -0.00335163 -4.5365e-06 0.00278527 4.51879e-12 9.56869e-08 -3.6757e-12 0 0 0 0 0 0 0 0 0 0 0 0 0 0 0 0 38 0.0008 0 
12304 8 0.00976968 -0.0609356 -0.00299716 0 0 0 0.000605578 -9.07994e-08 0.000447103 2.1362e-07 -4.81471e-08 2.26206e-07 0 0 0 0 1 0 0 0 0 0 0 0 0 0 0 0 58 0.0008 0 
1063 5 0.0108112 -0.0609356 -0.00166563 0 0 0 0.000477823 2.34224e-06 -0.00178751 3.05329e-13 -1.2673e-08 -1.17869e-12 0 0 0 0 0 0 0 0 0 0 0 0 0 0 0 0 58 0.0008 0 
10360 1 0.0122176 -0.0609356 -0.00243306 0 0 0 -0.00210446 -1.83241e-07 -0.00470859 1.07946e-13 5.67477e-11 2.41587e-13 0 0 0 0 0 0 0 0 0 0 0 0 0 0 0 0 73 0.0008 0 
14724 5 0.0150753 -0.0609354 -0.00175532 0 0 0 -0.00427916 -0.000323906 -0.00234451 1.21069e-06 -9.45904e-06 -1.79505e-06 0 0 0 0 1 0 0 0 0 0 0 0 0 0 0 0 29 0.0008 0 
10496 1 0.0160844 -0.0609356 -0.00299684 0 0 0 -0.000511498 0.000675004 -0.0013514 -1.77871e-07 -7.06623e-06 9.94621e-07 0 0 1 0 1 0 0 0 0 0 0 0 0 0 0 0 58 0.0008 0 
7764 4 0.0181332 -0.0609356 -0.00289118 0 0 0 0.000842059 -0.000420431 -0.00128629 8.4334e-08 -2.93057e-06 8.36607e-07 0 0 0 1 0 0 0 0 0 0 0 0 0 0 0 0 62 0.0008 0 
5953 8 0.0193315 -0.0609356 -0.00183109 0 0 0 -0.00156246 3.49587e-05 0.00181136 -2.07395e-06 -2.31796e-06 -2.49993e-06 0 0 0 1 0 0 0 1 0 0 0 0 0 0 0 0 67 0.0008 0 
14434 6 0.020754 -0.0609356 -0.00257121 0 0 0 3.40862e-05 -2.14368e-05 -0.000619211 -1.70003e-09 4.53346e-07 2.73609e-11 0 0 0 0 0 0 0 0 0 0 0 0 0 0 0 0 31 0.0008 0 
6272 1 0.0223249 -0.0609356 -0.00287917 0 0 0 0.00130269 1.06765e-05 -0.000660923 9.83843e-10 -3.68382e-07 -1.01962e-10 0 0 0 0 0 0 0 0 0 0 0 0 0 0 0 0 62 0.0008 0 
9615 4 0.0252501 -0.0609358 -0.00176083 0 0 0 -0.0046599 -0.00112131 -0.0113683 -8.76066e-06 7.30551e-06 -4.89965e-06 0 0 0 1 0 0 0 0 0 0 0 0 0 0 0 0 50 0.0008 0 