ITEM: TIMESTEP
11400000
ITEM: NUMBER OF ATOMS
17696
ITEM: BOX BOUNDS ff ff ff
-0.01 0.45
-0.15 0.15
-0.08 0.1
ITEM: ATOMS id type x y z ix iy iz vx vy vz fx fy fz c_cc_1 c_cc_2 c_cc_3 c_cc_4 c_cc_5 c_cc_6 c_cc_7 c_cc_8 c_cc_9 c_cc_10 c_cc_11 c_cc_12 c_cc_13 c_cc_14 c_cc_15 c_cc_16 f_fppacc radius c_cc_17 
7657 2 0.00520104 -0.00924797 -0.0580504 0 0 0 -0.104781 -2.98555 0.440082 0 -1.05196e-05 0 0 0 0 0 0 0 0 0 0 0 0 0 0 0 0 0 120 0.0008 0 
451 8 0.00899314 -0.00721398 -0.0559533 0 0 0 2.2849 -5.88858 1.04081 0 -1.05196e-05 0 0 0 0 0 0 0 0 0 0 0 0 0 0 0 0 0 130 0.0008 0 
4317 6 0.0191654 -0.0284071 -0.0517101 0 0 0 4.13871 -12.414 4.92603 0.00259345 0.0112162 0.0246337 0 0 0 0 0 0 0 0 0 0 0 0 0 0 0 0 117 0.0008 0 
3777 4 0.0171419 -0.0336344 -0.0484488 0 0 0 0.725675 -12.9649 10.957 0 -1.05196e-05 0 0 0 0 0 0 0 0 0 0 0 0 0 0 0 0 0 87 0.0008 0 
14569 10 0.0142464 -0.0385596 -0.0445625 0 0 0 -0.336349 -14.9943 12.4979 0 -1.05196e-05 0 0 0 0 0 0 0 0 0 0 0 0 0 0 0 0 0 77 0.0008 0 
13313 3 0.0383843 -0.0337524 -0.0481392 0 0 0 5.57346 -8.40812 8.41644 0 -1.05196e-05 0 0 0 0 0 0 0 0 0 0 0 0 0 0 0 0 0 59 0.0008 0 
15625 6 0.0112307 -0.0346958 -0.0462658 0 0 0 0.546176 -1.63704 2.62287 0 -1.05196e-05 0 0 0 0 0 0 0 0 0 0 0 0 0 0 0 0 0 39 0.0008 0 
18094 3 0.00194169 -0.0210213 -0.0443356 0 0 0 0.150091 -6.15033 3.25383 0 -1.05196e-05 0 0 0 0 0 0 0 0 0 0 0 0 0 0 0 0 0 29 0.0008 0 
10209 5 0.00557949 -0.0437158 -0.0424958 0 0 0 -0.269552 -0.118033 0.129476 -2.31568e-18 -3.41023e-06 3.74085e-06 0 0 0 0 0 0 0 0 0 0 0 0 0 0 0 0 45 0.0008 0 
1785 1 0.00722242 -0.0422827 -0.0387198 0 0 0 0.939237 -2.26746 7.10582 0 -1.05196e-05 0 0 0 0 0 0 0 0 0 0 0 0 0 0 0 0 0 101 0.0008 0 
3169 5 0.00886719 -0.0327952 -0.0434651 0 0 0 -0.329298 -6.68142 -2.074 0 -1.05196e-05 0 0 0 0 0 0 0 0 0 0 0 0 0 0 0 0 0 102 0.0008 0 
874 2 0.00146499 -0.0449197 -0.0411681 0 0 0 0.0146176 -0.334824 0.354067 0 -1.05196e-05 0 0 0 0 0 0 0 0 0 0 0 0 0 0 0 0 0 70 0.0008 0 
8292 2 0.00908257 -0.0443599 -0.0354957 0 0 0 0.248086 -3.26203 5.10451 0 -1.05196e-05 0 0 0 0 0 0 0 0 0 0 0 0 0 0 0 0 0 84 0.0008 0 
17954 10 0.0295581 -0.0487132 -0.0333453 0 0 0 1.50797 -5.57278 9.83857 0.00105269 0.0271017 0.0167821 0 0 0 0 0 0 0 0 0 0 0 0 0 0 0 0 35 0.0008 0 
7134 7 0.0308474 -0.0542678 -0.0232532 0 0 0 -2.57113 -9.71921 25.7285 -0.00633293 0.129585 0.0408782 0 0 0 0 0 0 0 0 0 0 0 0 0 0 0 0 97 0.0008 0 
15084 1 0.0157939 -0.0539808 -0.023815 0 0 0 1.48406 -7.08873 19.1772 0 -1.05196e-05 0 0 0 0 0 0 0 0 0 0 0 0 0 0 0 0 0 48 0.0008 0 
16785 4 0.0363424 -0.0556385 -0.0188032 0 0 0 -3.68138 -6.24113 19.2672 0 -1.05196e-05 0 0 0 0 0 0 0 0 0 0 0 0 0 0 0 0 0 39 0.0008 0 
17215 5 0.0463477 -0.05765 -0.0126676 0 0 0 4.22694 -3.83653 26.1086 -0.0212456 0.0842862 0.0165232 0 0 0 0 0 0 0 0 0 0 0 0 0 0 0 0 38 0.0008 0 
16870 13 0.00234451 -0.0575967 -0.0200096 0 0 0 0.0392151 -0.123381 0.318483 5.59554e-18 -9.80505e-07 2.53098e-06 0 0 0 0 0 0 0 0 0 0 0 0 0 0 0 0 47 0.0008 0 
13428 3 0.0447256 -0.0576334 -0.0199148 0 0 0 -0.0306005 -0.006564 0.0169436 -8.03057e-18 -9.80505e-07 2.53098e-06 0 0 0 0 0 0 0 0 0 0 0 0 0 0 0 0 44 0.0008 0 
10372 5 0.0167328 -0.0562294 -0.0172177 0 0 0 3.67622 -2.1493 6.54123 0 -1.05196e-05 0 0 0 0 0 0 0 0 0 0 0 0 0 0 0 0 0 67 0.0008 0 
7470 3 0.000942783 -0.0583413 -0.0180341 0 0 0 0.0643011 0.017014 -0.0511148 0 -1.05196e-05 0 0 0 0 0 0 0 0 0 0 0 0 0 0 0 0 0 52 0.0008 0 
15419 1 0.0298226 -0.0584286 -0.0178622 0 0 0 0.346497 -0.0559131 0.144328 -1.50222e-17 -9.80505e-07 2.53098e-06 0 0 0 0 0 0 0 0 0 0 0 0 0 0 0 0 42 0.0008 0 
18396 4 0.0106121 -0.058976 -0.0161298 0 0 0 -0.0147578 -0.00154552 0.00826779 -1.80011e-17 -2.53692e-07 1.35713e-06 0 0 0 0 0 0 0 0 0 0 0 0 0 0 0 0 9 0.0008 0 
17363 3 0.00361405 -0.0587792 -0.0169635 0 0 0 -0.00153671 0.0317751 0.0297111 -2.5538e-05 0.000514948 0.000297205 0 0 0 0 0 0 0 0 0 0 0 0 0 0 0 0 10 0.0008 0 
16349 4 0.000855242 -0.0590314 -0.0158329 0 0 0 0.00843295 -0.00709007 0.0404674 3.44999e-07 -1.14267e-05 -5.30013e-07 0 0 0 0 0 0 0 0 0 0 0 0 0 0 0 0 26 0.0008 0 
14539 6 0.0042246 -0.0591862 -0.0149817 0 0 0 -0.022455 -0.0178139 0.103068 0 -1.05196e-05 0 0 0 0 0 0 0 0 0 0 0 0 0 0 0 0 0 22 0.0008 0 
702 2 0.0223286 -0.0591216 -0.0153509 0 0 0 0.059608 -0.000569392 0.00304598 -7.29212e-18 -2.53692e-07 1.35713e-06 0 0 0 0 0 0 0 0 0 0 0 0 0 0 0 0 71 0.0008 0 
15499 6 0.00737031 -0.0586324 0.00317319 0 0 0 5.19998 -1.96808 36.2268 0 -1.05196e-05 0 0 0 0 0 0 0 0 0 0 0 0 0 0 0 0 0 13 0.0008 0 
11726 4 0.00204703 -0.0593271 -0.0142512 0 0 0 -0.0336608 -0.00522164 0.0279333 5.18619e-18 -2.53692e-07 1.35713e-06 0 0 0 0 0 0 0 0 0 0 0 0 0 0 0 0 25 0.0008 0 
8602 1 0.0385379 -0.0593277 -0.014248 0 0 0 -0.00646438 -0.00171981 0.00920018 8.6745e-19 -2.53692e-07 1.35713e-06 0 0 0 0 0 0 0 0 0 0 0 0 0 0 0 0 35 0.0008 0 
13923 7 0.00439743 -0.0596325 -0.0126175 0 0 0 0.0111689 -0.0027094 0.0144935 -2.25095e-13 -2.52082e-07 1.35744e-06 0 0 0 0 0 0 0 0 0 0 0 0 0 0 0 0 26 0.0008 0 
8467 4 0.00662328 -0.0596939 -0.0122892 0 0 0 -0.0142627 -0.00274494 0.0146841 -1.18365e-18 -2.53692e-07 1.35713e-06 0 0 0 0 0 0 0 0 0 0 0 0 0 0 0 0 91 0.0008 0 
5641 6 0.00379964 -0.0587872 -0.00432981 0 0 0 1.32085 -2.44978 17.6248 0 -1.05196e-05 0 0 0 0 0 0 0 0 0 0 0 0 0 0 0 0 0 77 0.0008 0 
4719 3 0.000801277 -0.0598764 -0.0113126 0 0 0 8.05221e-05 -0.00445216 0.0238169 -1.89164e-21 -2.53692e-07 1.35713e-06 0 0 0 0 0 0 0 0 0 0 0 0 0 0 0 0 81 0.0008 0 
14527 2 0.00211766 -0.0600523 -0.0103719 0 0 0 0.010814 -0.00279344 0.0151203 5.44458e-08 6.67911e-08 1.35542e-06 0 1 0 0 0 0 0 0 0 0 0 0 0 0 0 0 45 0.0008 0 
689 6 0.00318151 -0.0598247 -0.0115895 0 0 0 -0.0132568 0.00171561 -0.00917719 -3.70143e-13 -2.55378e-07 1.35681e-06 0 0 0 0 0 0 0 0 0 0 0 0 0 0 0 0 93 0.0008 0 
988 9 0.00487799 -0.0600474 -0.010398 0 0 0 0.018539 -0.0051767 0.027693 1.15479e-13 -2.53925e-07 1.35709e-06 0 0 0 0 0 0 0 0 0 0 0 0 0 0 0 0 85 0.0008 0 
12335 5 0.0098077 -0.059808 -0.0116787 0 0 0 0.00387524 -0.005031 0.0269135 -9.18056e-20 -2.53692e-07 1.35713e-06 0 0 0 0 0 0 0 0 0 0 0 0 0 0 0 0 43 0.0008 0 
6441 5 0.0257947 -0.0600409 -0.0104328 0 0 0 0.0683621 -0.0105019 0.0561802 2.80517e-18 -2.53692e-07 1.35713e-06 0 0 0 0 0 0 0 0 0 0 0 0 0 0 0 0 67 0.0008 0 
11852 5 0.0314193 -0.0600005 -0.0106491 0 0 0 -0.0563656 -0.00406475 0.0217445 8.99685e-16 -2.53693e-07 1.35713e-06 0 0 0 0 0 0 0 0 0 0 0 0 0 0 0 0 60 0.0008 0 
4489 4 0.0444979 -0.0600427 -0.0104231 0 0 0 -0.0042622 -0.000250443 0.00134001 -5.93614e-14 -2.55086e-07 1.35686e-06 0 0 0 0 0 0 0 0 0 0 0 0 0 0 0 0 68 0.0008 0 
17627 1 0.0472934 -0.0597963 -0.0117413 0 0 0 -0.0164502 0.000356384 -0.00190648 3.65496e-19 -2.53692e-07 1.35713e-06 0 0 0 0 0 0 0 0 0 0 0 0 0 0 0 0 7 0.0008 0 
6681 4 0.0375269 -0.0586008 -0.00520322 0 0 0 4.72275 -1.47051 11.0443 0 -1.05196e-05 0 0 0 0 0 0 0 0 0 0 0 0 0 0 0 0 0 113 0.0008 0 
3783 1 0.0235195 -0.0603296 -0.00888867 0 0 0 -0.0106774 -0.00210805 0.0113085 -6.21114e-07 -2.50279e-07 7.01977e-07 1 0 0 0 0 0 0 0 0 0 0 0 0 0 0 0 100 0.0008 0 
14170 7 0.000799979 -0.0602191 -0.0094798 0 0 0 0.000112969 -1.53712e-05 0.000185665 4.61263e-07 -3.34943e-07 -4.14332e-07 0 1 0 0 0 0 1 0 0 0 0 0 0 0 0 0 50 0.0008 0 
5338 2 0.00351143 -0.0602005 -0.00957925 0 0 0 0.0105765 -0.00290079 0.0155178 -3.9132e-14 -2.53854e-07 1.3571e-06 0 0 0 0 0 0 0 0 0 0 0 0 0 0 0 0 85 0.0008 0 
752 3 0.00670788 -0.0601744 -0.00971896 0 0 0 0.00208615 -0.000145741 0.000818532 6.46271e-07 -7.25995e-08 3.90193e-07 0 0 1 0 0 0 0 0 0 0 0 0 0 0 0 0 90 0.0008 0 
15203 3 0.0105349 -0.0601927 -0.00962083 0 0 0 -0.022161 -0.0122383 0.0654691 -1.74979e-18 -2.53692e-07 1.35713e-06 0 0 0 0 0 0 0 0 0 0 0 0 0 0 0 0 37 0.0008 0 
11974 2 0.0123417 -0.0600842 -0.0102011 0 0 0 -0.00957264 -0.000302688 0.00162012 -2.07252e-07 -1.94525e-08 9.52502e-08 0 1 0 0 0 0 0 0 0 0 0 0 0 0 0 0 33 0.0008 0 
13872 3 0.0163055 -0.0602454 -0.00933912 0 0 0 -0.0123418 -0.00148009 0.00791531 -4.30128e-07 -8.31891e-08 4.47564e-07 0 0 1 0 0 0 0 0 0 0 0 0 0 0 0 0 45 0.0008 0 
13193 11 0.0184685 -0.0600873 -0.0101847 0 0 0 -0.0123048 -0.00177983 0.00951089 -4.16612e-07 -1.07675e-07 5.99637e-07 0 0 0 0 0 0 0 0 0 0 1 0 0 0 0 0 46 0.0008 0 
12749 3 0.0206427 -0.0602746 -0.00918288 0 0 0 -0.0087619 -0.00245687 0.0132221 -6.7511e-07 -3.37932e-08 5.63736e-07 0 0 2 0 0 0 0 0 0 0 0 0 0 0 0 0 39 0.0008 0 
17453 12 0.0221304 -0.0600746 -0.0102524 0 0 0 0.0413007 -0.00813065 0.0434951 -5.49705e-19 -2.53692e-07 1.35713e-06 0 0 0 0 0 0 0 0 0 0 0 0 0 0 0 0 18 0.0008 0 
17490 7 0.0295479 -0.0601639 -0.00977493 0 0 0 -0.0303824 -0.00684779 0.0366324 -3.21844e-18 -2.53692e-07 1.35713e-06 0 0 0 0 0 0 0 0 0 0 0 0 0 0 0 0 15 0.0008 0 
6537 6 0.0318147 -0.0602881 -0.0091103 0 0 0 0.0277837 -0.00226658 0.0121251 3.14578e-14 -2.53749e-07 1.35712e-06 0 0 0 0 0 0 0 0 0 0 0 0 0 0 0 0 43 0.0008 0 
18020 5 0.0348353 -0.0602689 -0.00921312 0 0 0 -0.0281033 -0.00371256 0.0198197 1.24997e-10 -2.51617e-07 1.35712e-06 0 0 0 0 0 0 0 0 0 0 0 0 0 0 0 0 19 0.0008 0 
853 7 0.0401271 -0.0602637 -0.00924096 0 0 0 -0.00831609 -0.000872127 0.00460157 -5.3585e-08 1.05764e-06 1.6187e-06 0 0 0 0 0 0 0 0 0 0 0 0 0 0 0 0 393 0.0008 0 
16057 4 0.0417206 -0.0602355 -0.00938723 0 0 0 -0.00763039 -0.00447234 -0.00267253 0 -1.05196e-05 0 0 0 0 0 0 0 0 0 0 0 0 0 0 0 0 0 14 0.0008 0 
17917 3 0.0433528 -0.06029 -0.00910063 0 0 0 0.00078787 -0.00118927 0.00313964 3.7878e-07 5.88267e-06 2.25837e-06 0 0 0 0 0 0 0 0 0 0 0 0 0 0 0 0 6 0.0008 0 
10781 5 0.045368 -0.0602897 -0.00910186 0 0 0 -0.000159899 0.00012519 -0.000669509 -1.78698e-15 -2.56156e-07 1.35665e-06 0 0 0 0 0 0 0 0 0 0 0 0 0 0 0 0 62 0.0008 0 
15673 4 0.0464318 -0.0600701 -0.0102769 0 0 0 0.0018812 -0.000207982 0.00111291 2.36132e-14 -2.4896e-07 1.35806e-06 0 0 0 0 0 0 0 0 0 0 0 0 0 0 0 0 31 0.0008 0 
17120 6 0.0322392 -0.0584167 -0.0070124 0 0 0 3.28088 -0.963924 6.01668 0 -1.05196e-05 0 0 0 0 0 0 0 0 0 0 0 0 0 0 0 0 0 29 0.0008 0 
12757 3 0.000801295 -0.0605131 -0.00790711 0 0 0 -0.000195686 -2.26133e-05 0.000104517 -5.88824e-07 -1.05741e-07 -6.14244e-08 0 0 0 0 0 0 1 0 0 0 0 0 0 0 0 0 49 0.0008 0 
15555 3 0.0022001 -0.060369 -0.00867784 0 0 0 -8.48849e-05 2.08415e-06 4.07744e-05 -1.25345e-07 -5.03481e-09 2.32595e-07 0 0 2 0 0 0 0 0 0 0 0 0 0 0 0 0 39 0.0008 0 
17336 10 0.00358319 -0.0605168 -0.00788719 0 0 0 -6.94298e-05 4.12387e-06 2.17305e-05 3.86101e-08 -5.01899e-08 7.58387e-08 0 0 1 0 0 0 0 0 0 2 0 0 0 0 0 0 72 0.0008 0 
15381 2 0.00570257 -0.060403 -0.00849554 0 0 0 0.00257645 -0.000254335 0.00125319 7.03773e-08 2.34042e-08 -2.24463e-08 0 1 1 0 0 0 0 0 0 0 0 0 0 0 0 0 36 0.0008 0 
17589 11 0.00738916 -0.0605874 -0.00750941 0 0 0 1.23404e-05 -2.72769e-06 -3.4349e-05 -1.70835e-09 -1.18611e-08 -8.16545e-09 0 0 0 0 0 0 0 0 0 0 3 0 0 0 0 0 78 0.0008 0 
2108 4 0.0086719 -0.0604117 -0.00844937 0 0 0 -0.00302071 0.000766949 -0.00410862 4.23679e-07 -7.5995e-08 4.90978e-07 0 0 0 0 0 0 0 0 0 0 1 0 0 0 0 0 93 0.0008 0 
13645 4 0.0126128 -0.060374 -0.00865118 0 0 0 -8.04071e-06 2.07234e-07 -2.34088e-07 -6.89064e-08 1.34462e-10 2.1928e-09 0 1 0 2 0 0 0 0 0 0 0 0 0 0 0 0 83 0.0008 0 
18001 5 0.0139021 -0.060548 -0.00771996 0 0 0 -3.69478e-06 -1.77288e-08 7.38248e-06 -2.04567e-08 3.74242e-09 1.95674e-08 0 0 0 1 2 0 0 0 0 0 0 0 0 0 0 0 44 0.0008 0 
17147 2 0.0171798 -0.0604916 -0.00802202 0 0 0 -4.75525e-06 2.93677e-07 5.72049e-07 -3.19032e-09 5.62091e-09 3.40424e-09 0 1 1 0 0 0 0 0 0 0 0 0 0 0 0 0 33 0.0008 0 
16168 4 0.0191067 -0.0603569 -0.00874249 0 0 0 -0.0100374 -0.00160289 0.00855741 -2.95648e-07 -1.74801e-07 5.31774e-07 0 0 1 1 0 0 0 0 0 0 1 0 0 0 0 0 52 0.0008 0 
2010 2 0.0219668 -0.0604396 -0.00830007 0 0 0 -0.00552868 -0.00157288 0.00839039 -4.68122e-07 -3.25743e-08 2.99078e-07 0 1 1 0 0 0 0 0 0 0 0 0 0 0 0 0 74 0.0008 0 
16602 4 0.0246226 -0.0605425 -0.00774948 0 0 0 -0.000180366 -0.000217741 0.00147385 2.94491e-07 -2.67451e-07 5.0609e-07 1 0 0 1 0 0 0 0 0 0 0 0 0 0 0 0 35 0.0008 0 
17465 4 0.0259705 -0.0603841 -0.00859684 0 0 0 -0.000194265 -0.000126816 0.000944616 1.48045e-08 1.29397e-06 1.87432e-06 0 0 0 0 0 0 0 0 0 0 0 0 0 0 0 0 3 0.0008 0 
1903 4 0.0271888 -0.0605747 -0.00757711 0 0 0 0.000724439 -0.000277039 0.000957931 1.89255e-06 -6.82523e-07 -5.07167e-07 0 0 0 1 0 0 0 0 0 0 0 0 0 0 0 0 101 0.0008 0 
15810 2 0.0314943 -0.0605777 -0.00756127 0 0 0 0.00509854 -0.00178167 0.00907543 -2.16307e-08 -1.51027e-07 1.36913e-06 0 0 0 0 0 0 0 0 0 0 0 0 0 0 0 0 38 0.0008 0 
15694 7 0.0358623 -0.0604947 -0.00800554 0 0 0 -0.0132423 -0.00221578 0.00981753 -3.94198e-08 5.00943e-06 2.4541e-06 0 0 0 0 0 0 0 0 0 0 0 0 0 0 0 0 7 0.0008 0 
7503 4 0.0379045 -0.0605448 -0.00773726 0 0 0 0.00182728 -0.000282938 0.00153111 1.17623e-10 -4.7281e-07 1.31477e-06 0 0 0 0 0 0 0 0 0 0 0 0 0 0 0 0 85 0.0008 0 
5232 3 0.0398822 -0.0605547 -0.00768433 0 0 0 -0.00738661 -0.00121859 0.00576216 -1.40622e-06 -5.55347e-08 6.7318e-07 0 0 1 0 0 0 0 0 0 0 0 0 0 0 0 0 84 0.0008 0 
9184 3 0.0422958 -0.0605107 -0.00791971 0 0 0 -0.00752256 0.000384656 -0.00182476 -2.08851e-06 -6.61603e-06 -1.64082e-06 0 0 1 0 0 0 0 0 0 0 0 0 0 0 0 0 77 0.0008 0 
924 3 0.044365 -0.06052 -0.0078699 0 0 0 -0.00750855 0.00130374 -0.00635002 1.88487e-06 -1.49471e-06 -1.14278e-06 0 0 1 0 0 0 0 0 0 0 0 0 0 0 0 0 79 0.0008 0 
13493 8 0.0459618 -0.0605773 -0.00756346 0 0 0 -0.00250524 0.000552372 -0.00327483 1.88999e-06 -1.00112e-06 8.85971e-08 0 0 0 0 0 0 0 1 0 0 0 0 0 0 0 0 99 0.0008 0 
14062 1 0.0469968 -0.0603528 -0.0087641 0 0 0 0.00317432 -0.000642607 0.003438 5.7557e-14 -2.53446e-07 1.35718e-06 0 0 0 0 0 0 0 0 0 0 0 0 0 0 0 0 44 0.0008 0 
3129 3 0.000800273 -0.060807 -0.00633446 0 0 0 -0.000235 -2.27621e-05 2.29676e-05 2.57586e-07 -7.57877e-08 1.03059e-07 0 0 2 0 0 0 0 0 0 0 0 0 0 0 0 0 67 0.0008 0 
7654 8 0.002195 -0.060663 -0.00710514 0 0 0 -0.000182756 -1.12682e-05 2.21812e-05 -3.5245e-08 -6.05487e-09 -3.5466e-08 0 0 2 0 0 0 0 1 0 0 0 0 0 0 0 0 150 0.0008 0 
14580 12 0.00358067 -0.0608108 -0.00631449 0 0 0 5.97807e-08 1.1923e-06 1.51246e-05 2.01405e-08 -3.66002e-08 6.23058e-08 0 0 0 0 0 0 0 0 0 1 0 2 0 0 0 0 108 0.0008 0 
15828 4 0.00496754 -0.0606642 -0.00709872 0 0 0 -1.36843e-05 6.80069e-06 -1.5222e-05 -4.23513e-08 6.42792e-08 3.28591e-08 0 1 0 0 0 0 0 0 0 1 0 1 0 0 0 0 68 0.0008 0 
12332 2 0.00635304 -0.0608114 -0.00631109 0 0 0 -1.13023e-05 7.02949e-06 -4.18785e-05 6.71599e-08 -1.15449e-08 9.78037e-08 0 2 0 0 0 0 0 0 0 0 1 0 0 0 0 0 100 0.0008 0 
16821 3 0.00882805 -0.0607159 -0.00682175 0 0 0 1.87302e-06 2.39648e-06 -1.16526e-05 -7.32857e-09 -1.05755e-08 -1.18327e-07 0 0 2 0 0 0 0 0 0 0 1 0 0 0 0 0 83 0.0008 0 
15785 4 0.010424 -0.0607365 -0.00671164 0 0 0 -6.9303e-06 2.836e-06 -1.75395e-05 -2.92342e-08 8.90325e-09 5.65765e-08 0 0 1 2 0 0 0 0 0 0 0 0 0 0 0 0 54 0.0008 0 
7967 9 0.011936 -0.0606403 -0.00722613 0 0 0 1.42906e-05 -4.92562e-06 1.4098e-05 6.04862e-08 -1.87352e-08 6.02621e-08 0 0 0 2 0 0 0 0 1 0 0 0 0 0 0 0 133 0.0008 0 
16369 1 0.013499 -0.0608325 -0.00619799 0 0 0 -3.30603e-05 -4.0674e-06 -1.07421e-06 -3.94815e-08 6.04399e-09 1.29399e-08 2 0 0 0 1 0 0 0 0 0 0 0 0 0 0 0 65 0.0008 0 
13527 2 0.0154576 -0.0606167 -0.00735241 0 0 0 4.05142e-06 1.74514e-06 -1.00894e-05 -1.63227e-08 4.80775e-09 2.53326e-08 0 1 0 0 1 0 0 0 0 0 0 0 0 0 0 0 53 0.0008 0 
13175 6 0.0167985 -0.0607771 -0.00649464 0 0 0 1.79225e-06 4.92705e-07 -1.24275e-06 -1.22697e-08 2.60482e-09 6.34114e-09 0 2 0 0 0 2 0 0 0 0 0 0 0 0 0 0 87 0.0008 0 
15517 2 0.0183531 -0.0606914 -0.00695274 0 0 0 5.46577e-06 9.63469e-07 -4.70549e-07 1.17315e-08 2.01085e-08 2.66422e-08 0 1 0 0 0 0 0 0 0 0 0 0 0 0 0 0 36 0.0008 0 
10441 10 0.0199299 -0.060609 -0.00739391 0 0 0 0.00310206 -0.00015079 0.0008185 1.77897e-07 -4.39427e-08 8.73977e-08 0 0 0 1 0 0 0 0 0 1 0 0 0 0 0 0 88 0.0008 0 
9574 2 0.0211784 -0.0607935 -0.00640677 0 0 0 -0.00303593 -0.000231573 0.00123838 -1.70649e-07 -8.63626e-09 1.42722e-07 0 1 0 0 0 0 0 0 0 0 0 0 0 0 0 0 87 0.0008 0 
7627 1 0.0228967 -0.0606788 -0.00702025 0 0 0 0.0047171 -0.000208858 0.0011347 5.0137e-08 2.8963e-08 -3.13973e-07 1 1 0 0 0 0 0 0 0 0 0 0 0 0 0 0 68 0.0008 0 
9644 2 0.0243473 -0.0608321 -0.00620022 0 0 0 0.000484087 -0.000248661 0.00149575 -9.85418e-07 1.70691e-07 -1.867e-07 0 2 0 1 0 0 0 0 0 0 0 0 0 0 0 0 29 0.0008 0 
5728 2 0.02587 -0.0607412 -0.00668676 0 0 0 0.000959429 -0.000265049 0.00119797 -3.22242e-07 -2.74912e-08 -3.57135e-07 0 1 0 1 0 0 0 0 0 0 0 0 0 0 0 0 64 0.0008 0 
4132 2 0.0284107 -0.0607645 -0.00656173 0 0 0 -0.00289668 -0.00108937 0.00575692 -4.17346e-07 -3.56424e-07 1.05366e-06 0 1 0 0 0 0 0 0 0 0 0 0 0 0 0 0 95 0.0008 0 
9557 4 0.0299943 -0.0606801 -0.00701349 0 0 0 0.00147055 -0.000175283 0.00197026 -1.06222e-07 3.04808e-07 1.40228e-06 0 0 0 0 0 0 0 0 0 0 0 0 0 0 0 0 78 0.0008 0 
8211 15 0.0327898 -0.0607509 -0.00663475 0 0 0 0.00711074 -0.00093848 0.00499756 9.72459e-10 -5.37817e-08 4.4007e-07 0 0 0 0 0 0 0 0 0 0 0 0 0 0 1 0 100 0.0008 0 
5801 6 0.0350279 -0.0607627 -0.00657161 0 0 0 0.000390391 -0.000314761 0.00173037 5.82776e-09 -1.44985e-07 1.35384e-06 0 0 0 0 0 1 0 0 0 0 0 0 0 0 0 0 61 0.0008 0 
15188 4 0.0367205 -0.0607428 -0.00667809 0 0 0 0.000358207 -0.000261459 0.00134962 -2.58357e-10 -2.55371e-07 1.35617e-06 0 0 0 0 0 0 0 0 0 0 0 0 0 0 0 0 25 0.0008 0 
4777 3 0.0388596 -0.0607808 -0.00647474 0 0 0 -0.00564293 -0.0012503 0.00767647 -8.66489e-07 9.31078e-08 -1.15051e-06 0 0 0 0 0 0 0 0 0 0 0 0 0 0 0 0 94 0.0008 0 
4160 5 0.0411823 -0.0607261 -0.00676779 0 0 0 -0.00613096 -0.000758829 0.00417369 4.89866e-07 2.11875e-06 -1.45648e-06 0 0 1 0 1 0 0 0 0 0 0 0 0 0 0 0 87 0.0008 0 
7257 5 0.0433005 -0.0607395 -0.00669581 0 0 0 -0.005447 0.00125767 -0.00498077 -2.93578e-06 -3.80996e-06 -1.34591e-06 0 0 2 0 1 0 0 0 0 0 0 0 0 0 0 0 65 0.0008 0 
11962 4 0.0449027 -0.0607976 -0.00638471 0 0 0 -0.00509025 0.00116385 -0.00584437 -4.08023e-07 2.24438e-07 -5.181e-06 0 0 0 1 0 0 0 1 0 0 0 0 0 0 0 0 87 0.0008 0 
10116 2 0.0464734 -0.0608568 -0.00606791 0 0 0 -0.00625996 0.000915247 -0.00508568 6.15376e-09 -7.64613e-07 1.24364e-06 0 0 0 0 0 0 0 0 0 0 0 0 0 0 0 0 106 0.0008 0 
4638 6 0.0224656 -0.058721 0.0029833 0 0 0 -2.82503 1.04447 19.7938 0 -1.05196e-05 0 0 0 0 0 0 0 0 0 0 0 0 0 0 0 0 0 115 0.0008 0 
5177 6 0.0461516 -0.0559216 -0.018485 0 0 0 -13.32 -13.7314 41.6793 0 -1.05196e-05 0 0 0 0 0 0 0 0 0 0 0 0 0 0 0 0 0 73 0.0008 0 
7649 2 0.000799986 -0.0609356 -0.00473984 0 0 0 3.95489e-06 -6.36086e-06 4.51973e-06 -2.75553e-08 -4.04479e-08 3.38258e-08 0 0 1 0 0 0 0 0 0 0 0 0 0 0 0 0 86 0.0008 0 
8040 3 0.00219221 -0.0609356 -0.00552864 0 0 0 -0.000105976 -6.90813e-06 1.75034e-06 -5.89506e-09 1.38116e-08 2.76172e-08 0 0 1 0 0 0 0 1 0 0 0 0 0 0 0 0 153 0.0008 0 
4413 6 0.00358285 -0.0609356 -0.00471947 0 0 0 1.77775e-05 -2.19811e-06 1.41764e-05 -9.24453e-09 2.01204e-09 4.11307e-08 0 0 0 0 0 2 0 0 0 0 0 1 0 0 0 0 101 0.0008 0 
14360 4 0.00496684 -0.0609356 -0.00552206 0 0 0 8.76794e-06 1.70716e-06 2.28698e-06 1.05316e-07 7.0588e-09 5.69597e-08 0 1 0 1 0 1 0 0 0 0 0 0 0 0 0 0 79 0.0008 0 
3837 1 0.00644598 -0.0609356 -0.00471826 0 0 0 -0.00149143 -2.52863e-11 0.000172986 1.1355e-17 4.14681e-14 -1.31771e-18 0 0 0 0 0 0 0 0 0 0 0 0 0 0 0 0 169 0.0008 0 
4306 9 0.00779191 -0.0609356 -0.00562263 0 0 0 -1.26011e-05 5.70944e-06 2.44176e-06 6.20188e-08 -4.29329e-09 -2.50778e-08 0 1 1 0 0 0 0 0 1 0 0 0 0 0 0 0 110 0.0008 0 
255 2 0.0103528 -0.0609356 -0.00512574 0 0 0 -1.70228e-05 3.03419e-06 -1.26825e-07 -2.25475e-07 -2.00097e-08 3.54483e-08 0 0 0 1 0 0 0 0 0 0 0 0 0 0 0 0 95 0.0008 0 
4848 7 0.0119975 -0.0609341 -0.0056546 0 0 0 -2.6396e-05 -3.56494e-06 1.057e-05 5.911e-08 5.10753e-09 1.97429e-08 1 0 0 0 0 0 1 0 1 0 0 0 0 0 0 0 95 0.0008 0 
15272 2 0.0139544 -0.0609356 -0.00466771 0 0 0 -2.95056e-05 1.04851e-06 -2.45984e-06 4.26531e-08 7.9607e-09 2.93174e-09 1 2 0 0 0 0 0 0 0 0 0 0 0 0 0 0 57 0.0008 0 
1637 5 0.0150804 -0.0609062 -0.00580397 0 0 0 -9.40169e-06 1.72519e-07 2.34183e-05 4.89213e-08 3.02362e-09 -6.40707e-08 0 1 0 0 1 0 0 0 0 0 0 0 0 0 0 0 144 0.0008 0 
5892 2 0.0164304 -0.0609356 -0.00494572 0 0 0 1.17371e-05 2.77557e-06 5.89884e-07 -5.2912e-08 -1.93681e-09 3.2796e-09 0 1 0 0 1 1 0 0 0 0 0 0 0 0 0 0 107 0.0008 0 
5399 2 0.0179715 -0.0609356 -0.00541826 0 0 0 -8.0282e-06 2.92035e-07 3.12666e-06 -9.4923e-08 1.2155e-08 5.31751e-08 0 1 0 0 0 1 0 0 0 0 0 0 0 0 0 0 120 0.0008 0 
15806 3 0.0195176 -0.060893 -0.00587432 0 0 0 -3.87752e-06 -5.59048e-06 1.36292e-05 3.48586e-08 2.29318e-08 7.80813e-09 0 1 1 0 0 0 0 0 0 1 0 0 0 0 0 0 80 0.0008 0 
16506 3 0.0214606 -0.0609356 -0.00483832 0 0 0 0.000257976 -2.28059e-06 0.000673851 -1.296e-07 -5.87706e-08 7.93901e-09 0 1 2 0 0 0 0 0 0 0 0 0 0 0 0 0 52 0.0008 0 
13149 4 0.0229424 -0.0609356 -0.00544172 0 0 0 0.000400076 -1.27862e-05 0.00124291 -1.50416e-07 -1.80979e-07 -1.50842e-07 1 1 1 1 0 0 0 0 0 0 0 0 0 0 0 0 126 0.0008 0 
17720 5 0.0255359 -0.0609356 -0.00513424 0 0 0 0.000348828 6.14548e-06 0.00128696 -4.65142e-07 7.42325e-07 6.85187e-07 0 2 0 0 2 0 0 0 0 0 0 0 0 0 0 0 38 0.0008 0 
658 6 0.0270927 -0.0609312 -0.0056701 0 0 0 -0.00451058 -0.000646367 0.00348954 1.84795e-07 3.91034e-08 6.77617e-07 0 0 0 0 0 1 0 0 0 0 0 0 0 0 0 0 104 0.0008 0 
6450 6 0.0295845 -0.0609356 -0.005488 0 0 0 0.000410825 -7.17209e-05 0.00218751 1.90954e-07 -1.91531e-07 1.5962e-08 0 1 0 0 0 0 0 0 0 0 0 0 0 0 0 0 104 0.0008 0 
3551 3 0.0311518 -0.0609356 -0.00508361 0 0 0 -0.000994255 -1.14128e-12 0.00938589 1.49763e-19 6.75238e-16 -1.20854e-18 0 0 0 0 0 0 0 0 0 0 0 0 0 0 0 0 79 0.0008 0 
10802 6 0.032759 -0.0609356 -0.00504579 0 0 0 0.000571317 5.5244e-06 0.00500659 1.12882e-08 -4.08923e-08 2.75829e-07 0 0 0 0 0 0 0 0 0 0 0 0 0 0 1 0 60 0.0008 0 
8496 3 0.0343575 -0.0609356 -0.00512921 0 0 0 -0.000418059 -1.80303e-05 0.00141472 5.73044e-09 -1.73606e-07 -3.09421e-09 0 0 0 0 0 1 0 0 0 0 0 0 0 0 0 0 76 0.0008 0 
338 3 0.0359604 -0.0609356 -0.00528287 0 0 0 -0.000249554 -0.000689877 0.000812954 -3.37447e-09 7.61907e-06 -2.2352e-09 0 0 0 0 0 0 0 0 0 0 0 0 0 0 0 0 81 0.0008 0 
9740 2 0.0376768 -0.0609356 -0.00540193 0 0 0 -0.00478036 -9.79395e-09 0.00874314 1.24002e-14 -6.80448e-10 -2.24008e-14 0 0 0 0 0 0 0 0 0 0 0 0 0 0 0 0 89 0.0008 0 
6612 3 0.0392921 -0.0609356 -0.00494217 0 0 0 -0.00463624 -7.68861e-05 0.0071639 2.41408e-08 -2.39479e-07 8.54977e-07 0 0 0 0 0 0 0 0 0 0 0 0 0 0 0 0 73 0.0008 0 
818 5 0.0408854 -0.0609356 -0.00463488 0 0 0 -0.00117995 2.64798e-09 0.00145611 -8.94608e-16 -6.01175e-11 1.09849e-15 0 0 0 0 0 0 0 0 0 0 0 0 0 0 0 0 135 0.0008 0 
4952 4 0.0421983 -0.0609355 -0.00554998 0 0 0 -0.00156145 0.000177205 0.000764282 1.34739e-06 -2.0292e-07 -3.1891e-07 0 0 0 1 1 0 0 0 0 0 0 0 0 0 0 0 109 0.0008 0 
9087 1 0.0438354 -0.0609355 -0.00520098 0 0 0 -0.00320644 0.000218625 -0.00514413 5.50995e-06 -5.7085e-06 -2.6777e-06 0 0 0 1 1 0 0 0 0 0 0 0 0 0 0 0 78 0.0008 0 
9387 3 0.0454112 -0.0609356 -0.00487387 0 0 0 -0.00589602 4.76595e-05 -0.00470393 -8.36175e-08 -8.18645e-08 -1.12847e-06 0 0 1 0 0 0 0 0 0 0 0 0 0 0 0 0 67 0.0008 0 
4709 6 0.046983 -0.0609356 -0.00455174 0 0 0 -0.0029475 -2.42071e-05 -0.00558968 2.39353e-10 1.152e-07 2.2161e-09 0 0 0 0 0 0 0 0 0 0 0 0 0 0 0 0 106 0.0008 0 
7937 2 0.000799969 -0.0609356 -0.00314011 0 0 0 -1.86379e-06 3.99567e-07 2.20402e-07 -1.09103e-09 7.8471e-09 2.58641e-08 0 2 0 0 0 0 0 0 0 0 0 0 0 0 0 0 91 0.0008 0 
10595 5 0.00219203 -0.0609356 -0.00392873 0 0 0 -1.50611e-06 -1.52072e-07 -3.76332e-06 -2.29902e-08 -7.51922e-09 3.38409e-09 0 1 1 0 1 1 0 0 0 0 0 0 0 0 0 0 151 0.0008 0 
9977 6 0.00360906 -0.0609356 -0.00311975 0 0 0 -0.000381263 -2.63416e-06 4.44806e-06 -2.27759e-08 -2.40972e-08 3.80038e-08 0 0 0 0 0 1 0 0 0 0 0 0 0 0 0 0 82 0.0008 0 
5611 3 0.00499728 -0.0609356 -0.00392253 0 0 0 -9.6747e-05 -2.27987e-06 3.00761e-06 4.50262e-08 -1.10086e-08 2.62544e-08 0 0 1 1 0 0 0 0 0 0 0 0 0 0 0 0 140 0.0008 0 
8455 4 0.00647655 -0.0609356 -0.00311767 0 0 0 -0.00318602 -5.54945e-12 -0.000255501 2.99482e-19 0 -3.74347e-20 0 0 0 0 0 0 0 0 0 0 0 0 0 0 0 0 134 0.0008 0 
2611 5 0.00889449 -0.0609356 -0.00446328 0 0 0 -2.07627e-05 1.64591e-06 9.45987e-06 4.15237e-08 5.18907e-10 -1.05697e-08 0 0 0 0 1 0 0 0 1 0 0 0 0 0 0 0 128 0.0008 0 
12917 2 0.0109076 -0.0609356 -0.00362506 0 0 0 3.6208e-07 5.16068e-07 4.67326e-06 -8.66234e-08 1.05773e-08 1.51035e-09 0 1 0 0 0 0 0 0 0 0 0 0 0 0 0 0 68 0.0008 0 
2015 2 0.0124309 -0.0609356 -0.00411449 0 0 0 -1.1944e-06 1.63922e-06 1.2758e-06 2.58852e-08 5.9137e-10 -2.09726e-08 0 1 0 0 0 0 1 0 0 0 0 0 0 0 0 0 78 0.0008 0 
12116 6 0.0137579 -0.0609356 -0.00307987 0 0 0 2.30739e-05 -5.17704e-06 5.52582e-06 -6.12361e-08 4.30204e-08 5.47305e-08 0 1 0 0 0 2 0 0 0 0 0 0 0 0 0 0 25 0.0008 0 
14749 4 0.015275 -0.0609356 -0.00360746 0 0 0 -0.000602192 2.34616e-12 0.000732779 1.16771e-20 0 -1.17309e-20 0 0 0 0 0 0 0 0 0 0 0 0 0 0 0 0 64 0.0008 0 
16330 3 0.0168687 -0.0609356 -0.00340698 0 0 0 3.85198e-05 7.71648e-06 8.70384e-06 -5.61321e-08 4.18532e-08 -3.27558e-08 0 1 2 0 0 0 0 0 0 0 0 0 0 0 0 0 97 0.0008 0 
14256 8 0.0184083 -0.0609356 -0.00387911 0 0 0 2.94674e-05 -1.67263e-06 5.84218e-07 8.00681e-08 1.15034e-08 4.44601e-08 0 1 0 0 0 0 0 2 0 0 0 0 0 0 0 0 78 0.0008 0 
11880 4 0.0199427 -0.0609356 -0.00433249 0 0 0 3.9873e-05 5.34668e-07 1.03853e-05 4.60363e-08 5.10008e-09 5.00079e-09 0 0 2 1 0 0 0 1 0 0 0 0 0 0 0 0 109 0.0008 0 
11529 2 0.0211316 -0.0609356 -0.00325518 0 0 0 -0.000275075 -2.3913e-09 -4.64818e-05 1.77645e-16 -9.57085e-11 2.99962e-17 0 0 0 0 0 0 0 0 0 0 0 0 0 0 0 0 66 0.0008 0 
13211 3 0.0226484 -0.0609356 -0.00376639 0 0 0 0.000178311 2.03345e-06 0.000835995 5.72456e-09 -3.20971e-09 1.39298e-08 0 0 0 0 0 0 0 0 0 0 0 0 0 0 0 0 59 0.0008 0 
15618 1 0.0241303 -0.0609356 -0.00436996 0 0 0 0.000280727 -9.36044e-06 0.00136068 2.17179e-07 -3.91576e-07 2.71437e-07 0 0 0 1 1 0 0 0 0 0 0 0 0 0 0 0 55 0.0008 0 
14683 7 0.0253567 -0.0609356 -0.00333788 0 0 0 -0.00216277 -1.75034e-06 0.00349799 -4.60242e-12 1.31494e-09 4.9546e-12 0 0 0 0 0 0 0 0 0 0 0 0 0 0 0 0 45 0.0008 0 
12617 7 0.0267608 -0.0609356 -0.00410493 0 0 0 -0.00181157 1.91605e-05 0.00404039 2.20442e-07 7.45131e-08 3.47648e-07 0 0 0 0 1 1 0 0 0 0 0 0 0 0 0 0 70 0.0008 0 
14576 3 0.0283246 -0.0609356 -0.0045018 0 0 0 0.000754486 1.42406e-05 0.0029815 9.63124e-09 3.70841e-07 -8.46406e-10 0 0 0 0 0 0 0 0 0 0 0 0 0 0 0 0 51 0.0008 0 
9751 4 0.029898 -0.0609356 -0.00389633 0 0 0 0.00312655 3.86998e-07 0.000693497 3.37772e-13 1.30737e-09 7.48896e-14 0 0 0 0 0 0 0 0 0 0 0 0 0 0 0 0 60 0.0008 0 
10544 4 0.032263 -0.0609356 -0.00352376 0 0 0 0.00223246 -3.29335e-12 0.0047675 2.29334e-19 -1.37558e-18 4.58713e-19 0 0 0 0 0 0 0 0 0 0 0 0 0 0 0 0 49 0.0008 0 
2102 5 0.0338803 -0.0609356 -0.00359697 0 0 0 0.00413698 4.60242e-12 0.00280802 -5.9901e-19 -2.44962e-18 -2.42009e-19 0 0 0 0 0 0 0 0 0 0 0 0 0 0 0 0 118 0.0008 0 
4071 8 0.036431 -0.0609356 -0.00375219 0 0 0 0.00294008 3.19311e-06 0.00147856 1.26229e-11 -1.90207e-07 -3.54685e-12 0 0 0 0 0 0 0 0 0 0 0 0 0 0 0 0 109 0.0008 0 
5264 7 0.0380287 -0.0609356 -0.00384011 0 0 0 0.00334794 2.24165e-08 0.00704906 -4.84425e-12 4.12362e-09 -1.47198e-12 0 0 0 0 0 0 0 0 0 0 0 0 0 0 0 0 79 0.0008 0 
12082 1 0.0398149 -0.0609356 -0.00342991 0 0 0 0.00194198 -1.7881e-10 0.00403854 -9.63531e-17 -1.89952e-12 -2.00327e-16 0 0 0 0 0 0 0 0 0 0 0 0 0 0 0 0 120 0.0008 0 
1798 10 0.041417 -0.0609356 -0.0031255 0 0 0 -0.000139809 -3.24596e-09 0.00121896 1.29767e-16 5.82905e-11 -1.12587e-15 0 0 0 0 0 0 0 0 0 0 0 0 0 0 0 0 83 0.0008 0 
4793 1 0.0427299 -0.0609357 -0.00404113 0 0 0 -0.000107134 0.000247716 0.000307652 2.59267e-06 -9.06141e-07 2.13467e-06 0 0 0 1 0 0 0 0 0 0 0 0 0 0 0 0 64 0.0008 0 
298 1 0.0443021 -0.060935 -0.003671 0 0 0 -0.00159904 -0.00165289 -0.0051277 1.02034e-05 -1.05296e-05 2.78415e-06 1 0 0 0 0 0 0 0 0 0 0 0 0 0 0 0 62 0.0008 0 
8538 8 0.0459089 -0.0609357 -0.00335329 0 0 0 -0.00381767 0.000505864 -0.00598714 -3.75103e-06 -1.54214e-06 -3.60655e-06 0 0 1 0 0 0 0 1 0 0 0 0 0 0 0 0 87 0.0008 0 
894 6 0.00220654 -0.0609356 -0.00232894 0 0 0 2.40312e-05 8.66433e-07 -1.55739e-06 -5.80412e-09 -3.70713e-09 -4.34359e-09 0 0 0 0 1 1 0 0 0 0 0 0 0 0 0 0 121 0.0008 0 
9269 5 0.00506465 -0.0609356 -0.00232412 0 0 0 -8.46115e-06 -3.88117e-07 4.18408e-07 2.20739e-08 -5.03555e-09 3.13961e-09 0 0 1 0 2 0 0 0 0 0 0 0 0 0 0 0 129 0.0008 0 
10613 5 0.00794643 -0.0609356 -0.00231813 0 0 0 -0.00059022 -3.29357e-12 -0.0006931 4.74353e-21 0 7.55364e-20 0 0 0 0 0 0 0 0 0 0 0 0 0 0 0 0 41 0.0008 0 
12304 8 0.00942483 -0.0609356 -0.00295379 0 0 0 1.23583e-05 8.0284e-07 -1.01251e-05 -1.01557e-07 -9.04222e-09 8.56684e-08 0 0 0 0 1 0 0 1 0 0 0 0 0 0 0 0 124 0.0008 0 
1063 5 0.0107343 -0.0609356 -0.00203453 0 0 0 -4.81913e-06 1.66777e-07 4.7614e-06 2.67493e-08 -3.29688e-09 -1.57482e-08 0 1 0 0 3 0 0 1 0 0 0 0 0 0 0 0 127 0.0008 0 
10360 1 0.0122576 -0.0609356 -0.00252393 0 0 0 7.40513e-06 2.63495e-06 8.66924e-06 7.89865e-09 -5.7738e-10 -2.65761e-08 1 1 0 0 1 1 0 0 0 0 0 0 0 0 0 0 136 0.0008 0 
14724 5 0.0149047 -0.0609356 -0.00196413 0 0 0 -1.76953e-06 7.18564e-06 2.19209e-05 -2.06706e-07 -7.5846e-08 3.5219e-08 0 0 0 0 2 1 0 0 0 0 0 0 0 0 0 0 78 0.0008 0 
10496 1 0.0165005 -0.0609356 -0.00184994 0 0 0 -2.65709e-05 7.12901e-06 3.75856e-05 -1.55882e-07 -3.84965e-07 1.90091e-07 2 0 1 0 1 0 0 0 0 0 0 0 0 0 0 0 110 0.0008 0 
7764 4 0.0180439 -0.0609356 -0.00232126 0 0 0 4.23383e-05 4.23771e-06 1.08433e-05 -1.95353e-07 -2.34806e-08 2.8464e-08 0 0 1 1 0 0 0 1 0 0 0 0 0 0 0 0 100 0.0008 0 
700 8 0.0196074 -0.0609356 -0.00276809 0 0 0 -6.23584e-05 1.12663e-06 -1.19493e-05 2.13909e-08 1.83968e-09 4.21261e-09 0 0 0 1 0 0 0 0 0 0 0 0 0 0 0 0 52 0.0008 0 
14434 6 0.0207811 -0.0609356 -0.00167999 0 0 0 0.000158256 2.0315e-12 -0.000151038 -1.89973e-20 2.05073e-15 1.89954e-20 0 0 0 0 0 0 0 0 0 0 0 0 0 0 0 0 59 0.0008 0 
6272 1 0.0223342 -0.0609356 -0.00218738 0 0 0 -0.000822283 -1.52108e-12 0.00115021 -1.5042e-19 0 -1.51068e-19 0 0 0 0 0 0 0 0 0 0 0 0 0 0 0 0 96 0.0008 0 
2137 3 0.0238671 -0.0609356 -0.0027293 0 0 0 -0.00218458 7.77785e-09 0.00361354 -4.7538e-15 6.11247e-12 7.86373e-15 0 0 0 0 0 0 0 0 0 0 0 0 0 0 0 0 67 0.0008 0 