ITEM: TIMESTEP
4400000
ITEM: NUMBER OF ATOMS
533
ITEM: BOX BOUNDS ff ff ff
-0.01 0.45
-0.15 0.15
-0.08 0.1
ITEM: ATOMS id type x y z ix iy iz vx vy vz fx fy fz c_cc_1 c_cc_2 c_cc_3 c_cc_4 c_cc_5 c_cc_6 c_cc_7 c_cc_8 c_cc_9 c_cc_10 c_cc_11 c_cc_12 c_cc_13 c_cc_14 c_cc_15 c_cc_16 f_fppacc radius 
432 4 0.00340394 -0.0395733 -0.0419548 0 0 0 -0.514063 -6.89867 5.81048 0 -0.000164368 0 0 0 0 0 0 0 0 0 0 0 0 0 0 0 0 0 0 0.002 
529 14 0.00287538 -0.0428825 0.0387928 0 0 0 1.46488 21.4861 21.4129 0.358829 -0.0431573 -0.201902 0 0 0 0 0 0 0 0 0 0 0 0 0 0 0 0 0 0.002 
269 2 0.00721527 -0.00661903 -0.0574561 0 0 0 0.395359 -3.28719 0.306452 0.0325803 -0.134116 0.3519 0 0 0 0 0 0 0 0 0 0 0 0 0 0 0 0 1 0.002 
299 1 0.00494831 0.0174747 -0.0416373 0 0 0 0.281226 -1.68181 -0.936907 0 -0.000164368 0 0 0 0 0 0 0 0 0 0 0 0 0 0 0 0 0 1 0.002 
20 3 0.00624136 0.0315543 -0.0261082 0 0 0 0.317479 -1.5632 0.625125 0 -0.000164368 0 0 0 0 0 0 0 0 0 0 0 0 0 0 0 0 0 3 0.002 
530 1 0.0112217 0.0307755 -0.0123187 0 0 0 0.351625 -2.91891 -0.151621 0 -0.000164368 0 0 0 0 0 0 0 0 0 0 0 0 0 0 0 0 0 1 0.002 
171 3 0.0112576 0.0366884 -0.0195448 0 0 0 -1.86195 -2.8326 0.874548 0 -0.000164368 0 0 0 0 0 0 0 0 0 0 0 0 0 0 0 0 0 3 0.002 
402 1 0.00498311 0.0195066 0.0353889 0 0 0 0.455727 -2.91217 2.09613 0 -0.000164368 0 0 0 0 0 0 0 0 0 0 0 0 0 0 0 0 0 3 0.002 
41 1 0.0151326 0.0528516 -0.0355 0 0 0 -4.4547e-305 1.0163e-19 -6.16522e-12 3.48313e-305 1.35525e-20 0 0 0 0 0 0 0 0 0 0 0 0 0 0 0 0 0 1 0.002 
141 5 0.0115756 0.0690799 0.00207746 0 0 0 2.3951 -1.08678 -2.82115 0 -0.000164368 0 0 0 0 0 0 0 0 0 0 0 0 0 0 0 0 0 9 0.002 
514 8 0.00927422 0.0504651 -0.0132996 0 0 0 3.80291 -3.25924 5.86692 0 -0.000164368 0 0 0 0 0 0 0 0 0 0 0 0 0 0 0 0 0 0 0.002 
380 3 0.00536397 0.0600329 -0.0156241 0 0 0 1.52056 -3.12125 2.25891 0 -0.000164368 0 0 0 0 0 0 0 0 0 0 0 0 0 0 0 0 0 0 0.002 
159 2 0.00525805 0.0558688 -0.0117768 0 0 0 0.151168 -1.6115 0.970192 0 -0.000164368 0 0 0 0 0 0 0 0 0 0 0 0 0 0 0 0 0 0 0.002 
236 3 0.00630211 0.0617093 -0.010702 0 0 0 0.371141 -3.40743 1.81491 0 -0.000164368 0 0 0 0 0 0 0 0 0 0 0 0 0 0 0 0 0 1 0.002 
133 1 0.0136233 0.0626151 -0.0065072 0 0 0 0.942387 -1.23655 1.15828 0 -0.000164368 0 0 0 0 0 0 0 0 0 0 0 0 0 0 0 0 0 6 0.002 
356 7 0.00912484 0.072945 -0.0014796 0 0 0 1.47083 -0.792968 -2.61241 0 -0.000164368 0 0 0 0 0 0 0 0 0 0 0 0 0 0 0 0 0 8 0.002 
272 2 0.0036013 0.0530471 0.00471986 0 0 0 1.08251 -7.12358 0.464445 0 -0.000164368 0 0 0 0 0 0 0 0 0 0 0 0 0 0 0 0 0 0 0.002 
350 8 0.0179841 0.0377197 0.00237152 0 0 0 -10.4615 -13.0086 19.4828 0 -0.000164368 0 0 0 0 0 0 0 0 0 0 0 0 0 0 0 0 0 1 0.002 
296 2 0.00950804 0.0659004 0.0123652 0 0 0 -2.19242 -4.3409 2.58451 0 -0.000164368 0 0 0 0 0 0 0 0 0 0 0 0 0 0 0 0 0 4 0.002 
140 4 0.0139839 0.0624605 0.0124357 0 0 0 -0.710077 -0.770716 -2.31582 0 -0.000164368 0 0 0 0 0 0 0 0 0 0 0 0 0 0 0 0 0 3 0.002 
243 5 0.0151609 0.0689745 0.0154363 0 0 0 -0.0489098 -1.04333 0.0234393 0 -0.000164368 0 0 0 0 0 0 0 0 0 0 0 0 0 0 0 0 0 2 0.002 
361 3 0.00892486 0.051832 0.026446 0 0 0 -5.49107 6.10476 -13.8569 0 -0.000164368 0 0 0 0 0 0 0 0 0 0 0 0 0 0 0 0 0 1 0.002 
26 9 0.00380899 0.0551501 0.0177434 0 0 0 0.0875776 -1.52517 0.18311 0 -0.000164368 0 0 0 0 0 0 0 0 0 0 0 0 0 0 0 0 0 3 0.002 
291 1 0.0029994 0.0700926 0.0232935 0 0 0 0.0503096 -0.320927 0.300237 -0.00229374 0.000974508 0.000135156 0 0 0 0 0 0 0 0 0 0 0 0 0 0 0 0 5 0.002 
527 8 0.00864863 0.058904 0.0245209 0 0 0 -1.25115 3.44403 -1.78276 -0.354646 1.5367 0.19762 0 0 0 0 0 0 0 1 0 0 0 0 0 0 0 0 1 0.002 
199 4 0.00951566 0.0560317 0.0225372 0 0 0 -1.11165 18.6026 -23.7561 0.354646 -1.53703 -0.19762 0 0 0 0 0 0 0 1 0 0 0 0 0 0 0 0 7 0.002 
433 9 0.0110083 0.0680603 0.0272066 0 0 0 0.647053 -0.83779 -0.191232 0 -0.000164368 0 0 0 0 0 0 0 0 0 0 0 0 0 0 0 0 0 0 0.002 
188 6 0.00302223 0.0748387 0.0271254 0 0 0 0.0146461 0.0721733 0.011728 0 -0.000164368 0 0 0 0 0 0 0 0 0 0 0 0 0 0 0 0 0 7 0.002 
370 4 0.00332823 0.07018 0.0300121 0 0 0 0.00901744 -0.0883033 0.290769 0 -0.000164368 0 0 0 0 0 0 0 0 0 0 0 0 0 0 0 0 0 5 0.002 
289 3 0.00979828 0.0726416 0.028345 0 0 0 -0.0253136 -0.576566 -0.012561 0 -0.000164368 0 0 0 0 0 0 0 0 0 0 0 0 0 0 0 0 0 2 0.002 
260 1 0.00411714 0.0581025 0.0316857 0 0 0 0.0470783 -1.68349 0.871741 0 -0.000164368 0 0 0 0 0 0 0 0 0 0 0 0 0 0 0 0 0 11 0.002 
347 3 0.0151528 0.058816 0.0306684 0 0 0 0.772484 -0.938757 -0.105793 0 -0.000164368 0 0 0 0 0 0 0 0 0 0 0 0 0 0 0 0 0 1 0.002 
253 2 0.00317593 0.0652777 0.0324505 0 0 0 0.0972124 -0.119084 0.138633 0 -0.000164368 0 0 0 0 0 0 0 0 0 0 0 0 0 0 0 0 0 3 0.002 
237 10 0.00616675 0.0680092 0.0322335 0 0 0 0.15438 -0.582656 -0.12097 0 -0.000164368 0 0 0 0 0 0 0 0 0 0 0 0 0 0 0 0 0 5 0.002 
426 3 0.0165789 0.0700013 0.0301523 0 0 0 0.0687926 -1.26754 -0.316672 0 -0.000164368 0 0 0 0 0 0 0 0 0 0 0 0 0 0 0 0 0 3 0.002 
391 4 0.00328494 0.0745398 0.0328887 0 0 0 0.170128 -0.41898 -0.0719785 0 -0.000164368 0 0 0 0 0 0 0 0 0 0 0 0 0 0 0 0 0 6 0.002 
323 7 0.00775543 0.0735218 0.0326912 0 0 0 0.492095 -0.559124 0.072999 0 -0.000164368 0 0 0 0 0 0 0 0 0 0 0 0 0 0 0 0 0 4 0.002 
538 1 0.0148054 0.0599877 0.017425 0 0 0 -20.4613 29.8262 -37.5204 0 -0.000164368 0 0 0 0 0 0 0 0 0 0 0 0 0 0 0 0 0 0 0.002 
528 6 0.00716357 0.0854734 -0.0324984 0 0 0 1.7326 0.807775 0.373632 0 -0.000164368 0 0 0 0 0 0 0 0 0 0 0 0 0 0 0 0 0 0 0.002 
176 2 0.00367111 0.0907133 -0.0320702 0 0 0 0.38516 0.730107 0.831798 0 -0.000164368 0 0 0 0 0 0 0 0 0 0 0 0 0 0 0 0 0 2 0.002 
314 6 0.00301229 0.0954004 -0.0322693 0 0 0 -0.782264 1.54139 0.513003 0 -0.000164368 0 0 0 0 0 0 0 0 0 0 0 0 0 0 0 0 0 1 0.002 
229 6 0.00716116 0.098932 -0.0324977 0 0 0 0.214302 0.835345 0.0523816 0 -0.000164368 0 0 0 0 0 0 0 0 0 0 0 0 0 0 0 0 0 5 0.002 
399 3 0.0115764 0.102595 -0.0329288 0 0 0 -0.240691 0.950841 0.253186 0 -0.000164368 0 0 0 0 0 0 0 0 0 0 0 0 0 0 0 0 0 5 0.002 
134 2 0.00686773 0.106667 -0.0317417 0 0 0 0.14469 -0.205916 0.512275 0 -0.000164368 0 0 0 0 0 0 0 0 0 0 0 0 0 0 0 0 0 0 0.002 
522 2 0.00864762 0.0950644 -0.0299295 0 0 0 -0.180298 -0.652291 -0.261545 0 -0.000164368 0 0 0 0 0 0 0 0 0 0 0 0 0 0 0 0 0 0 0.002 
532 8 0.00778264 0.102632 -0.0308849 0 0 0 -1.02987 -0.393669 0.0627964 0 -0.000164368 0 0 0 0 0 0 0 0 0 0 0 0 0 0 0 0 0 0 0.002 
34 3 0.00301837 0.108006 -0.0310114 0 0 0 0.0975157 -0.0459994 0.0786218 4.77116e-05 -0.0032618 -0.000174534 0 0 0 0 0 0 0 0 0 0 0 0 0 0 0 0 4 0.002 
369 6 0.0075808 0.0806203 -0.0276296 0 0 0 0.16213 -3.03081 1.62249 0 -0.000164368 0 0 0 0 0 0 0 0 0 0 0 0 0 0 0 0 0 5 0.002 
338 6 0.00343288 0.0870984 -0.0287384 0 0 0 0.464602 0.736365 0.872971 0 -0.000164368 0 0 0 0 0 0 0 0 0 0 0 0 0 0 0 0 0 0 0.002 
45 4 0.00468524 0.0990408 -0.0287691 0 0 0 0.00425149 0.34883 0.331273 0 -0.000164368 0 0 0 0 0 0 0 0 0 0 0 0 0 0 0 0 0 3 0.002 
213 4 0.00449807 0.106768 -0.0273974 0 0 0 -0.250893 -0.158088 0.255455 0 -0.000164368 0 0 0 0 0 0 0 0 0 0 0 0 0 0 0 0 0 2 0.002 
450 2 0.0154672 0.105612 -0.0271303 0 0 0 -0.668152 -0.420149 1.3062 0 -0.000164368 0 0 0 0 0 0 0 0 0 0 0 0 0 0 0 0 0 1 0.002 
521 6 0.0120238 0.0830233 -0.0261723 0 0 0 0.166452 -1.19186 0.744517 0 -0.000164368 0 0 0 0 0 0 0 0 0 0 0 0 0 0 0 0 0 0 0.002 
172 5 0.00310737 0.0984816 -0.0243225 0 0 0 -0.743077 0.225211 0.603832 0 -0.000164368 0 0 0 0 0 0 0 0 0 0 0 0 0 0 0 0 0 5 0.002 
456 8 0.0152918 0.0958605 -0.0260588 0 0 0 -0.119045 -0.792816 -0.743804 0 -0.000164368 0 0 0 0 0 0 0 0 0 0 0 0 0 0 0 0 0 0 0.002 
507 6 0.00637265 0.0961828 -0.0207161 0 0 0 -0.00204868 -1.50883 -0.462833 0 -0.000164368 0 0 0 0 0 0 0 0 0 0 0 0 0 0 0 0 0 0 0.002 
164 4 0.016504 0.0980234 -0.0225668 0 0 0 0.854069 -0.690059 -0.553302 0 -0.000164368 0 0 0 0 0 0 0 0 0 0 0 0 0 0 0 0 0 2 0.002 
496 2 0.00789426 0.102395 -0.0202209 0 0 0 0.273972 -0.50794 0.277389 0 -0.000164368 0 0 0 0 0 0 0 0 0 0 0 0 0 0 0 0 0 0 0.002 
434 14 0.00306412 0.102234 -0.0171943 0 0 0 0.173508 -0.147398 -0.185353 0 -0.000164368 0 0 0 0 0 0 0 0 0 0 0 0 0 0 0 0 0 0 0.002 
477 2 0.00668121 0.103131 -0.0156102 0 0 0 0.0135707 -0.504642 0.928009 0 -0.000164368 0 0 0 0 0 0 0 0 0 0 0 0 0 0 0 0 0 0 0.002 
2 6 0.00993943 0.104598 -0.0175515 0 0 0 -0.181327 -0.578257 -0.161986 0 -0.000164368 0 0 0 0 0 0 0 0 0 0 0 0 0 0 0 0 0 1 0.002 
414 7 0.00340357 0.106861 -0.0164244 0 0 0 0.201812 -0.304852 -1.024 0 -0.000164368 0 0 0 0 0 0 0 0 0 0 0 0 0 0 0 0 0 1 0.002 
463 9 0.00464727 0.102565 -0.0101427 0 0 0 -2.15882 -0.392115 0.504516 0 -0.000164368 0 0 0 0 0 0 0 0 0 0 0 0 0 0 0 0 0 0 0.002 
427 6 0.0132493 0.106552 -0.00977828 0 0 0 0.0760866 -0.139468 -0.152929 0 -0.000164368 0 0 0 0 0 0 0 0 0 0 0 0 0 0 0 0 0 0 0.002 
440 5 0.00933071 0.106514 -0.00779658 0 0 0 0.720368 0.213137 0.299485 0 -0.000164368 0 0 0 0 0 0 0 0 0 0 0 0 0 0 0 0 0 1 0.002 
424 5 0.0182489 0.0944482 -0.00545041 0 0 0 0.613504 -1.06577 0.444734 0 -0.000164368 0 0 0 0 0 0 0 0 0 0 0 0 0 0 0 0 0 4 0.002 
156 4 0.00391078 0.106921 -0.00584047 0 0 0 0.179638 -0.0414823 0.122746 0 -0.000164368 0 0 0 0 0 0 0 0 0 0 0 0 0 0 0 0 0 2 0.002 
513 4 0.00901675 0.107688 -0.00375078 0 0 0 0.086898 -0.123113 0.596957 0 -0.000164368 0 0 0 0 0 0 0 0 0 0 0 0 0 0 0 0 0 0 0.002 
395 6 0.0178287 0.0976639 -0.00171467 0 0 0 0.190772 -0.62769 0.23567 0 -0.000164368 0 0 0 0 0 0 0 0 0 0 0 0 0 0 0 0 0 0 0.002 
451 1 0.00333603 0.107994 -0.00161669 0 0 0 0.0722964 0.117 0.214986 0 -0.000164368 0 0 0 0 0 0 0 0 0 0 0 0 0 0 0 0 0 1 0.002 
183 9 0.0044226 0.0988221 -0.00161688 0 0 0 1.11115 0.840033 -1.20276 0 -0.000164368 0 0 0 0 0 0 0 0 0 0 0 0 0 0 0 0 0 7 0.002 
74 5 0.0100113 0.101322 -0.000896184 0 0 0 0.0764991 -0.33837 0.935009 0 -0.000164368 0 0 0 0 0 0 0 0 0 0 0 0 0 0 0 0 0 2 0.002 
423 3 0.015063 0.104496 0.000157481 0 0 0 0.592178 -0.399617 0.405621 0 -0.000164368 0 0 0 0 0 0 0 0 0 0 0 0 0 0 0 0 0 2 0.002 
310 2 0.00550244 0.0775869 0.007019 0 0 0 -2.75225 -1.72937 8.34752 0 -0.000164368 0 0 0 0 0 0 0 0 0 0 0 0 0 0 0 0 0 2 0.002 
517 2 0.00460125 0.0899536 0.00279231 0 0 0 0.155904 -0.748485 -0.473286 0 -0.000164368 0 0 0 0 0 0 0 0 0 0 0 0 0 0 0 0 0 0 0.002 
288 1 0.00520437 0.0989699 0.003677 0 0 0 0.216158 -0.194588 -0.386251 0 -0.000164368 0 0 0 0 0 0 0 0 0 0 0 0 0 0 0 0 0 2 0.002 
250 5 0.0117499 0.0934195 0.00697228 0 0 0 1.51849 4.31967 -1.43995 0 -0.000164368 0 0 0 0 0 0 0 0 0 0 0 0 0 0 0 0 0 11 0.002 
471 5 0.0147605 0.0979414 0.00593434 0 0 0 0.0814473 -0.251769 0.00709245 0 -0.000164368 0 0 0 0 0 0 0 0 0 0 0 0 0 0 0 0 0 0 0.002 
138 4 0.0138092 0.104734 0.00679964 0 0 0 0.0241819 -0.67277 0.239142 0 -0.000164368 0 0 0 0 0 0 0 0 0 0 0 0 0 0 0 0 0 6 0.002 
217 2 0.0171459 0.108005 0.00881522 0 0 0 0.963559 -0.0485204 -0.378366 -0.000255866 -0.00151109 -0.000622855 0 0 0 0 0 0 0 0 0 0 0 0 0 0 0 0 3 0.002 
479 9 0.00430688 0.0925131 0.00920629 0 0 0 0.0682827 -0.117245 -0.395647 0 -0.000164368 0 0 0 0 0 0 0 0 0 0 0 0 0 0 0 0 0 0 0.002 
533 4 0.00420746 0.100751 0.00941633 0 0 0 0.100948 -0.538131 0.160034 0 -0.000164368 0 0 0 0 0 0 0 0 0 0 0 0 0 0 0 0 0 0 0.002 
407 4 0.0127086 0.103329 0.0112552 0 0 0 0.920731 0.896286 1.02764 0 -0.000164368 0 0 0 0 0 0 0 0 0 0 0 0 0 0 0 0 0 2 0.002 
178 10 0.0061061 0.106276 0.0120771 0 0 0 -0.0748395 -0.335339 0.292003 0 -0.000164368 0 0 0 0 0 0 0 0 0 0 0 0 0 0 0 0 0 4 0.002 
472 3 0.00514846 0.0792971 0.0147194 0 0 0 -4.09573 4.1955 -2.24614 0 -0.000164368 0 0 0 0 0 0 0 0 0 0 0 0 0 0 0 0 0 1 0.002 
198 6 0.0183121 0.0978648 0.0166128 0 0 0 0.793555 -0.215616 0.80656 0 -0.000164368 0 0 0 0 0 0 0 0 0 0 0 0 0 0 0 0 0 2 0.002 
84 8 0.00316416 0.10511 0.0148489 0 0 0 -0.221294 -0.275423 0.333315 -0.00311689 0.000608875 -0.0133572 0 0 0 0 0 0 0 1 0 0 0 0 0 0 0 0 2 0.002 
278 11 0.00839404 0.107992 0.0152102 0 0 0 0.168801 -0.125749 -0.0672938 0 -0.000164368 0 0 0 0 0 0 0 0 0 0 0 0 0 0 0 0 0 1 0.002 
492 4 0.00435611 0.0751179 0.0190127 0 0 0 0.192237 -0.0899724 0.0992955 0 -0.000164368 0 0 0 0 0 0 0 0 0 0 0 0 0 0 0 0 0 0 0.002 
441 3 0.00310311 0.0892837 0.017432 0 0 0 -0.237985 -0.0951046 -0.33581 0 -0.000164368 0 0 0 0 0 0 0 0 0 0 0 0 0 0 0 0 0 0 0.002 
444 3 0.00509103 0.0926516 0.0183239 0 0 0 0.37364 -1.01305 0.916694 0 -0.000164368 0 0 0 0 0 0 0 0 0 0 0 0 0 0 0 0 0 1 0.002 
111 3 0.0172246 0.104977 0.0169863 0 0 0 0.653415 0.651026 0.385107 0 -0.000164368 0 0 0 0 0 0 0 0 0 0 0 0 0 0 0 0 0 1 0.002 
112 6 0.00501598 0.106343 0.0181515 0 0 0 0.0465329 0.0695462 0.0745583 0.00311689 -0.000937611 0.0133572 0 0 0 0 0 0 0 1 0 0 0 0 0 0 0 0 4 0.002 
144 9 0.0121645 0.0801613 0.0200025 0 0 0 0.515781 -1.26101 0.0105799 0 -0.000164368 0 0 0 0 0 0 0 0 0 0 0 0 0 0 0 0 0 4 0.002 
392 1 0.00578359 0.0864291 0.0192482 0 0 0 -0.422434 -0.490441 -0.0183694 0 -0.000164368 0 0 0 0 0 0 0 0 0 0 0 0 0 0 0 0 0 4 0.002 
92 2 0.008823 0.0995109 0.0203791 0 0 0 0.708167 -0.961528 -0.566762 0 -0.000164368 0 0 0 0 0 0 0 0 0 0 0 0 0 0 0 0 0 2 0.002 
208 9 0.0099326 0.108002 0.0191868 0 0 0 0.0911966 -0.224844 0.165997 -0.000679161 0.0159925 -0.00115365 0 0 0 0 0 0 0 0 1 0 0 0 0 0 0 0 7 0.002 
420 3 0.0167502 0.0788004 0.0211573 0 0 0 -0.496789 -0.180085 -0.210263 0 -0.000164368 0 0 0 0 0 0 0 0 0 0 0 0 0 0 0 0 0 1 0.002 
86 6 0.00501935 0.0827423 0.021715 0 0 0 0.355087 -0.865195 0.538863 0 -0.000164368 0 0 0 0 0 0 0 0 0 0 0 0 0 0 0 0 0 3 0.002 
512 7 0.00979261 0.0849179 0.0216913 0 0 0 0.00846255 -0.792468 0.147771 0.0131563 0.0274075 -0.0500951 0 0 0 0 0 0 1 0 0 0 0 0 0 0 0 0 1 0.002 
437 8 0.0114078 0.090144 0.0223968 0 0 0 0.0440669 -0.348014 -0.0335681 0 -0.000164368 0 0 0 0 0 0 0 0 0 0 0 0 0 0 0 0 0 7 0.002 
242 6 0.0183107 0.0929723 0.0231343 0 0 0 0.228845 0.249789 -0.0697083 0 -0.000164368 0 0 0 0 0 0 0 0 0 0 0 0 0 0 0 0 0 6 0.002 
487 3 0.0113086 0.0973772 0.0228619 0 0 0 0.94263 -0.911134 0.314819 0 -0.000164368 0 0 0 0 0 0 0 0 0 0 0 0 0 0 0 0 0 1 0.002 
261 1 0.00465591 0.0993052 0.0224123 0 0 0 0.528816 -0.271305 -0.164896 0 -0.000164368 0 0 0 0 0 0 0 0 0 0 0 0 0 0 0 0 0 3 0.002 
263 2 0.0124655 0.101772 0.0221969 0 0 0 0.524246 -0.417938 -0.0639663 0 -0.000164368 0 0 0 0 0 0 0 0 0 0 0 0 0 0 0 0 0 2 0.002 
344 1 0.0183059 0.100833 0.0221059 0 0 0 -0.037188 -0.141991 -0.0437294 0 -0.000164368 0 0 0 0 0 0 0 0 0 0 0 0 0 0 0 0 0 9 0.002 
207 2 0.00908419 0.104371 0.0228763 0 0 0 0.243145 -0.230786 0.741023 0 -0.000164368 0 0 0 0 0 0 0 0 0 0 0 0 0 0 0 0 0 3 0.002 
454 2 0.0168357 0.104706 0.022121 0 0 0 0.17129 -0.0829508 -0.0162495 0 -0.000164368 0 0 0 0 0 0 0 0 0 0 0 0 0 0 0 0 0 5 0.002 
405 3 0.0130928 0.107359 0.0215402 0 0 0 0.656833 0.363569 -0.431592 0.00247616 -0.00255547 0.00232343 0 0 0 0 0 0 0 0 1 0 0 0 0 0 0 0 2 0.002 
125 10 0.00462456 0.0782955 0.0251539 0 0 0 0.368706 -0.355722 0.495851 0 -0.000164368 0 0 0 0 0 0 0 0 0 0 0 0 0 0 0 0 0 8 0.002 
510 9 0.00838717 0.0818749 0.0237909 0 0 0 -0.325232 -0.271454 0.689023 -0.0131563 -0.0277362 0.0500951 0 0 0 0 0 0 1 0 0 0 0 0 0 0 0 0 1 0.002 
249 4 0.00354016 0.084103 0.0258933 0 0 0 -0.296791 -0.0330159 0.723742 0 -0.000164368 0 0 0 0 0 0 0 0 0 0 0 0 0 0 0 0 0 5 0.002 
383 6 0.00630065 0.0866589 0.0242249 0 0 0 -0.193154 0.187208 0.650321 0 -0.000164368 0 0 0 0 0 0 0 0 0 0 0 0 0 0 0 0 0 1 0.002 
204 7 0.0031681 0.0906121 0.0241404 0 0 0 -0.302537 -1.18684 -1.18941 0 -0.000164368 0 0 0 0 0 0 0 0 0 0 0 0 0 0 0 0 0 4 0.002 
333 2 0.00730448 0.0909854 0.024215 0 0 0 -0.0665019 -0.417149 0.167033 0 -0.000164368 0 0 0 0 0 0 0 0 0 0 0 0 0 0 0 0 0 2 0.002 
459 5 0.00449572 0.0957295 0.0242637 0 0 0 1.05028 -0.317445 0.605281 0 -0.000164368 0 0 0 0 0 0 0 0 0 0 0 0 0 0 0 0 0 1 0.002 
404 6 0.0075808 0.0985698 0.0250508 0 0 0 0.286376 -0.181871 0.443295 -0.0339617 -0.00783662 -0.0222372 0 0 0 0 0 1 0 0 0 0 0 0 0 0 0 0 4 0.002 
313 1 0.01367 0.0996617 0.0255152 0 0 0 0.118779 -0.398005 0.34549 0 -0.000164368 0 0 0 0 0 0 0 0 0 0 0 0 0 0 0 0 0 2 0.002 
305 5 0.00576325 0.102278 0.0248622 0 0 0 0.14082 -0.305176 0.207395 -0.000884105 -0.00134455 -0.00248256 0 0 0 0 1 0 0 0 0 0 0 0 0 0 0 0 5 0.002 
300 1 0.00313189 0.105706 0.0237476 0 0 0 -0.0180007 -0.11547 0.0946013 0 -0.000164368 0 0 0 0 0 0 0 0 0 0 0 0 0 0 0 0 0 2 0.002 
334 2 0.00684187 0.107571 0.0238722 0 0 0 0.177533 -0.381139 0.662218 0 -0.000164368 0 0 0 0 0 0 0 0 0 0 0 0 0 0 0 0 0 2 0.002 
297 3 0.0146058 0.107989 0.0252297 0 0 0 0.278631 -0.0524835 -0.0883152 -0.00163576 -0.00100409 0.000357496 0 0 1 0 0 0 0 0 0 0 0 0 0 0 0 0 7 0.002 
211 2 0.0185455 0.108003 0.0245656 0 0 0 0.285963 -0.0553668 -0.0654885 0.000962913 0.00216193 -4.16483e-05 0 0 1 0 0 0 0 0 0 0 0 0 0 0 0 0 5 0.002 
428 8 0.00840815 0.0760862 0.0258001 0 0 0 -4.86335 -2.29726 -2.93712 0.121764 0.0608674 0.0192488 0 0 0 0 0 0 0 1 0 0 0 0 0 0 0 0 2 0.002 
182 2 0.00995487 0.0850043 0.025965 0 0 0 0.243163 -0.451113 -0.0768641 0 -0.000164368 0 0 0 0 0 0 0 0 0 0 0 0 0 0 0 0 0 3 0.002 
274 4 0.00988273 0.0939217 0.027123 0 0 0 -0.0579591 -0.165919 0.0453673 0 -0.000164368 0 0 0 0 0 0 0 0 0 0 0 0 0 0 0 0 0 3 0.002 
465 4 0.0030143 0.0989054 0.0268931 0 0 0 0.0349004 0.270528 0.835941 0 -0.000164368 0 0 0 0 0 0 0 0 0 0 0 0 0 0 0 0 0 3 0.002 
16 3 0.00320812 0.103062 0.0279424 0 0 0 0.214059 -0.103667 0.312003 0 -0.000164368 0 0 0 0 0 0 0 0 0 0 0 0 0 0 0 0 0 6 0.002 
460 2 0.0100569 0.100948 0.0270531 0 0 0 0.0773513 -0.079872 0.0513664 0.0339617 0.00750788 0.0222372 0 0 0 0 0 1 0 0 0 0 0 0 0 0 0 0 5 0.002 
362 1 0.0173748 0.101131 0.0261366 0 0 0 0.110236 -0.0328031 0.0257086 -7.60655e-05 -9.79035e-05 -0.000234282 1 0 0 0 0 0 0 0 0 0 0 0 0 0 0 0 1 0.002 
206 6 0.00821025 0.104527 0.027076 0 0 0 0.261428 -0.117122 -0.109281 0.000884105 0.00101581 0.00248256 0 0 0 0 1 0 0 0 0 0 0 0 0 0 0 0 1 0.002 
73 3 0.0145225 0.103953 0.0268327 0 0 0 0.0162282 -0.0951202 -0.0309767 0 -0.000164368 0 0 0 0 0 0 0 0 0 0 0 0 0 0 0 0 0 2 0.002 
262 3 0.0104132 0.107994 0.0257962 0 0 0 0.675582 0.047488 0.0347778 0 -0.000164368 0 0 0 0 0 0 0 0 0 0 0 0 0 0 0 0 0 2 0.002 
179 1 0.00475581 0.0777583 0.0298559 0 0 0 -0.540936 0.157306 -0.153598 0.00489549 0.0021872 -0.000304003 1 0 0 0 0 0 0 0 0 0 0 0 0 0 0 0 5 0.002 
384 6 0.00745721 0.0806375 0.0292263 0 0 0 0.45221 -0.470439 0.00673389 -0.00489549 -0.00251593 0.000304003 1 0 0 0 0 0 0 0 0 0 0 0 0 0 0 0 4 0.002 
294 1 0.0112698 0.077454 0.0280471 0 0 0 0.902115 -4.31001 -1.69858 -0.121764 -0.0611962 -0.0192488 0 0 0 0 0 0 0 1 0 0 0 0 0 0 0 0 4 0.002 
343 2 0.00401146 0.0897195 0.0284001 0 0 0 0.13307 -0.785408 -0.672295 0 -0.000164368 0 0 0 0 0 0 0 0 0 0 0 0 0 0 0 0 0 0 0.002 
419 10 0.00807791 0.0905799 0.0286952 0 0 0 -0.0532616 -0.267732 0.13296 -0.0043683 0.00355963 0.000803729 0 0 0 0 0 0 0 0 0 1 0 0 0 0 0 0 2 0.002 
286 14 0.0119156 0.0896448 0.0282355 0 0 0 0.220162 -0.379329 0.245927 0.0043683 -0.00388836 -0.000803729 0 0 0 0 0 0 0 0 0 1 0 0 0 0 0 0 5 0.002 
102 1 0.0168748 0.0931137 0.0286231 0 0 0 0.152929 -0.314901 0.556853 0 -0.000164368 0 0 0 0 0 0 0 0 0 0 0 0 0 0 0 0 0 6 0.002 
418 1 0.00313268 0.0955173 0.0290328 0 0 0 -0.08442 -0.229132 -0.180419 0.000150025 -0.000232824 -0.00568446 1 0 0 0 0 0 0 0 0 0 0 0 0 0 0 0 4 0.002 
524 5 0.0070389 0.0949909 0.0298379 0 0 0 -0.0148361 -0.186453 0.0404212 0.000439233 -0.000160275 0.000135553 0 0 0 0 1 0 0 0 0 0 0 0 0 0 0 0 1 0.002 
224 5 0.0132247 0.0968379 0.0289305 0 0 0 -0.0610323 -0.178912 0.134387 0 -0.000164368 0 0 0 0 0 0 0 0 0 0 0 0 0 0 0 0 0 9 0.002 
523 2 0.0187315 0.0979129 0.0281641 0 0 0 0.208378 -0.118291 0.0160141 0 -0.000164368 0 0 0 0 0 0 0 0 0 0 0 0 0 0 0 0 0 0 0.002 
121 2 0.00616067 0.100608 0.0290804 0 0 0 -0.0172829 -0.106158 0.0198937 0 -0.000164368 0 0 0 0 0 0 0 0 0 0 0 0 0 0 0 0 0 4 0.002 
130 1 0.0129982 0.101254 0.0298393 0 0 0 -0.0530004 -0.104959 0.0341868 0 -0.000164368 0 0 0 0 0 0 0 0 0 0 0 0 0 0 0 0 0 1 0.002 
393 11 0.0111973 0.105458 0.0296188 0 0 0 0.200168 0.0111205 -0.010423 0 -0.000164368 0 0 0 0 0 0 0 0 0 0 0 0 0 0 0 0 0 3 0.002 
417 1 0.003064 0.106885 0.0292394 0 0 0 0.00897575 0.11659 0.129401 0 -0.000164368 0 0 0 0 0 0 0 0 0 0 0 0 0 0 0 0 0 2 0.002 
480 3 0.00799656 0.108002 0.029123 0 0 0 0.137256 0.0456681 -0.114722 -0.00100903 -0.0032049 0.00166089 0 0 1 0 0 0 0 0 0 0 0 0 0 0 0 0 2 0.002 
245 1 0.0145117 0.107935 0.0292497 0 0 0 0.018685 -0.0869102 -0.0342568 0 -0.000164368 0 0 0 0 0 0 0 0 0 0 0 0 0 0 0 0 0 2 0.002 
165 4 0.0185123 0.107858 0.0286464 0 0 0 0.0919807 -0.0552763 -0.004482 -0.00465828 0.00122047 0.000196206 0 0 0 1 0 0 0 0 0 0 0 0 0 0 0 0 5 0.002 
474 8 0.0166699 0.0786118 0.0303498 0 0 0 -0.122842 -0.0297399 -0.793527 0 -0.000164368 0 0 0 0 0 0 0 0 0 0 0 0 0 0 0 0 0 0 0.002 
377 4 0.00309098 0.081891 0.0312806 0 0 0 -0.315134 -0.327266 0.519122 -0.0101671 -0.00543211 -0.0175554 0 0 0 1 0 0 0 0 0 0 0 0 0 0 0 0 5 0.002 
337 8 0.00302258 0.0862879 0.0304021 0 0 0 -0.0577205 -0.594332 -0.103197 0 -0.000164368 0 0 0 0 0 0 0 0 0 0 0 0 0 0 0 0 0 9 0.002 
5 3 0.0112438 0.0849907 0.0320904 0 0 0 0.0496418 -0.313498 -0.0632281 0 -0.000164368 0 0 0 0 0 0 0 0 0 0 0 0 0 0 0 0 0 1 0.002 
231 7 0.00683295 0.0877799 0.0314405 0 0 0 -0.0213043 -0.311583 0.0909752 0 -0.000164368 0 0 0 0 0 0 0 0 0 0 0 0 0 0 0 0 0 4 0.002 
29 5 0.01103 0.0911918 0.032453 0 0 0 -0.597734 -0.0665552 -0.0719074 0 -0.000164368 0 0 0 0 0 0 0 0 0 0 0 0 0 0 0 0 0 5 0.002 
453 3 0.00305249 0.100479 0.0316545 0 0 0 0.00564475 -0.0548315 0.0535098 0 -0.000164368 0 0 0 0 0 0 0 0 0 0 0 0 0 0 0 0 0 0 0.002 
457 6 0.00992943 0.0989495 0.0311571 0 0 0 -0.0248413 -0.0847778 0.00459449 0 -0.000164368 0 0 0 0 0 0 0 0 0 0 0 0 0 0 0 0 0 1 0.002 
200 9 0.00649515 0.104687 0.0307674 0 0 0 0.0329299 0.0253529 -0.107432 -0.000203145 -0.00128521 3.02238e-05 0 0 1 0 0 0 0 0 0 0 0 0 0 0 0 0 5 0.002 
317 11 0.0166916 0.104631 0.0303807 0 0 0 0.0664723 -0.0237934 -0.0614761 -0.000663905 -0.000288754 -0.000161743 0 0 0 0 0 0 0 0 0 0 1 0 0 0 0 0 3 0.002 
316 2 0.0100031 0.0770036 0.0327983 0 0 0 0.23776 -0.0818729 0.0226699 0 -0.000164368 0 0 0 0 0 0 0 0 0 0 0 0 0 0 0 0 0 6 0.002 
173 3 0.00617578 0.079997 0.0330203 0 0 0 0.213924 -0.125083 0.12976 -0.0269745 0.0139435 -0.060882 0 0 0 0 0 0 0 0 0 0 0 0 0 0 0 0 3 0.002 
241 6 0.00588065 0.0841227 0.0330174 0 0 0 0.066341 -0.173692 0.0370955 -0.00468256 -0.00827611 -0.0224206 0 0 0 1 0 0 0 0 0 0 0 0 0 0 0 0 5 0.002 
70 6 0.00304632 0.0900917 0.0327198 0 0 0 0.0552748 -0.417166 -0.27792 0 -0.000164368 0 0 0 0 0 0 0 0 0 0 0 0 0 0 0 0 0 4 0.002 
331 7 0.00687342 0.0917064 0.0329586 0 0 0 0.0493676 -0.276704 -0.00954831 0 -0.000164368 0 0 0 0 0 0 0 0 0 0 0 0 0 0 0 0 0 5 0.002 
311 2 0.0153236 0.0924413 0.0324378 0 0 0 -0.174943 1.71729 -0.658672 0 -0.000164368 0 0 0 0 0 0 0 0 0 0 0 0 0 0 0 0 0 3 0.002 
105 3 0.00302217 0.0957231 0.0330081 0 0 0 -0.0293667 -0.225591 -0.0253337 -0.000121542 -0.000285885 -0.00325929 1 0 0 0 0 0 0 0 0 0 0 0 0 0 0 0 5 0.002 
293 1 0.0094626 0.0953165 0.0330019 0 0 0 0.0397753 -0.147463 0.0238223 -0.00209658 0.000429462 -0.00301402 0 0 0 0 1 0 0 0 0 0 0 0 0 0 0 0 10 0.002 
483 1 0.0132946 0.0977564 0.0329638 0 0 0 0.0701898 0.030778 -0.0305121 0 -0.000164368 0 0 0 0 0 0 0 0 0 0 0 0 0 0 0 0 0 2 0.002 
389 5 0.00638037 0.0984339 0.032983 0 0 0 -0.0267798 -0.183881 -0.00207307 0 -0.000164368 0 0 0 0 0 0 0 0 0 0 0 0 0 0 0 0 0 2 0.002 
149 7 0.0169209 0.101189 0.032731 0 0 0 0.0450144 -0.101045 -0.0222796 0 -0.000164368 0 0 0 0 0 0 0 0 0 0 0 0 0 0 0 0 0 13 0.002 
309 1 0.0029998 0.104375 0.0329025 0 0 0 0.00335432 -0.100395 0.06692 -8.3777e-05 -0.000122728 4.55321e-06 0 0 0 0 0 0 0 0 0 0 0 0 0 0 0 0 4 0.002 
216 2 0.009767 0.10364 0.0329294 0 0 0 0.034024 -0.113397 -0.0453068 0 -0.000164368 0 0 0 0 0 0 0 0 0 0 0 0 0 0 0 0 0 5 0.002 
443 1 0.0137922 0.10367 0.0329894 0 0 0 0.0573015 -0.0570452 -0.0268727 0 -0.000164368 0 0 0 0 0 0 0 0 0 0 0 0 0 0 0 0 0 3 0.002 
60 4 0.0130532 0.107713 0.0329853 0 0 0 -0.0692319 -0.0443939 -0.0281968 0 -0.000164368 0 0 0 0 0 0 0 0 0 0 0 0 0 0 0 0 0 3 0.002 
339 4 0.0173714 0.107736 0.0328248 0 0 0 0.00821561 -0.0425811 -0.00286657 0 -0.000164368 0 0 0 0 0 0 0 0 0 0 0 0 0 0 0 0 0 4 0.002 
108 2 0.00502642 0.107831 0.0329945 0 0 0 -0.0697714 -0.0306359 -0.020536 0 -0.000164368 0 0 0 0 0 0 0 0 0 0 0 0 0 0 0 0 0 5 0.002 
254 10 0.00902977 0.107883 0.0329978 0 0 0 -0.051489 0.00380475 -0.0159347 0 -0.000164368 0 0 0 0 0 0 0 0 0 0 0 0 0 0 0 0 0 8 0.002 
355 5 0.00961829 0.0792922 0.014985 0 0 0 0.562328 9.07773 -1.58698 0 -0.000164368 0 0 0 0 0 0 0 0 0 0 0 0 0 0 0 0 0 4 0.002 
462 8 0.00956253 0.0783841 0.0103225 0 0 0 2.19818 -0.506543 4.57715 0 -0.000164368 0 0 0 0 0 0 0 0 0 0 0 0 0 0 0 0 0 2 0.002 
500 5 0.0264914 -0.0440585 -0.0371316 0 0 0 3.98514 -5.60299 6.83896 0 -0.000164368 0 0 0 0 0 0 0 0 0 0 0 0 0 0 0 0 0 0 0.002 
525 1 0.0189046 -0.0575493 -0.00632348 0 0 0 -20.9444 -6.82563 50.6953 0 -0.000164368 0 0 0 0 0 0 0 0 0 0 0 0 0 0 0 0 0 0 0.002 
270 1 0.0202991 0.0512015 -0.0355 0 0 0 2.22516e-308 -8.04937e-20 3.36607e-12 -0 0 0 0 0 0 0 0 0 0 0 0 0 0 0 0 0 0 0 0 0.002 
79 1 0.042681 0.051478 -0.0355 0 0 0 -2.69391e-272 2.03298e-20 5.66825e-13 1.72943e-272 0 0 0 0 0 0 0 0 0 0 0 0 0 0 0 0 0 0 1 0.002 
127 3 0.0250769 0.0534114 -0.0355 0 0 0 7.39337e-295 2.01892e-20 3.36615e-12 2.39486e-294 0 0 0 0 0 0 0 0 0 0 0 0 0 0 0 0 0 0 2 0.002 
276 4 0.0334442 0.0547305 -0.0355 0 0 0 -9.01778e-308 1.42021e-19 -5.61328e-12 9.00561e-308 0 -3.55271e-15 0 0 0 0 0 0 0 0 0 0 0 0 0 0 0 0 0 0.002 
48 3 0.0235006 0.0573261 -0.0355 0 0 0 0 -2.43531e-19 1.11881e-12 -0 -1.35525e-20 0 0 0 0 0 0 0 0 0 0 0 0 0 0 0 0 0 0 0.002 
52 2 0.0282373 0.058442 -0.0355 0 0 0 -6.50457e-42 3.04475e-19 4.47982e-12 -6.51931e-42 0 0 0 0 0 0 0 0 0 0 0 0 0 0 0 0 0 0 0 0.002 
351 1 0.0418461 0.0566894 -0.0355 0 0 0 2.81209e-154 -1.01366e-19 -1.11871e-12 1.54222e-153 1.35525e-20 0 0 0 0 0 0 0 0 0 0 0 0 0 0 0 0 0 0 0.002 
39 3 0.0456445 0.0647322 -0.0355 0 0 0 -1.01354e-125 1.01542e-19 -6.1751e-12 5.11758e-126 -1.35525e-20 0 0 0 0 0 0 0 0 0 0 0 0 0 0 0 0 0 0 0.002 
107 2 0.0265302 0.0567008 -0.0200154 0 0 0 -0.332989 -0.911601 2.7033 0 -0.000164368 0 0 0 0 0 0 0 0 0 0 0 0 0 0 0 0 0 5 0.002 
489 10 0.0474183 0.06227 -0.0207508 0 0 0 0.0369492 -1.62316 -1.57059 0 -0.000164368 0 0 0 0 0 0 0 0 0 0 0 0 0 0 0 0 0 1 0.002 
240 1 0.04609 0.066063 -0.00310249 0 0 0 -8.87478 5.1819 -25.0242 0 -0.000164368 0 0 0 0 0 0 0 0 0 0 0 0 0 0 0 0 0 2 0.002 
257 6 0.0418337 0.0582694 -0.00357727 0 0 0 -0.219388 -0.95089 -0.951925 0 -0.000164368 0 0 0 0 0 0 0 0 0 0 0 0 0 0 0 0 0 2 0.002 
290 2 0.0224681 0.0669187 -0.00384069 0 0 0 -0.11652 -1.17725 -2.57527 0 -0.000164368 0 0 0 0 0 0 0 0 0 0 0 0 0 0 0 0 0 4 0.002 
455 1 0.0451365 0.0542924 -0.0159675 0 0 0 34.3894 -8.62998 -109.913 0 -0.000164368 0 0 0 0 0 0 0 0 0 0 0 0 0 0 0 0 0 3 0.002 
4 6 0.0279983 0.0686181 0.00142881 0 0 0 2.42327 0.63478 -1.39049 0 -0.000164368 0 0 0 0 0 0 0 0 0 0 0 0 0 0 0 0 0 3 0.002 
438 2 0.0423184 0.0724598 0.00639798 0 0 0 -0.34919 -0.136106 0.00567445 0 -0.000164368 0 0 0 0 0 0 0 0 0 0 0 0 0 0 0 0 0 4 0.002 
146 9 0.0474262 0.0404063 -0.00817127 0 0 0 -0.000105292 -16.3426 -80.8126 -8.53866e-08 -2.70806 0.547645 0 0 0 0 0 0 0 0 0 0 0 0 0 0 0 0 0 0.002 
386 1 0.0392415 0.0549687 0.0125797 0 0 0 -0.194645 -2.25781 0.224505 0 -0.000164368 0 0 0 0 0 0 0 0 0 0 0 0 0 0 0 0 0 1 0.002 
541 6 0.020378 0.0393294 0.0186669 0 0 0 2 -1.04905 -0.0001 0 -0.000164368 0 0 0 0 0 0 0 0 0 0 0 0 0 0 0 0 0 0 0.002 
116 1 0.0273494 0.0712519 0.0233739 0 0 0 0.143118 -1.64787 2.46576 0 -0.000164368 0 0 0 0 0 0 0 0 0 0 0 0 0 0 0 0 0 3 0.002 
378 2 0.0463956 0.0674994 0.0250314 0 0 0 -0.594067 -0.185205 0.609229 0 -0.000164368 0 0 0 0 0 0 0 0 0 0 0 0 0 0 0 0 0 1 0.002 
458 3 0.0425936 0.0606681 0.0699508 0 0 0 -0.0627732 -0.991604 0.394413 0 -0.000164368 0 0 0 0 0 0 0 0 0 0 0 0 0 0 0 0 0 1 0.002 
54 6 0.0361813 0.0621539 0.0263057 0 0 0 0.21005 -0.581646 -0.691978 0 -0.000164368 0 0 0 0 0 0 0 0 0 0 0 0 0 0 0 0 0 1 0.002 
62 2 0.0277888 0.0568923 0.033196 0 0 0 -1.85605 1.13916 4.51792 1.15728 -0.0933626 -2.32206 0 0 0 0 0 0 0 0 0 0 0 0 0 0 0 0 4 0.002 
218 4 0.0342427 0.0542638 0.0290594 0 0 0 0.789805 -0.00482294 0.623617 0 -0.000164368 0 0 0 0 0 0 0 0 0 0 0 0 0 0 0 0 0 6 0.002 
139 6 0.040786 0.0528307 0.0303399 0 0 0 -0.0131442 -2.39152 0.451435 0 -0.000164368 0 0 0 0 0 0 0 0 0 0 0 0 0 0 0 0 0 6 0.002 
342 4 0.0376312 0.0601169 0.0322643 0 0 0 -0.584342 -0.0381891 -0.328993 0 -0.000164368 0 0 0 0 0 0 0 0 0 0 0 0 0 0 0 0 0 4 0.002 
537 1 0.027967 0.0626137 0.0318063 0 0 0 -1.53145 -2.19597 -0.567417 0 -0.000164368 0 0 0 0 0 0 0 0 0 0 0 0 0 0 0 0 0 0 0.002 
439 1 0.0429626 0.0669429 0.0326264 0 0 0 -0.570097 0.214868 0.295931 0 -0.000164368 0 0 0 0 0 0 0 0 0 0 0 0 0 0 0 0 0 2 0.002 
318 4 0.0416163 0.0732933 0.0308883 0 0 0 0.536111 -0.231098 -0.50225 0 -0.000164368 0 0 0 0 0 0 0 0 0 0 0 0 0 0 0 0 0 1 0.002 
53 3 0.0201222 0.0723926 0.0329624 0 0 0 0.0630444 -0.400909 0.00419218 0 -0.000164368 0 0 0 0 0 0 0 0 0 0 0 0 0 0 0 0 0 3 0.002 
301 5 0.0373721 0.0997278 -0.0315834 0 0 0 1.31517 -1.912 0.669586 0 -0.000164368 0 0 0 0 0 0 0 0 0 0 0 0 0 0 0 0 0 1 0.002 
329 7 0.0463327 0.0997711 -0.0277219 0 0 0 0.286898 -0.802375 8.14895 0 -0.000164368 0 0 0 0 0 0 0 0 0 0 0 0 0 0 0 0 0 2 0.002 
519 1 0.0410161 0.101963 -0.0319464 0 0 0 -3.08428 1.88647 0.675057 0 -0.000164368 0 0 0 0 0 0 0 0 0 0 0 0 0 0 0 0 0 0 0.002 
189 5 0.0438089 0.105928 -0.0320416 0 0 0 1.47394 1.6221 0.130003 0 -0.000164368 0 0 0 0 0 0 0 0 0 0 0 0 0 0 0 0 0 4 0.002 
535 3 0.0469991 0.107589 -0.0295953 0 0 0 0.54873 0.379123 0.0341805 0.00637407 -0.0199379 -0.0312788 0 0 1 0 0 0 0 0 0 0 0 0 0 0 0 0 1 0.002 
540 4 0.0231824 0.0920061 -0.0269254 0 0 0 -2.22221 6.94594 1.52233 0 -0.000164368 0 0 0 0 0 0 0 0 0 0 0 0 0 0 0 0 0 0 0.002 
502 6 0.0205524 0.10189 -0.0294882 0 0 0 -0.953615 3.24217 4.6931 -0.0176579 0.100296 0.0534129 0 0 0 0 0 1 0 0 0 0 0 0 0 0 0 0 1 0.002 
373 7 0.0450318 0.104276 -0.0280632 0 0 0 -0.831235 2.9565 2.50147 0 -0.000164368 0 0 0 0 0 0 0 0 0 0 0 0 0 0 0 0 0 0 0.002 
410 6 0.0417445 0.0763604 -0.0214692 0 0 0 -1.33926 -8.92548 8.05609 0 -0.000164368 0 0 0 0 0 0 0 0 0 0 0 0 0 0 0 0 0 2 0.002 
123 8 0.0196618 0.101165 -0.0259427 0 0 0 -4.66655 0.144863 12.04 0.0176579 -0.100624 -0.0534129 0 0 0 0 0 1 0 0 0 0 0 0 0 0 0 0 7 0.002 