ITEM: TIMESTEP
9650000
ITEM: NUMBER OF ATOMS
17116
ITEM: BOX BOUNDS ff ff ff
-0.01 0.45
-0.15 0.15
-0.08 0.1
ITEM: ATOMS id type x y z ix iy iz vx vy vz fx fy fz c_cc_1 c_cc_2 c_cc_3 c_cc_4 c_cc_5 c_cc_6 c_cc_7 c_cc_8 c_cc_9 c_cc_10 c_cc_11 c_cc_12 c_cc_13 c_cc_14 c_cc_15 c_cc_16 f_fppacc radius c_cc_17 
17917 3 0.035284 -0.0149946 -0.0589378 0 0 0 0.205116 -0.533792 0.190969 0 -1.05196e-05 0 0 0 0 0 0 0 0 0 0 0 0 0 0 0 0 0 0 0.0008 0 
13958 11 0.0229669 -0.0278026 -0.0520123 0 0 0 -6.25981 -41.5867 15.1383 0.0457861 -0.190039 0.0871402 0 0 0 0 0 0 0 0 0 0 1 0 0 0 0 0 32 0.0008 0 
443 12 0.0294567 -0.0152901 -0.0569567 0 0 0 1.00719 -13.8539 5.56542 0.000271858 -0.00567323 -0.00398873 0 0 0 0 0 0 0 0 0 0 0 0 0 0 0 0 49 0.0008 0 
18321 7 0.0130452 -0.0270921 -0.0522172 0 0 0 4.58117 -13.1762 7.45365 0 -1.05196e-05 0 0 0 0 0 0 0 0 0 0 0 0 0 0 0 0 0 0 0.0008 0 
18029 7 0.0227836 -0.0266443 -0.0526857 0 0 0 -4.30095 -25.3346 23.971 -0.00435382 0.162975 -0.0423254 0 0 0 0 0 0 0 0 0 0 1 0 0 0 0 0 1 0.0008 0 
702 2 0.0139612 -0.0306851 -0.0527925 0 0 0 0.0786056 -0.459418 0.227577 0 -1.05196e-05 0 0 0 0 0 0 0 0 0 0 0 0 0 0 0 0 0 64 0.0008 0 
2108 4 0.0110855 -0.0332507 -0.0511544 0 0 0 0.0204253 -0.380944 0.313397 0 -1.05196e-05 0 0 0 0 0 0 0 0 0 0 0 0 0 0 0 0 0 62 0.0008 0 
15222 7 0.00389462 -0.0289389 -0.0490966 0 0 0 1.63539 -5.86377 4.02353 0 -1.05196e-05 0 0 0 0 0 0 0 0 0 0 0 0 0 0 0 0 0 24 0.0008 0 
18001 5 0.0161154 -0.0351378 -0.0495113 0 0 0 -0.0097913 -0.470113 0.395627 0 -1.05196e-05 0 0 0 0 0 0 0 0 0 0 0 0 0 0 0 0 0 0 0.0008 0 
17720 5 0.0178865 -0.0374612 -0.0479099 0 0 0 0.0926613 -0.524392 0.37107 0 -1.05196e-05 0 0 0 0 0 0 0 0 0 0 0 0 0 0 0 0 0 0 0.0008 0 
18406 2 0.00802958 -0.0303453 -0.0480299 0 0 0 1.16162 -3.39931 2.18407 0 -1.05196e-05 0 0 0 0 0 0 0 0 0 0 0 0 0 0 0 0 0 0 0.0008 0 
5660 8 0.00813391 -0.0306918 -0.0452721 0 0 0 -0.92943 -10.357 1.20763 0 -1.05196e-05 0 0 0 0 0 0 0 0 0 0 0 0 0 0 0 0 0 92 0.0008 0 
15808 5 0.012849 -0.0448576 -0.0379497 0 0 0 -0.164995 -11.8393 14.4936 0 -1.05196e-05 0 0 0 0 0 0 0 0 0 0 0 0 0 0 0 0 0 24 0.0008 0 
7489 2 0.0240882 -0.0389122 -0.0436554 0 0 0 0.986686 -1.98346 1.86827 0 -1.05196e-05 0 0 0 0 0 0 0 0 0 0 0 0 0 0 0 0 0 56 0.0008 0 
18135 4 0.0190321 -0.0428993 -0.0403256 0 0 0 0.441231 -4.31505 5.27427 0 -1.05196e-05 0 0 0 0 0 0 0 0 0 0 0 0 0 0 0 0 0 0 0.0008 0 
11833 8 0.0251451 -0.0442267 -0.0380412 0 0 0 1.86087 -3.67079 5.79086 0 -1.05196e-05 0 0 0 0 0 0 0 0 0 0 0 0 0 0 0 0 0 49 0.0008 0 
14052 3 0.032285 -0.0432624 -0.0400062 0 0 0 1.60958 -3.73316 4.54235 0 -1.05196e-05 0 0 0 0 0 0 0 0 0 0 0 0 0 0 0 0 0 23 0.0008 0 
5429 1 0.026774 -0.0503154 -0.0299232 0 0 0 -11.2901 -10.2013 20.9796 0 -1.05196e-05 0 0 0 0 0 0 0 0 0 0 0 0 0 0 0 0 0 729 0.0008 0 
9482 7 0.0421268 -0.0495451 -0.0307797 0 0 0 3.04904 -12.1157 16.7976 0 -1.05196e-05 0 0 0 0 0 0 0 0 0 0 0 0 0 0 0 0 0 45 0.0008 0 
16419 4 0.0234927 -0.0531962 -0.0246642 0 0 0 6.1969 -8.59062 17.1595 0 -1.05196e-05 0 0 0 0 0 0 0 0 0 0 0 0 0 0 0 0 0 9 0.0008 0 
11852 5 0.0100005 -0.0534541 -0.0249738 0 0 0 0.690712 -5.72532 10.383 0 -1.05196e-05 0 0 0 0 0 0 0 0 0 0 0 0 0 0 0 0 0 34 0.0008 0 
17453 12 0.0384555 -0.0543697 -0.027942 0 0 0 -0.203224 -0.0465921 0.0752488 2.0522e-17 -2.08228e-06 3.363e-06 0 0 0 0 0 0 0 0 0 0 0 0 0 0 0 0 2 0.0008 0 
11928 2 0.025679 -0.0298162 -0.0169558 0 0 0 0.454365 -18.2441 11.4247 0 -1.05196e-05 0 0 0 0 0 0 0 0 0 0 0 0 0 0 0 0 0 33 0.0008 0 
14539 6 0.00204285 -0.0569797 -0.0216023 0 0 0 0.0528231 0.0146239 -0.0377486 -2.26984e-19 -9.80505e-07 2.53098e-06 0 0 0 0 0 0 0 0 0 0 0 0 0 0 0 0 2 0.0008 0 
18439 6 0.0418623 -0.0564475 -0.0158901 0 0 0 -2.63377 -2.14842 7.62684 0 -1.05196e-05 0 0 0 0 0 0 0 0 0 0 0 0 0 0 0 0 0 0 0.0008 0 
11044 4 0.0186555 -0.060557 0.00767187 0 0 0 0.00374336 -0.00036547 -0.0012655 -2.09377e-05 -4.25138e-06 4.8921e-06 0 0 0 3 0 0 0 0 0 0 0 0 0 0 0 0 58 0.0008 0 
13923 7 0.00105684 -0.0580058 -0.0189536 0 0 0 0.0114487 -0.00397962 0.0102726 1.88605e-18 -9.80505e-07 2.53098e-06 0 0 0 0 0 0 0 0 0 0 0 0 0 0 0 0 18 0.0008 0 
14527 2 0.00151935 -0.0586438 -0.0173067 0 0 0 -0.0164652 -0.00626745 0.0161782 -4.73922e-06 -9.1655e-07 2.36589e-06 0 0 0 0 0 0 0 0 0 0 0 0 0 0 0 0 13 0.0008 0 
5801 6 0.0292647 -0.0585949 -0.0174329 0 0 0 0.124575 -0.0297474 0.0767867 -2.70761e-18 -9.80505e-07 2.53098e-06 0 0 0 0 0 0 0 0 0 0 0 0 0 0 0 0 37 0.0008 0 
15413 7 0.0278859 -0.0587736 -0.00414398 0 0 0 -3.99785 -3.26002 24.5467 0 -1.05196e-05 0 0 0 0 0 0 0 0 0 0 0 0 0 0 0 0 0 20 0.0008 0 
817 1 0.0422574 -0.057806 -0.0105289 0 0 0 -0.87022 -1.0882 12.3573 0 -1.05196e-05 0 0 0 0 0 0 0 0 0 0 0 0 0 0 0 0 0 83 0.0008 0 
2966 5 0.0197871 -0.0603493 0.00878309 0 0 0 0.00182031 0.000172837 0.000524508 -4.65435e-06 2.89956e-06 8.98575e-06 0 0 0 1 3 0 0 0 0 0 0 0 0 0 0 0 69 0.0008 0 
10666 7 0.0429657 -0.0603976 0.00852465 0 0 0 -0.0108166 -0.000984745 -0.00526567 1.23532e-12 -2.46943e-07 -1.35843e-06 0 0 0 0 0 0 0 0 0 0 0 0 0 0 0 0 71 0.0008 0 
5191 1 0.0364274 -0.0603974 0.0085256 0 0 0 -0.00747725 0.00162965 0.00871783 -2.86873e-19 -2.53692e-07 -1.35713e-06 0 0 0 0 0 0 0 0 0 0 0 0 0 0 0 0 84 0.0008 0 
1937 15 0.0272244 -0.0605112 0.00791698 0 0 0 -0.0029472 0.00023877 0.00127731 1.09957e-18 -2.53692e-07 -1.35713e-06 0 0 0 0 0 0 0 0 0 0 0 0 0 0 0 0 88 0.0008 0 
7843 6 0.0171065 -0.0604838 0.0080634 0 0 0 0.00302771 -9.70129e-05 0.000936189 -1.60572e-05 8.46696e-07 -2.01372e-06 0 0 0 1 0 1 0 0 0 0 0 0 0 0 0 0 49 0.0008 0 
3081 3 0.00784324 -0.0605547 0.00768433 0 0 0 -0.000743276 -9.03889e-05 -0.000598233 -2.3431e-08 -6.8024e-08 -1.38283e-06 0 0 0 0 0 0 0 0 0 0 0 0 0 0 0 0 95 0.0008 0 
1223 3 0.0358982 -0.0608022 0.00636034 0 0 0 -0.000192508 0.000594461 0.00319145 -2.50045e-13 -3.9464e-07 -1.32948e-06 0 0 0 0 0 0 0 0 0 0 0 0 0 0 0 0 96 0.0008 0 
10366 1 0.033074 -0.0608408 0.0061537 0 0 0 0.00199657 -0.000549599 -0.00177188 2.18884e-06 8.55333e-07 -2.5029e-06 0 0 0 0 0 0 0 0 0 0 0 0 0 0 0 0 90 0.0008 0 
6574 6 0.0159839 -0.0606944 0.00693682 0 0 0 0.000615152 -0.000256082 -0.000101272 1.28032e-05 -5.28686e-06 -1.40494e-05 0 0 0 0 0 3 0 0 0 0 0 0 0 0 0 0 77 0.0008 0 
12 4 0.00874471 -0.0607976 0.00638494 0 0 0 -7.54792e-05 -0.00013295 -0.000519898 -3.93189e-06 3.98195e-07 -3.9175e-06 0 0 0 3 0 0 0 0 0 0 0 0 0 0 0 0 127 0.0008 0 
1890 2 0.0148671 -0.0609055 0.00580769 0 0 0 0.000518493 -3.76421e-05 -0.000745555 -2.64565e-06 1.33587e-07 -3.01331e-06 0 1 0 0 0 0 0 0 0 0 0 0 0 0 0 0 86 0.0008 0 
210 4 0.00218794 -0.0608983 0.00584644 0 0 0 -0.000129259 8.18257e-06 -5.13947e-05 -3.59957e-07 4.09767e-07 4.6227e-07 0 0 0 1 0 0 0 0 0 0 0 0 0 0 0 0 155 0.0008 0 
3641 12 0.0420827 -0.0609356 0.00549455 0 0 0 -0.00527667 -1.29914e-06 -0.00324225 1.91638e-12 3.52008e-08 1.07914e-12 0 0 0 0 0 0 0 0 0 0 0 0 0 0 0 0 86 0.0008 0 
6387 7 0.0331188 -0.0609356 0.00455712 0 0 0 0.000701166 -2.85422e-05 -0.00168043 4.267e-09 2.80778e-07 -5.59046e-09 0 0 0 0 0 0 0 0 0 0 0 0 0 0 0 0 99 0.0008 0 
16349 4 0.00241929 -0.0591174 -0.0153731 0 0 0 -0.0700765 0.00400332 -0.0214158 -5.15512e-06 -4.27744e-07 2.28823e-06 0 0 0 0 0 0 0 0 0 0 0 0 0 0 0 0 0 0.0008 0 
7967 9 0.00785203 -0.0590994 -0.0154693 0 0 0 0.0772457 -0.0112527 0.0601965 9.97244e-18 -2.53692e-07 1.35713e-06 0 0 0 0 0 0 0 0 0 0 0 0 0 0 0 0 72 0.0008 0 
18020 5 0.0297227 -0.059141 -0.015247 0 0 0 0.0414787 0.00827701 -0.044278 1.1315e-18 -2.53692e-07 1.35713e-06 0 0 0 0 0 0 0 0 0 0 0 0 0 0 0 0 0 0.0008 0 
17424 1 0.0414228 -0.0589723 -0.0156933 0 0 0 0.220738 -0.0116516 0.132956 0 -1.05196e-05 0 0 0 0 0 0 0 0 0 0 0 0 0 0 0 0 0 0 0.0008 0 
17627 1 0.0438178 -0.0592417 -0.0146423 0 0 0 0.25165 -0.0192066 0.0906209 0 -1.05196e-05 0 0 0 0 0 0 0 0 0 0 0 0 0 0 0 0 0 0 0.0008 0 
10637 1 0.0230797 -0.0337975 -0.0336029 0 0 0 0.0707298 -67.2558 67.3652 -0.00276904 0.145125 0.146579 6 0 0 0 0 0 0 0 0 0 0 0 0 0 0 0 187 0.0008 0 
10725 10 0.021951 -0.0332214 -0.0314169 0 0 0 -0.027102 -62.8021 66.5714 -6.06558e-05 0.143291 0.134751 0 0 0 0 0 0 0 0 0 7 0 0 0 0 0 0 388 0.0008 0 
3488 2 0.0210069 -0.0379533 -0.0355855 0 0 0 0.00251004 -71.2536 75.6284 -0.00475481 0.162114 0.148758 0 3 0 0 0 0 0 0 0 0 0 0 0 0 0 0 325 0.0008 0 
3437 2 0.02014 -0.0364402 -0.0330518 0 0 0 -0.0473981 -66.1174 72.8822 4.00609e-05 0.156358 0.142036 0 3 0 0 0 0 0 0 0 0 0 0 0 0 0 0 548 0.0008 0 
1299 8 0.0214767 -0.0316502 -0.0279013 0 0 0 0.0410122 -55.8223 63.2573 0.00013309 0.135512 0.119473 0 0 0 0 0 0 0 4 0 0 0 0 0 0 0 0 668 0.0008 0 
7518 5 0.0207602 -0.0333932 -0.0286668 0 0 0 0.0157028 -57.4507 66.6147 5.73544e-05 0.142487 0.123354 0 0 0 0 7 0 0 0 0 0 0 0 0 0 0 0 395 0.0008 0 
8682 5 0.00495392 -0.0603067 0.00901114 0 0 0 -0.000240344 -9.96872e-05 -0.000165144 -2.18451e-07 -8.95227e-08 -6.50894e-07 0 0 0 0 2 0 0 0 0 0 0 0 0 0 0 0 59 0.0008 0 
9563 9 0.0343761 -0.0606618 0.0071115 0 0 0 0.010067 -0.003211 -0.0171793 9.81588e-13 -2.47107e-07 -1.35844e-06 0 0 0 0 0 0 0 0 0 0 0 0 0 0 0 0 90 0.0008 0 
10606 8 0.0210253 -0.0605354 0.0077873 0 0 0 0.0008426 -0.000132563 -0.000280862 5.6049e-06 -9.50422e-07 -1.0505e-06 0 0 0 0 1 0 0 0 0 0 0 0 0 0 0 0 61 0.0008 0 
11423 4 0.0258326 -0.0606588 0.0071272 0 0 0 -0.00290923 -0.000114331 -0.000611617 -6.44944e-18 -2.53692e-07 -1.35713e-06 0 0 0 0 0 0 0 0 0 0 0 0 0 0 0 0 44 0.0008 0 
3998 3 0.011407 -0.060664 0.00709983 0 0 0 -0.00366598 -0.000913435 -0.00376674 -9.6552e-07 -1.93326e-06 -2.15228e-06 0 0 2 0 0 0 0 0 0 0 0 0 0 0 0 0 105 0.0008 0 
6601 1 0.0406466 -0.0608229 0.00624974 0 0 0 -0.010411 -0.00065517 -0.00350641 -8.25269e-13 -2.61719e-07 -1.35558e-06 0 0 0 0 0 0 0 0 0 0 0 0 0 0 0 0 101 0.0008 0 
4050 3 0.00633948 -0.0604537 0.00822471 0 0 0 -0.000397706 -3.62534e-05 -0.000530616 -2.17582e-07 8.7101e-08 8.84002e-07 0 0 2 0 1 0 0 0 0 0 0 0 0 0 0 0 50 0.0008 0 
9441 6 0.00496426 -0.0606048 0.00741623 0 0 0 -0.000266443 -9.74453e-05 -8.63328e-05 2.96645e-07 -5.75955e-08 1.07028e-06 0 0 0 0 0 1 0 0 0 0 0 0 0 0 0 0 100 0.0008 0 
4654 2 0.0389934 -0.0609232 0.00571279 0 0 0 0.00451366 -0.00134599 -0.00722663 5.85677e-12 -1.98031e-07 -1.3683e-06 0 0 0 0 0 0 0 0 0 0 0 0 0 0 0 0 116 0.0008 0 
2951 1 0.0316684 -0.0607004 0.00690467 0 0 0 0.00331777 0.000516895 4.92751e-05 -1.06609e-05 1.53204e-06 2.89442e-06 1 0 0 0 0 0 0 0 0 0 0 0 0 0 0 0 91 0.0008 0 
5313 7 0.0229746 -0.0608958 0.00585934 0 0 0 0.000385602 -0.000100891 2.03385e-05 8.97321e-06 -1.15522e-06 -6.77553e-08 0 0 0 0 0 0 4 0 0 0 0 0 0 0 0 0 52 0.0008 0 
9210 2 0.0129581 -0.0607358 0.00671574 0 0 0 -0.00251467 -0.000100154 -0.00225519 8.46158e-06 3.99276e-06 1.00459e-05 0 2 1 0 0 0 0 0 0 0 0 0 0 0 0 0 76 0.0008 0 
2641 8 0.000800053 -0.0607503 0.00663802 0 0 0 -0.00123802 -1.02618e-05 -3.23703e-05 1.26414e-07 9.86789e-08 4.88704e-07 0 0 0 0 0 0 0 2 0 0 0 0 0 0 0 0 193 0.0008 0 
1352 4 0.0317084 -0.0609356 0.00532228 0 0 0 -0.000280727 -2.83377e-08 0.000334656 1.20383e-14 -8.74139e-09 1.86957e-14 0 0 0 0 0 0 0 0 0 0 0 0 0 0 0 0 89 0.0008 0 
18520 1 0.00525825 -0.00255284 -0.0560191 0 0 0 1.94871 -18.9762 -0.749816 0 -3.55035e-05 0 0 0 0 0 0 0 0 0 0 0 0 0 0 0 0 0 0 0.0012 0 
7750 3 0.0273801 -0.0609357 0.00475076 0 0 0 -0.00144826 0.000333765 -0.00491086 -4.36112e-06 1.40079e-05 2.03786e-05 0 0 2 0 0 0 0 0 0 0 0 0 0 0 0 0 54 0.0008 0 
163 1 0.0259991 -0.0609356 0.00555948 0 0 0 0.00210577 -5.8252e-05 0.00260649 4.48976e-07 4.61164e-07 -5.79825e-07 1 0 0 0 0 0 0 0 0 0 0 0 0 0 0 0 75 0.0008 0 
4298 7 0.021853 -0.0609356 0.00471895 0 0 0 0.000341033 0.000112165 -0.000314359 -2.30053e-06 -4.35179e-08 4.28011e-06 0 0 0 0 0 0 1 0 0 0 0 0 0 0 0 0 68 0.0008 0 
1903 4 0.0304352 -0.0594559 -0.0135624 0 0 0 -0.0394417 0.00868127 -0.0464334 -7.04102e-07 -2.15093e-07 1.12887e-06 0 0 0 0 0 0 0 0 0 0 0 0 0 0 0 0 84 0.0008 0 
8427 2 0.0242166 -0.0339478 -0.0361134 0 0 0 4.55232 -75.9158 70.4123 -0.23082 0.321204 -0.0853136 0 5 0 0 0 0 0 0 0 0 0 0 0 0 0 0 118 0.0008 0 
10493 4 0.0249951 -0.0295577 -0.0310318 0 0 0 0.0598574 -62.0021 59.0914 -9.14706e-05 0.126552 0.132663 0 0 0 4 0 0 0 0 0 0 0 0 0 0 0 0 222 0.0008 0 
6228 2 0.023934 -0.0312704 -0.0316698 0 0 0 -0.0291141 -63.3705 62.5707 -8.74729e-05 0.134216 0.134354 0 5 0 0 0 0 0 0 0 0 0 0 0 0 0 0 304 0.0008 0 
6430 3 0.0223974 -0.0343564 -0.0340253 0 0 0 -0.0589968 -67.9911 68.9255 0.000400382 0.148539 0.144652 1 0 6 0 0 0 0 0 0 0 0 0 0 0 0 0 491 0.0008 0 
2549 2 0.0217193 -0.0368967 -0.0352702 0 0 0 0.01484 -70.595 73.6908 -0.000721286 0.156332 0.150463 0 4 0 0 0 0 0 0 0 0 0 0 0 0 0 0 536 0.0008 0 
500 6 0.0235844 -0.0311615 -0.0305188 0 0 0 0.00660568 -61.0989 62.2089 0.000755066 0.133505 0.131319 0 1 0 0 0 3 0 0 0 0 0 0 0 0 0 0 580 0.0008 0 
7671 3 0.0208702 -0.0381869 -0.0364704 0 0 0 -0.142336 -72.7308 76.312 0.0180497 0.150579 0.179618 0 1 3 0 0 0 0 0 0 0 0 0 0 0 0 0 364 0.0008 0 
3831 9 0.0200779 -0.0384492 -0.0359561 0 0 0 -0.331027 -71.5823 76.9781 0.0106601 0.141184 0.183633 0 1 1 0 0 0 0 0 1 0 0 0 0 0 0 0 489 0.0008 0 
1300 2 0.0206565 -0.0370204 -0.0349651 0 0 0 -0.00252246 -69.8533 74.1616 -0.000957386 0.158199 0.147454 0 4 0 0 0 0 0 0 0 0 0 0 0 0 0 0 264 0.0008 0 
8933 4 0.0217768 -0.0316531 -0.0288302 0 0 0 0.0544386 -57.5447 63.3948 0.000178906 0.13625 0.122877 0 0 0 3 0 0 0 1 0 0 0 0 0 0 0 0 355 0.0008 0 
7147 3 0.0203511 -0.035687 -0.0319802 0 0 0 0.00877632 -63.961 71.3677 0.000190543 0.15314 0.137217 0 1 4 0 0 0 0 0 0 0 0 0 0 0 0 0 468 0.0008 0 
4081 6 0.0210436 -0.0323999 -0.0286289 0 0 0 0.0309959 -57.2696 64.9249 0.000697007 0.138037 0.123654 0 0 0 1 1 2 0 1 0 0 0 0 0 0 0 0 556 0.0008 0 
9988 7 0.0304339 -0.0601533 0.00982888 0 0 0 0.0107754 0.0017663 0.00657268 0 -1.05196e-05 0 0 0 0 0 0 0 0 0 0 0 0 0 0 0 0 0 28 0.0008 0 
12900 3 0.041516 -0.060253 0.00929813 0 0 0 0.00512787 -0.00370155 -0.0198015 3.83972e-20 -2.53692e-07 -1.35713e-06 0 0 0 0 0 0 0 0 0 0 0 0 0 0 0 0 49 0.0008 0 
13214 1 0.0121094 -0.0601687 0.00974926 0 0 0 0.000416622 -0.000145042 -0.000947401 1.72692e-07 -4.90869e-08 -1.38158e-06 1 0 0 0 0 0 0 0 0 0 0 0 0 0 0 0 11 0.0008 0 
604 2 0.0241418 -0.0602487 0.00932115 0 0 0 0.001713 -0.000259161 -0.00150393 -3.5799e-07 1.06978e-07 6.14552e-07 0 2 0 0 0 0 0 0 0 0 0 0 0 0 0 0 71 0.0008 0 
10425 1 0.000800001 -0.0601623 0.00978334 0 0 0 7.60253e-05 -1.3546e-05 -4.91845e-05 1.65227e-07 3.95352e-07 6.51621e-07 2 0 0 0 0 0 0 0 0 0 0 0 0 0 0 0 67 0.0008 0 
13018 4 0.0224971 -0.0603146 0.00896846 0 0 0 -1.40956e-05 1.96734e-05 -1.34808e-05 -5.54325e-07 4.55116e-07 4.76112e-07 0 0 0 3 0 0 0 0 0 0 0 0 0 0 0 0 28 0.0008 0 
11745 5 0.0446023 -0.0603275 0.00889568 0 0 0 0.00906201 0.000730489 -0.00588386 2.2716e-06 -1.33658e-05 2.9592e-06 0 0 0 0 1 0 0 0 0 0 0 0 0 0 0 0 42 0.0008 0 
3491 3 0.0140103 -0.0603352 0.00885344 0 0 0 -0.000672443 -0.00154689 -0.0102741 -1.27489e-05 -1.27434e-06 2.10264e-05 0 0 2 0 0 0 0 0 0 0 0 0 0 0 0 0 53 0.0008 0 
6135 3 0.0456959 -0.0605439 0.00774189 0 0 0 0.00586751 -0.00128263 -0.00771135 -4.58665e-05 9.41775e-06 7.95675e-06 0 0 1 0 0 0 0 0 0 0 0 0 0 0 0 0 51 0.0008 0 
12874 9 0.010991 -0.060379 0.00862423 0 0 0 -0.00430035 0.000517051 0.00237272 -8.28979e-08 9.89216e-07 6.20218e-06 0 0 0 0 0 0 0 0 2 0 0 0 0 0 0 0 36 0.0008 0 
12475 3 0.0394056 -0.0606277 0.00729385 0 0 0 0.00288381 -0.00301074 -0.016106 1.23339e-19 -2.53692e-07 -1.35713e-06 0 0 0 0 0 0 0 0 0 0 0 0 0 0 0 0 78 0.0008 0 
6782 5 0.0243375 -0.0605405 0.00776028 0 0 0 0.00070585 -0.000289646 -0.00149795 -3.9132e-07 -1.08292e-08 2.4152e-07 0 1 0 0 0 0 0 0 0 0 0 0 0 0 0 0 52 0.0008 0 
1165 1 0.00357962 -0.0604572 0.00820581 0 0 0 -0.000183263 2.2259e-05 6.70276e-06 -2.23886e-07 2.06638e-08 -4.34294e-07 1 0 0 0 1 0 0 0 0 0 0 0 0 0 0 0 173 0.0008 0 
11656 4 0.0155568 -0.0604111 0.00845233 0 0 0 0.000165718 -0.00102309 -0.0055674 -1.44431e-05 7.66514e-06 2.20713e-05 0 0 1 0 0 2 0 0 0 0 0 0 0 0 0 0 58 0.0008 0 
5900 8 0.0144339 -0.0606215 0.00732692 0 0 0 -0.000158766 -0.000173096 -0.000871195 1.37829e-06 -1.82448e-07 3.66466e-07 0 0 0 0 0 1 0 0 0 0 0 0 0 0 0 0 66 0.0008 0 
1541 1 0.00986252 -0.0605873 0.00750976 0 0 0 -0.00210469 0.000143337 0.000168784 -6.249e-06 2.81418e-06 -1.51355e-06 1 0 1 1 0 0 0 0 1 0 0 0 0 0 0 0 89 0.0008 0 
3865 4 0.00219104 -0.0606043 0.0074191 0 0 0 -0.000312277 6.12027e-05 3.30376e-05 -7.77476e-07 -6.91066e-09 1.17583e-06 0 0 0 2 0 0 0 0 0 0 0 0 0 0 0 0 148 0.0008 0 
6486 2 0.0467739 -0.0607618 0.00657398 0 0 0 -0.00257733 0.000448619 -0.0110708 0 -1.05196e-05 0 0 0 0 0 0 0 0 0 0 0 0 0 0 0 0 0 90 0.0008 0 
5618 7 0.0436338 -0.0608886 0.00589876 0 0 0 -0.00513285 -0.000903793 -0.00386084 -3.15308e-06 8.37282e-06 2.2437e-06 0 0 0 0 0 0 3 0 0 0 0 0 0 0 0 0 111 0.0008 0 
4248 10 0.0102889 -0.0608746 0.00597301 0 0 0 0.000191058 -4.12774e-05 -0.000192513 -2.09966e-07 2.91688e-07 8.99587e-07 0 0 0 0 0 0 0 0 0 1 0 0 0 0 0 0 140 0.0008 0 
2843 9 0.030296 -0.0608514 0.00609643 0 0 0 0.00317969 -0.000583402 -0.00145175 6.18482e-06 -4.65338e-06 3.86705e-06 1 0 0 0 0 0 0 0 1 0 0 0 0 0 0 0 95 0.0008 0 
1039 2 0.0214291 -0.0608199 0.00626541 0 0 0 0.00199294 -0.000309485 -0.00170551 2.06316e-05 1.02478e-06 -1.12999e-05 0 2 0 0 0 0 1 0 0 0 0 0 0 0 0 0 83 0.0008 0 
9120 7 0.0274128 -0.0608051 0.0063449 0 0 0 -0.000917451 -0.000375094 -0.0015333 -1.79209e-06 -2.36802e-06 -7.77568e-06 0 0 1 0 0 0 1 0 0 0 0 0 0 0 0 0 75 0.0008 0 
9095 10 0.0462737 -0.0609356 0.00506395 0 0 0 -0.00474569 0.00132248 -0.0154402 2.2814e-07 -9.07174e-06 6.87023e-07 0 0 0 0 0 0 0 0 0 0 0 0 0 0 0 0 127 0.0008 0 
3393 10 0.0447113 -0.0609356 0.00471724 0 0 0 -0.00385577 0.000299593 -0.00230928 1.54286e-06 -7.10265e-07 -7.7758e-06 0 0 0 0 0 0 1 0 0 1 0 0 0 0 0 0 143 0.0008 0 
6076 6 0.00636263 -0.0607476 0.00665221 0 0 0 -0.000443911 -3.99113e-05 -0.000502212 -4.00885e-07 3.10889e-07 8.48308e-07 0 0 1 0 0 1 0 0 0 0 0 0 0 0 0 0 103 0.0008 0 
382 4 0.0405397 -0.0609356 0.00465633 0 0 0 -0.00822482 5.20862e-08 -0.00315392 -1.55493e-13 -2.97051e-08 -1.06873e-13 0 0 0 0 0 0 0 0 0 0 0 0 0 0 0 0 122 0.0008 0 
9654 4 0.0301511 -0.0609356 0.00450528 0 0 0 0.00523198 -3.52579e-05 0.000322914 -8.64995e-06 -2.23804e-06 -4.06653e-06 0 0 0 1 0 0 0 0 1 0 0 0 0 0 0 0 65 0.0008 0 
15055 9 0.0226656 -0.00352191 -0.0369962 0 0 0 -11.4398 -26.6874 -13.1672 0 -1.05196e-05 0 0 0 0 0 0 0 0 0 0 0 0 0 0 0 0 0 13 0.0008 0 
6920 6 0.0288415 -0.0609356 0.0054323 0 0 0 0.00402848 2.10865e-06 0.00415903 4.96138e-12 -1.17513e-07 2.1305e-12 0 0 0 0 0 0 0 0 0 0 0 0 0 0 0 0 88 0.0008 0 
2799 2 0.0236848 -0.0609356 0.00442631 0 0 0 0.000309362 4.30258e-06 9.13219e-05 1.02885e-07 -4.08041e-08 -4.14262e-07 0 0 0 0 0 0 1 0 0 0 0 0 0 0 0 0 20 0.0008 0 
13193 11 0.0191301 -0.0596845 -0.0123393 0 0 0 0.0787814 -0.0159684 0.0854231 8.35784e-18 -2.53692e-07 1.35713e-06 0 0 0 0 0 0 0 0 0 0 0 0 0 0 0 0 27 0.0008 0 
17490 7 0.0299845 -0.0596399 -0.0118874 0 0 0 0.051966 -0.0389187 -0.0603387 0 -1.05196e-05 0 0 0 0 0 0 0 0 0 0 0 0 0 0 0 0 0 0 0.0008 0 
15810 2 0.0355347 -0.0596232 -0.0126676 0 0 0 -0.0938824 -0.0046071 0.0246458 -1.42559e-17 -2.53692e-07 1.35713e-06 0 0 0 0 0 0 0 0 0 0 0 0 0 0 0 0 2 0.0008 0 
11974 2 0.0393153 -0.059691 -0.0123045 0 0 0 -0.0407902 0.00238965 -0.0127835 -4.22531e-18 -2.53692e-07 1.35713e-06 0 0 0 0 0 0 0 0 0 0 0 0 0 0 0 0 17 0.0008 0 
18396 4 0.0424908 -0.0595547 -0.0130337 0 0 0 0.0914689 -0.00811993 0.0434378 -4.31351e-06 1.6858e-07 -9.01825e-07 0 0 0 0 0 0 0 0 0 0 0 0 0 0 0 0 1 0.0008 0 
14994 1 0.0442279 -0.059682 -0.012353 0 0 0 0.0109076 0.0031121 -0.0166482 3.05236e-19 -2.53692e-07 1.35713e-06 0 0 0 0 0 0 0 0 0 0 0 0 0 0 0 0 12 0.0008 0 
847 1 0.0306402 -0.0240102 -0.0329813 0 0 0 -0.0165825 -65.9904 48.026 4.64161e-05 0.102908 0.141497 2 0 0 0 0 0 0 0 0 0 0 0 0 0 0 0 377 0.0008 0 
13998 8 0.0444027 -0.0577378 -0.0119285 0 0 0 -8.66666 -2.11349 16.0846 -0.00287232 -0.0118582 0.00110658 0 0 0 0 0 0 0 0 0 0 0 0 0 0 0 0 27 0.0008 0 
4086 2 0.0279797 -0.0298131 -0.0367507 0 0 0 -0.0120711 -73.4846 59.6723 2.04608e-08 0.128076 0.157563 0 0 0 0 0 0 0 0 0 0 0 0 0 0 0 0 51 0.0008 0 
15817 4 0.0302705 -0.0302935 -0.0415248 0 0 0 -0.0144679 -83.0325 60.6377 2.29797e-08 0.130156 0.17804 0 0 0 0 0 0 0 0 0 0 0 0 0 0 0 0 14 0.0008 0 
2782 8 0.0323972 -0.0193255 -0.0310069 0 0 0 0.00666697 -62.0382 38.6275 -0.00050708 0.08255 0.132935 0 0 0 0 0 0 0 2 0 0 0 0 0 0 0 0 718 0.0008 0 
9359 3 0.0273135 -0.0287933 -0.0339773 0 0 0 0.0179571 -67.9505 57.5644 0.000200052 0.123277 0.144209 0 0 1 0 0 0 0 0 0 0 0 0 0 0 0 0 135 0.0008 0 
11603 8 0.0249993 -0.0330432 -0.0363155 0 0 0 -2.76792 -70.4849 64.7198 0.0635003 -0.045206 0.315592 0 1 0 0 0 0 0 1 0 0 0 0 0 0 0 0 42 0.0008 0 
12243 4 0.0246236 -0.0303044 -0.0316472 0 0 0 -0.0563874 -63.3206 60.7328 0.000281135 0.130154 0.134916 0 1 0 3 0 0 0 0 0 0 0 0 0 0 0 0 143 0.0008 0 
16590 4 0.0250699 -0.0317915 -0.034604 0 0 0 -0.0722064 -69.1712 63.623 0.00389716 0.133521 0.15027 0 0 0 3 0 0 0 0 0 0 0 0 0 0 0 0 65 0.0008 0 
15410 5 0.0238515 -0.0328643 -0.0330993 0 0 0 -0.0618471 -66.4405 65.3933 -0.000140866 0.139294 0.143554 1 0 0 0 3 0 0 0 0 0 0 0 0 0 0 0 124 0.0008 0 
16766 3 0.0340285 -0.0213092 -0.035018 0 0 0 -0.0131453 -70.0255 42.6574 1.50398e-06 0.0915609 0.150136 0 0 2 0 0 0 0 0 0 0 0 0 0 0 0 0 6 0.0008 0 
8459 3 0.0438915 -0.0144836 -0.0557659 0 0 0 13.8041 -38.5297 26.1979 0 -1.05196e-05 0 0 0 0 0 0 0 0 0 0 0 0 0 0 0 0 0 77 0.0008 0 
617 3 0.0233092 -0.0350969 -0.0363622 0 0 0 0.342944 -72.9662 70.4588 0.0133478 0.141611 0.153855 0 1 3 0 0 0 0 0 0 0 0 0 0 0 0 0 418 0.0008 0 
4918 9 0.0234465 -0.0341524 -0.0345624 0 0 0 0.0538174 -69.2014 68.2048 0.0168742 0.128246 0.166384 1 0 1 0 0 0 0 0 4 0 0 0 0 0 0 0 549 0.0008 0 
2800 3 0.0236798 -0.028941 -0.0278569 0 0 0 -0.0795881 -55.7779 57.9379 1.41611e-06 0.124379 0.119756 0 0 2 0 0 0 0 0 0 0 0 0 0 0 0 0 447 0.0008 0 
15619 1 0.0204834 -0.0391042 -0.0370675 0 0 0 -1.13975 -73.1854 77.5383 0.274076 -0.0533125 0.323078 0 0 1 0 0 0 0 0 1 0 0 0 0 0 0 0 49 0.0008 0 
1252 1 0.0213617 -0.0341411 -0.0318569 0 0 0 -0.0832464 -63.6502 68.442 -0.000128662 0.147187 0.136498 7 0 0 0 0 0 0 0 0 1 0 0 0 0 0 0 592 0.0008 0 
53 4 0.0217531 -0.0337182 -0.03071 0 0 0 0.0105712 -61.5242 67.2207 -0.000176915 0.143561 0.13205 1 0 0 6 0 0 0 0 0 1 0 0 0 0 0 0 634 0.0008 0 
97 5 0.0229561 -0.0302806 -0.0284444 0 0 0 -0.0418305 -56.871 60.6026 1.76994e-05 0.130091 0.121959 0 0 0 0 2 0 0 0 0 0 0 0 0 0 0 0 626 0.0008 0 
9966 6 0.020995 -0.0348808 -0.0325018 0 0 0 -0.0242391 -64.9002 69.9974 7.08193e-05 0.150703 0.13896 1 0 1 0 0 3 0 0 0 0 0 0 0 0 0 0 370 0.0008 0 
10239 8 0.0208435 -0.0340584 -0.0298029 0 0 0 0.0529936 -59.7333 67.9674 -0.000264301 0.145467 0.128578 0 0 0 1 1 0 0 5 0 0 0 0 0 0 0 0 231 0.0008 0 
370 1 0.0203327 -0.0350363 -0.0307765 0 0 0 0.0114014 -61.5877 70.0366 -0.000235803 0.150094 0.132356 3 0 1 0 0 0 0 1 0 0 0 0 0 0 0 0 460 0.0008 0 
717 6 0.021597 -0.0331729 -0.0296006 0 0 0 0.130252 -59.2967 66.0809 8.17019e-06 0.1409 0.127066 0 0 0 1 1 1 0 1 0 0 0 0 0 0 0 0 597 0.0008 0 
9969 12 0.0208442 -0.0310313 -0.026458 0 0 0 -0.00207471 -52.8635 62.209 -7.23045e-05 0.133646 0.113265 0 0 0 0 0 0 0 0 0 0 0 3 0 0 0 0 241 0.0008 0 
2651 9 0.0206471 -0.0318807 -0.0261896 0 0 0 0.0553769 -52.4404 63.5858 -0.0001066 0.135932 0.112549 0 0 0 0 0 0 0 0 2 0 0 1 0 0 0 0 580 0.0008 0 
1268 2 0.0210833 -0.060177 0.00970459 0 0 0 0.000570482 -7.22503e-05 0.00126056 7.96615e-06 1.01919e-06 7.29689e-06 0 0 0 1 1 0 0 0 0 0 0 0 0 0 0 0 32 0.0008 0 
9513 9 0.0201055 -0.034086 -0.0296919 0 0 0 -0.0492057 -59.3422 68.1797 -0.000103775 0.146035 0.127137 1 0 0 0 1 0 0 1 3 0 0 0 0 0 0 0 270 0.0008 0 
5875 2 0.00785257 -0.0602572 0.00927565 0 0 0 -0.000865018 -0.000588022 -0.00314476 -1.21081e-06 -3.21095e-07 -3.07408e-07 0 2 0 0 0 0 0 0 0 0 0 0 0 0 0 0 49 0.0008 0 
9957 4 0.039777 -0.0603333 0.00886887 0 0 0 -0.00402591 -0.00329477 -0.0176254 -6.41601e-20 -2.53692e-07 -1.35713e-06 0 0 0 0 0 0 0 0 0 0 0 0 0 0 0 0 47 0.0008 0 
6493 9 0.018237 -0.0602731 0.00919051 0 0 0 0.000238547 -6.16697e-05 -0.0006918 7.26444e-08 -1.06862e-07 -1.40835e-06 0 0 0 0 0 0 0 0 0 0 0 0 0 0 0 0 39 0.0008 0 
3877 5 0.00943194 -0.0603043 0.00902423 0 0 0 -0.000783217 -9.8555e-05 -5.92003e-05 -4.42391e-06 1.6609e-06 8.04002e-07 1 1 0 0 2 0 0 0 0 0 0 0 0 0 0 0 73 0.0008 0 
5629 1 0.0380279 -0.0603446 0.00880809 0 0 0 -0.00364387 -0.000188136 -0.00100644 -1.15391e-19 -2.53692e-07 -1.35713e-06 0 0 0 0 0 0 0 0 0 0 0 0 0 0 0 0 60 0.0008 0 
4325 3 0.00219355 -0.0603103 0.00899178 0 0 0 -0.000889203 -6.14435e-05 0.000255343 -2.43337e-07 1.23833e-07 1.62679e-07 0 0 0 1 0 0 0 0 0 0 0 0 0 0 0 0 115 0.0008 0 
10479 4 0.032966 -0.0605217 0.00786071 0 0 0 0.00981528 -0.00275264 -0.0147248 -2.02451e-13 -2.66117e-07 -1.3547e-06 0 0 0 0 0 0 0 0 0 0 0 0 0 0 0 0 66 0.0008 0 
12396 1 0.0440962 -0.0606071 0.00740397 0 0 0 -0.0041144 0.0013905 -0.00330257 1.97655e-07 2.14827e-06 2.13135e-05 0 0 0 0 1 0 1 0 0 0 0 0 0 0 0 0 72 0.0008 0 
8283 1 0.0302698 -0.0605576 0.00766902 0 0 0 0.00239753 -6.56643e-05 -0.000428631 6.13815e-07 4.02199e-06 -8.74876e-07 0 0 0 0 0 0 0 0 0 0 0 0 0 0 0 0 58 0.0008 0 
5753 8 0.0410984 -0.0605401 0.0077623 0 0 0 -0.0063251 -0.00039707 -0.00250406 4.66104e-09 -3.37386e-07 -1.34644e-06 0 0 0 0 0 0 0 0 0 0 0 0 0 0 0 0 95 0.0008 0 
398 2 0.0287236 -0.0606365 0.0072466 0 0 0 0.00513078 -0.00360487 -0.0121582 -5.41631e-05 -6.10404e-06 -0.000114569 0 1 0 0 0 0 1 0 0 0 0 0 0 0 0 0 86 0.0008 0 
8439 3 0.0227753 -0.0606042 0.00741976 0 0 0 0.000705911 2.92616e-05 5.52757e-05 1.40761e-06 -3.31375e-07 5.11876e-07 0 0 0 1 0 0 1 0 0 0 0 0 0 0 0 0 67 0.0008 0 
9650 1 0.0125404 -0.0604519 0.00823362 0 0 0 -0.00487224 6.58303e-05 -0.00116392 -3.53415e-06 -1.874e-06 6.62937e-06 0 1 1 0 0 0 0 0 1 0 0 0 0 0 0 0 42 0.0008 0 
2748 4 0.0452 -0.0608235 0.00624606 0 0 0 0.000348586 -0.00120638 -0.00639722 -8.21614e-09 -1.62577e-07 -1.364e-06 0 0 0 0 0 0 0 0 0 0 0 0 0 0 0 0 117 0.0008 0 
3905 4 0.0373843 -0.0609294 0.00567964 0 0 0 -8.44457e-05 -0.000157269 -0.000826398 -2.71386e-07 -3.55623e-07 -1.83142e-06 0 0 0 1 0 0 0 0 0 0 0 0 0 0 0 0 92 0.0008 0 
8128 3 0.0198813 -0.0607457 0.00666213 0 0 0 0.00388679 0.000285998 -0.00165116 -1.1267e-05 -1.29586e-06 -4.16546e-06 0 1 1 1 0 0 0 0 0 0 0 0 0 0 0 0 58 0.0008 0 
3869 8 0.00357683 -0.0607512 0.00663311 0 0 0 -0.000377467 1.84226e-05 -4.39979e-05 3.02558e-07 -1.94239e-07 -1.33983e-07 1 0 0 1 0 1 0 1 0 0 0 0 0 0 0 0 181 0.0008 0 
2116 2 0.0049614 -0.0608995 0.0058399 0 0 0 9.6724e-05 -3.27938e-05 -0.000106787 2.23992e-07 3.08251e-08 -2.52008e-07 0 1 0 0 0 0 0 0 0 0 0 0 0 0 0 0 195 0.0008 0 
8088 9 0.0360484 -0.0609356 0.004769 0 0 0 -0.00883499 4.84282e-05 0.00167503 -1.18171e-10 -2.9508e-07 2.24594e-11 0 0 0 0 0 0 0 0 0 0 0 0 0 0 0 0 76 0.0008 0 
8325 5 0.0345492 -0.0609356 0.00549244 0 0 0 -0.00857506 -1.93583e-08 0.00972824 4.71388e-14 3.2089e-10 -5.35809e-14 0 0 0 0 0 0 0 0 0 0 0 0 0 0 0 0 98 0.0008 0 
15203 3 0.0208611 -0.0599494 -0.0109222 0 0 0 -0.0295485 0.00331326 -0.0177244 -1.58383e-18 -2.53692e-07 1.35713e-06 0 0 0 0 0 0 0 0 0 0 0 0 0 0 0 0 14 0.0008 0 
17465 4 0.03205 -0.0598374 -0.0114802 0 0 0 0.173245 -0.0325276 0.102735 0 -1.05196e-05 0 0 0 0 0 0 0 0 0 0 0 0 0 0 0 0 0 0 0.0008 0 
10209 5 0.0374423 -0.0599488 -0.0109257 0 0 0 -0.00387212 -0.00136241 0.00728214 4.22046e-12 -2.23162e-07 1.36303e-06 0 0 0 0 0 0 0 0 0 0 0 0 0 0 0 0 30 0.0008 0 
9184 3 0.0407196 -0.0600512 -0.0103777 0 0 0 0.00345002 -0.00647709 0.0346493 7.93813e-13 -2.53669e-07 1.35714e-06 0 0 0 0 0 0 0 0 0 0 0 0 0 0 0 0 58 0.0008 0 
7257 5 0.0423499 -0.0599382 -0.0109824 0 0 0 0.0417839 -0.0180232 0.0964157 -1.92677e-06 5.2641e-07 -2.81604e-06 0 0 0 0 0 0 0 0 0 0 0 0 0 0 0 0 25 0.0008 0 
1313 4 0.0444226 -0.0600095 -0.0106005 0 0 0 0.0390502 0.00803099 -0.0465907 3.16978e-06 -2.13011e-06 4.92554e-06 0 0 0 0 0 0 0 0 0 0 0 0 0 0 0 0 39 0.0008 0 
12335 5 0.0463471 -0.0599293 -0.0110299 0 0 0 -0.000793062 -0.0033086 0.0176994 -2.26504e-19 -2.53692e-07 1.35713e-06 0 0 0 0 0 0 0 0 0 0 0 0 0 0 0 0 11 0.0008 0 
7478 3 0.0318286 -0.0208929 -0.0310842 0 0 0 -0.0530286 -62.205 41.7365 -3.87969e-05 0.0895689 0.133168 0 0 4 0 0 0 0 0 0 0 0 0 0 0 0 0 505 0.0008 0 
759 5 0.0333944 -0.0203919 -0.0309129 0 0 0 0.00798919 -61.8413 40.7862 -8.62026e-05 0.0873789 0.132583 0 0 0 0 2 0 0 1 0 0 0 0 0 0 0 0 724 0.0008 0 
16763 1 0.0333947 -0.0214825 -0.0324733 0 0 0 0.00489098 -64.983 42.9969 -0.000135437 0.091999 0.139276 5 0 0 0 0 0 0 0 0 0 0 0 0 0 0 0 60 0.0008 0 
2167 5 0.0312338 -0.0233058 -0.0352161 0 0 0 -0.0100799 -70.3823 46.6068 0.000230149 0.0995947 0.150632 0 0 0 0 6 0 0 0 0 0 0 0 0 0 0 0 589 0.0008 0 
7604 2 0.0323285 -0.0224769 -0.0330316 0 0 0 0.0356064 -66.0716 44.9221 -2.30408e-05 0.0962224 0.141587 1 3 0 0 0 0 0 0 0 0 0 0 0 0 0 0 300 0.0008 0 
5066 2 0.0326605 -0.0230504 -0.0312526 0 0 0 0.0064224 -62.5218 46.0713 -6.7152e-05 0.0988122 0.134309 0 5 0 0 0 0 0 0 0 0 0 0 0 0 0 0 307 0.0008 0 
13155 7 0.0304515 -0.0211278 -0.0320772 0 0 0 0.00185019 -64.1761 42.2357 -5.30122e-05 0.0907686 0.137683 0 0 0 0 0 0 4 0 0 0 0 0 0 0 0 0 179 0.0008 0 
13798 2 0.0324384 -0.0220442 -0.0343116 0 0 0 0.0352904 -68.5669 44.0669 1.01928e-05 0.0943694 0.146756 0 5 0 0 0 0 0 0 0 0 0 0 0 0 0 0 196 0.0008 0 
11851 5 0.031277 -0.0230716 -0.0311858 0 0 0 0.0143308 -62.3827 46.123 -4.26992e-05 0.0988118 0.133654 0 1 0 0 3 0 0 0 0 0 0 0 0 0 0 0 229 0.0008 0 
14143 1 0.0307163 -0.0220987 -0.0344075 0 0 0 -0.024267 -68.8554 44.1763 4.55675e-05 0.0942746 0.147325 4 0 0 0 1 0 0 0 0 0 0 0 0 0 0 0 136 0.0008 0 
16148 6 0.0323034 -0.020404 -0.0325921 0 0 0 0.00405776 -65.2075 40.7617 -0.000631932 0.087565 0.139963 1 0 0 0 0 2 0 0 0 0 0 0 0 0 0 0 102 0.0008 0 
5616 7 0.0311449 -0.01982 -0.0316668 0 0 0 -0.019007 -63.3384 39.6385 -0.000123535 0.084915 0.135651 0 0 1 0 0 1 1 1 0 0 0 0 0 0 0 0 452 0.0008 0 
6688 7 0.0332661 -0.021231 -0.0336646 0 0 0 0.00535311 -67.3021 42.5109 -2.41989e-05 0.0912252 0.144194 1 1 1 0 0 0 0 0 0 0 0 0 0 0 0 0 426 0.0008 0 