ITEM: TIMESTEP
13500000
ITEM: NUMBER OF ATOMS
18350
ITEM: BOX BOUNDS ff ff ff
-0.01 0.45
-0.15 0.15
-0.08 0.1
ITEM: ATOMS id type x y z ix iy iz vx vy vz fx fy fz c_cc_1 c_cc_2 c_cc_3 c_cc_4 c_cc_5 c_cc_6 c_cc_7 c_cc_8 c_cc_9 c_cc_10 c_cc_11 c_cc_12 c_cc_13 c_cc_14 c_cc_15 c_cc_16 f_fppacc radius c_cc_17 
19647 3 0.0366029 -0.0168628 -0.0559192 0 0 0 1.29659 -9.62304 3.315 0 -3.55035e-05 0 0 0 0 0 0 0 0 0 0 0 0 0 0 0 0 0 50 0.0012 0 
20713 4 0.0353283 -0.0321916 -0.0485965 0 0 0 -8.306 -35.1978 22.6601 0 -3.55035e-05 0 0 0 0 0 0 0 0 0 0 0 0 0 0 0 0 0 0 0.0012 0 
10755 2 0.0352997 -0.0196129 -0.0553768 0 0 0 3.12885 -4.69141 1.61004 0 -1.05196e-05 0 0 0 0 0 0 0 0 0 0 0 0 0 0 0 0 0 93 0.0008 0 
19695 3 0.00564704 -0.01698 -0.0556526 0 0 0 0.139677 -3.06496 -0.153533 0 -3.55035e-05 0 0 0 0 0 0 0 0 0 0 0 0 0 0 0 0 0 34 0.0012 0 
20702 1 0.00260878 -0.013295 -0.0558005 0 0 0 0.390876 -1.13619 1.35771 0 -3.55035e-05 0 0 0 0 0 0 0 0 0 0 0 0 0 0 0 0 0 0 0.0012 0 
7868 2 0.00677023 -0.0239855 -0.0530618 0 0 0 0.232251 -7.45006 3.28734 0 -1.05196e-05 0 0 0 0 0 0 0 0 0 0 0 0 0 0 0 0 0 110 0.0008 0 
950 11 0.0333514 -0.0302533 -0.050569 0 0 0 -10.0728 -16.2402 11.3872 0 -1.05196e-05 0 0 0 0 0 0 0 0 0 0 0 0 0 0 0 0 0 138 0.0008 0 
2888 6 0.00935153 -0.0281179 -0.0476016 0 0 0 1.56885 -1.80228 1.25966 0 -1.05196e-05 0 0 0 0 0 0 0 0 0 0 0 0 0 0 0 0 0 140 0.0008 0 
14000 1 0.000833083 -0.0379512 -0.0472028 0 0 0 0.0597507 -0.423937 0.350275 0 -1.05196e-05 0 0 0 0 0 0 0 0 0 0 0 0 0 0 0 0 0 54 0.0008 0 
9762 7 0.0254283 -0.0391563 -0.0432254 0 0 0 11.0837 -3.06521 2.82443 0 -1.05196e-05 0 0 0 0 0 0 0 0 0 0 0 0 0 0 0 0 0 148 0.0008 0 
15736 3 0.0359042 -0.03808 -0.0447757 0 0 0 3.33426 -7.31336 6.15029 0 -1.05196e-05 0 0 0 0 0 0 0 0 0 0 0 0 0 0 0 0 0 52 0.0008 0 
18588 6 0.0202391 -0.0432855 -0.0388268 0 0 0 -2.24648 -12.4729 11.288 0 -3.55035e-05 0 0 0 0 0 0 0 0 0 0 0 0 0 0 0 0 0 116 0.0012 0 
12033 5 0.0411973 -0.0485495 -0.0335908 0 0 0 0.716091 -5.24113 7.05614 -0.00734467 0.0333157 0.0204126 0 0 0 0 0 0 0 0 0 0 0 0 0 0 0 0 100 0.0008 0 
194 6 0.046326 -0.0536308 -0.0245876 0 0 0 0.821208 -11.8526 21.497 0 -1.05196e-05 0 0 0 0 0 0 0 0 0 0 0 0 0 0 0 0 0 104 0.0008 0 
17560 4 0.0214201 -0.0504894 -0.0342089 0 0 0 -0.140164 0.157697 -0.25469 -2.44823e-17 -1.97304e-06 3.18658e-06 0 0 0 0 0 0 0 0 0 0 0 0 0 0 0 0 70 0.0008 0 
20732 5 0.0316247 -0.0514679 -0.0274824 0 0 0 2.32604 -7.39496 13.575 0 -3.55035e-05 0 0 0 0 0 0 0 0 0 0 0 0 0 0 0 0 0 0 0.0012 0 
17465 4 0.0357149 -0.0520443 -0.0316977 0 0 0 0.0175929 0.0648946 -0.104809 -3.90922e-18 -2.08228e-06 3.363e-06 0 0 0 0 0 0 0 0 0 0 0 0 0 0 0 0 4 0.0008 0 
17037 1 0.00701417 -0.0240661 -0.0284507 0 0 0 0.96924 -1.16946 5.36136 0 -1.05196e-05 0 0 0 0 0 0 0 0 0 0 0 0 0 0 0 0 0 71 0.0008 0 
924 3 0.0271181 -0.0528244 -0.0304377 0 0 0 -0.069275 0.0908682 -0.146757 1.00892e-18 -2.08228e-06 3.363e-06 0 0 0 0 0 0 0 0 0 0 0 0 0 0 0 0 87 0.0008 0 
6557 4 0.03208 -0.0546491 -0.0220867 0 0 0 2.26826 -5.39605 16.4319 0 -1.05196e-05 0 0 0 0 0 0 0 0 0 0 0 0 0 0 0 0 0 118 0.0008 0 
5453 8 0.00350486 -0.0236041 -0.0262501 0 0 0 0.109202 -3.70555 1.7566 0 -1.05196e-05 0 0 0 0 0 0 0 0 0 0 0 0 0 0 0 0 0 144 0.0008 0 
14567 4 0.00906128 -0.0286814 -0.0163267 0 0 0 -13.3163 -6.19151 16.4908 0 -1.05196e-05 0 0 0 0 0 0 0 0 0 0 0 0 0 0 0 0 0 68 0.0008 0 
3551 3 0.0404033 -0.0578992 -0.0192288 0 0 0 0.0627223 0.0136342 -0.0351939 1.83843e-17 -9.80505e-07 2.53098e-06 0 0 0 0 0 0 0 0 0 0 0 0 0 0 0 0 88 0.0008 0 
2010 2 0.012567 -0.0588812 -0.0166369 0 0 0 -0.22322 0.0041025 -0.0219464 1.42892e-17 -2.53692e-07 1.35713e-06 0 0 0 0 0 0 0 0 0 0 0 0 0 0 0 0 107 0.0008 0 
17561 1 0.00314824 -0.0572346 -0.0116998 0 0 0 1.93041 -1.76273 9.25636 0 -1.05196e-05 0 0 0 0 0 0 0 0 0 0 0 0 0 0 0 0 0 50 0.0008 0 
8263 2 0.000879766 -0.0590399 -0.0157878 0 0 0 0.00283362 -6.10563e-05 0.000610309 -8.07749e-07 8.00421e-07 -1.98628e-06 0 1 0 0 0 0 0 0 0 0 0 0 0 0 0 0 127 0.0008 0 
20717 10 0.0158494 -0.0573506 -0.0116605 0 0 0 -1.60547 -0.876948 6.5717 0 -3.55035e-05 0 0 0 0 0 0 0 0 0 0 0 0 0 0 0 0 0 0 0.0012 0 
16349 4 0.000816063 -0.0593336 -0.0142164 0 0 0 -8.9607e-05 -0.000105658 6.32115e-05 1.0925e-06 -4.73501e-07 1.54543e-06 0 1 0 0 0 0 0 0 0 0 0 0 0 0 0 0 44 0.0008 0 
14055 8 0.00219358 -0.0594832 -0.0134161 0 0 0 -6.37508e-06 1.50217e-05 0.00015913 1.97247e-07 3.49503e-08 -2.43964e-07 0 0 0 0 0 0 0 2 0 0 0 0 0 0 0 0 38 0.0008 0 
8832 3 0.00580887 -0.0593373 -0.0141969 0 0 0 0.0188012 0.000787585 -0.00421321 6.0146e-21 -2.53692e-07 1.35713e-06 0 0 0 0 0 0 0 0 0 0 0 0 0 0 0 0 75 0.0008 0 
8211 15 0.0299512 -0.0595092 -0.0132773 0 0 0 -0.0255681 -0.00110091 0.00588937 -7.44415e-18 -2.53692e-07 1.35713e-06 0 0 0 0 0 0 0 0 0 0 0 0 0 0 0 0 124 0.0008 0 
17011 3 0.0392394 -0.0593883 -0.0139242 0 0 0 -0.0856103 -0.00548666 0.029351 -2.81793e-18 -2.53692e-07 1.35713e-06 0 0 0 0 0 0 0 0 0 0 0 0 0 0 0 0 47 0.0008 0 
9118 2 0.0420541 -0.059348 -0.0141395 0 0 0 -0.0180505 0.00296679 -0.0158805 -9.04836e-12 -3.37519e-07 1.34066e-06 0 0 0 0 0 0 0 0 0 0 0 0 0 0 0 0 68 0.0008 0 
17781 8 0.0436492 -0.059118 -0.0141098 0 0 0 -0.0101972 -0.0192367 -0.0215537 0 -1.05196e-05 0 0 0 0 0 0 0 0 0 0 0 0 0 0 0 0 0 15 0.0008 0 
11668 7 0.00422154 -0.0578162 0.003858 0 0 0 7.74625 1.26817 33.1576 0 -1.05196e-05 0 0 0 0 0 0 0 0 0 0 0 0 0 0 0 0 0 86 0.0008 0 
7370 1 0.0181636 -0.058035 -0.00943304 0 0 0 -0.168139 -4.10557 10.8964 0 -1.05196e-05 0 0 0 0 0 0 0 0 0 0 0 0 0 0 0 0 0 127 0.0008 0 
11726 4 0.000799898 -0.0596276 -0.0126438 0 0 0 -2.09861e-05 -1.4778e-05 9.82842e-05 -2.05415e-07 -5.41929e-08 2.62729e-08 0 0 0 1 0 0 0 1 0 0 0 0 0 0 0 0 66 0.0008 0 
16870 13 0.00217629 -0.0597774 -0.0118422 0 0 0 -2.08368e-05 -1.17471e-05 5.8618e-05 -6.24314e-09 5.51312e-08 -3.82212e-09 0 0 0 1 0 0 0 0 0 0 0 0 2 0 0 0 90 0.0008 0 
8467 4 0.00357829 -0.0596305 -0.0126283 0 0 0 8.81081e-06 -1.16309e-05 1.15484e-05 7.53327e-08 -1.59173e-08 1.96109e-08 0 0 0 2 0 0 0 1 0 0 0 0 0 0 0 0 152 0.0008 0 
689 6 0.0051214 -0.0597081 -0.0122129 0 0 0 -7.938e-06 -8.40508e-07 -7.31686e-07 1.51161e-08 -3.15532e-08 4.2335e-08 0 0 0 1 0 2 0 0 0 0 0 0 0 0 0 0 152 0.0008 0 
13923 7 0.00659955 -0.0595956 -0.0128148 0 0 0 5.15587e-07 1.53241e-06 2.11317e-05 -1.70493e-08 -1.29991e-09 -1.34077e-08 0 0 0 0 0 1 1 0 0 0 0 0 0 0 0 0 82 0.0008 0 
340 4 0.017086 -0.0596306 -0.012628 0 0 0 -0.177416 -0.0038519 0.0206058 1.23602e-17 -2.53692e-07 1.35713e-06 0 0 0 0 0 0 0 0 0 0 0 0 0 0 0 0 219 0.0008 0 
8049 6 0.0416296 -0.0596335 -0.0126121 0 0 0 -0.0164518 0.00213533 -0.0116926 5.26919e-10 1.54555e-07 1.42948e-06 0 0 0 0 0 0 0 0 0 0 0 0 0 0 0 0 91 0.0008 0 
4719 3 0.000799962 -0.0599274 -0.0110403 0 0 0 1.22436e-05 -1.76048e-05 5.6981e-05 -5.39193e-08 1.63926e-08 -2.86839e-08 0 0 1 0 0 0 0 0 0 0 0 0 1 0 0 0 138 0.0008 0 
14539 6 0.00356165 -0.0599245 -0.0110557 0 0 0 -7.32816e-08 -2.30261e-06 3.01116e-06 1.88275e-08 -7.97499e-09 5.64525e-08 0 0 0 1 0 2 0 0 0 0 0 0 1 0 0 0 86 0.0008 0 
988 9 0.0051047 -0.0600021 -0.0106404 0 0 0 -2.59598e-06 -1.5723e-06 3.72737e-06 7.3174e-09 -8.52439e-09 9.13098e-09 0 0 0 0 0 2 0 0 2 0 0 0 0 0 0 0 161 0.0008 0 
8496 3 0.00745046 -0.0598446 -0.011483 0 0 0 1.11277e-06 -4.12561e-06 4.90922e-06 -3.76364e-08 -3.21154e-08 -3.56732e-09 0 0 1 0 0 0 1 0 0 0 0 0 0 0 0 0 95 0.0008 0 
17363 3 0.009059 -0.0598493 -0.0114577 0 0 0 0.00354435 -0.00720278 0.0385315 5.11753e-17 -2.53692e-07 1.35713e-06 0 0 0 0 0 0 0 0 0 0 0 0 0 0 0 0 27 0.0008 0 
4777 3 0.010643 -0.0598022 -0.01171 0 0 0 -0.000142907 0.000188188 -0.00100762 5.77129e-14 -2.53471e-07 1.35716e-06 0 0 0 0 0 0 0 0 0 0 0 0 0 0 0 0 100 0.0008 0 
7470 3 0.0120229 -0.0599782 -0.0107684 0 0 0 -0.00152036 -9.04288e-05 0.000399963 -3.87976e-07 -1.80805e-07 9.56924e-07 0 0 1 0 0 0 0 0 0 0 0 0 0 0 0 0 84 0.0008 0 
874 2 0.0153956 -0.0600374 -0.0104514 0 0 0 -0.00661749 -0.000664265 0.0035889 -3.98981e-07 1.21283e-08 -4.62081e-07 0 1 0 0 0 0 0 0 0 0 0 0 0 0 0 0 84 0.0008 0 
10441 10 0.0196425 -0.0600043 -0.0106287 0 0 0 -0.0895194 -0.000917485 0.00490811 -1.60183e-17 -2.53692e-07 1.35713e-06 0 0 0 0 0 0 0 0 0 0 0 0 0 0 0 0 142 0.0008 0 
1903 4 0.0392 -0.0599334 -0.011008 0 0 0 -0.00291472 9.91842e-05 -0.000419926 4.08909e-07 -7.62345e-07 6.68205e-07 0 0 0 1 0 0 0 0 0 0 0 0 0 0 0 0 131 0.0008 0 
338 3 0.0408298 -0.0598882 -0.0112497 0 0 0 0.00329936 0.000639423 0.0004908 2.31857e-06 5.87309e-07 1.21972e-06 0 0 1 0 0 0 0 0 0 0 0 0 0 0 0 0 97 0.0008 0 
15205 2 0.0422855 -0.060014 -0.0105769 0 0 0 -0.00183205 4.03084e-05 -0.000175185 4.05267e-07 1.92252e-08 2.32774e-07 0 1 0 0 0 0 0 0 0 0 0 0 0 0 0 0 36 0.0008 0 
1098 3 0.0439599 -0.0598609 -0.0111315 0 0 0 0.00388579 -0.00909802 -0.00560814 0 -1.05196e-05 0 0 0 0 0 0 0 0 0 0 0 0 0 0 0 0 0 84 0.0008 0 
5232 3 0.0455887 -0.0598273 -0.0115755 0 0 0 0.00107913 -0.000303136 0.00192426 -2.20181e-06 4.75626e-07 -6.50899e-07 0 0 1 0 0 0 0 0 0 0 0 0 0 0 0 0 99 0.0008 0 
15673 4 0.0469044 -0.0599946 -0.0106806 0 0 0 0.0015914 -9.268e-05 3.37211e-05 9.07269e-08 -3.51831e-07 1.33846e-06 0 0 1 0 0 0 0 0 0 0 0 0 0 0 0 0 46 0.0008 0 
12335 5 0.0093635 -0.0603081 -0.00900372 0 0 0 -8.7699e-06 6.56346e-07 -1.99636e-07 -2.13765e-07 -4.48272e-09 1.39579e-07 0 0 0 0 2 0 0 0 0 0 0 0 0 0 0 0 91 0.0008 0 
16168 4 0.0160135 -0.0603086 -0.00900069 0 0 0 0.00108026 -7.55779e-05 0.000372216 1.33329e-07 -1.02807e-07 -2.90257e-07 0 1 0 1 0 0 0 0 0 0 0 0 0 0 0 0 116 0.0008 0 
11962 4 0.0421065 -0.0603061 -0.00901407 0 0 0 -3.35267e-05 5.99077e-06 4.04474e-06 2.52211e-07 2.15193e-07 2.8546e-08 0 1 0 1 0 0 0 0 0 0 0 0 0 0 0 0 112 0.0008 0 
14170 7 0.000799997 -0.0602214 -0.00946757 0 0 0 -1.22898e-05 -1.34207e-05 9.34195e-06 -3.93718e-08 -5.39679e-09 -3.56319e-08 0 0 1 0 0 0 2 0 0 0 0 0 0 0 0 0 138 0.0008 0 
14527 2 0.00219235 -0.0600765 -0.0102423 0 0 0 -2.84477e-05 1.49464e-07 -2.25575e-05 -7.32204e-08 -1.00022e-09 -5.11876e-08 0 1 0 0 0 1 1 0 0 0 0 0 0 0 0 0 102 0.0008 0 
5338 2 0.00381013 -0.0602152 -0.00950059 0 0 0 -7.56647e-05 6.52318e-07 -3.89846e-06 1.24412e-08 1.06716e-08 5.82031e-08 0 1 0 0 0 0 0 0 0 0 0 0 0 0 0 0 149 0.0008 0 
15381 2 0.00539901 -0.0602911 -0.00909458 0 0 0 2.15793e-05 -1.97453e-06 -4.05466e-06 -8.88273e-08 2.4504e-09 4.23111e-08 0 1 0 0 0 0 0 0 1 0 0 0 0 0 0 0 101 0.0008 0 
752 3 0.00662084 -0.060096 -0.0101382 0 0 0 -6.94649e-06 1.66814e-07 5.4525e-06 3.1784e-08 -1.76552e-10 -4.48285e-08 0 0 1 0 0 0 0 0 1 0 0 0 0 0 0 0 151 0.0008 0 
8602 1 0.00822106 -0.0601022 -0.0101047 0 0 0 -1.34436e-05 -1.66104e-06 4.55984e-06 -4.1637e-08 -1.33394e-08 -2.30493e-10 1 0 1 0 1 0 0 0 0 0 0 0 0 0 0 0 56 0.0008 0 
13872 3 0.0105571 -0.0600961 -0.0101378 0 0 0 -0.00178143 -8.69645e-06 8.26862e-05 9.0821e-10 -9.79495e-08 1.38823e-06 0 0 0 0 0 0 0 0 0 0 0 0 0 0 0 0 82 0.0008 0 
17147 2 0.0132134 -0.0601746 -0.00971777 0 0 0 -0.00290271 -0.000521574 0.00214213 -6.93214e-08 1.10709e-06 1.58023e-06 0 1 1 0 0 0 0 0 0 0 0 0 0 0 0 0 83 0.0008 0 
16806 4 0.0179603 -0.0602394 -0.00937081 0 0 0 0.00503072 0.000899853 -0.00462557 -4.85792e-06 -3.12544e-06 -6.2413e-06 0 0 0 1 0 0 0 0 0 0 0 0 0 0 0 0 67 0.0008 0 
702 2 0.0263211 -0.0601809 -0.00968386 0 0 0 -0.0134765 0.00284042 -0.0177828 1.51124e-06 -6.26362e-07 -2.23883e-07 0 0 0 0 0 0 0 0 0 0 0 0 0 0 0 0 104 0.0008 0 
10781 5 0.0285093 -0.0602121 -0.00951681 0 0 0 -0.00528585 -0.00295247 0.0157943 1.27366e-14 -2.53656e-07 1.35714e-06 0 0 0 0 0 0 0 0 0 0 0 0 0 0 0 0 77 0.0008 0 
15419 1 0.030095 -0.0601721 -0.00973103 0 0 0 -0.00625659 -0.00120196 0.00642995 -4.90084e-15 -2.53479e-07 1.35717e-06 0 0 0 0 0 0 0 0 0 0 0 0 0 0 0 0 56 0.0008 0 
9557 4 0.0327295 -0.06026 -0.00926056 0 0 0 -0.00342534 -0.00307759 0.0164637 -2.09649e-19 -2.53692e-07 1.35713e-06 0 0 0 0 0 0 0 0 0 0 0 0 0 0 0 0 93 0.0008 0 
15810 2 0.0343287 -0.0602904 -0.00909818 0 0 0 0.000149852 -0.00033674 0.00179552 -4.61551e-14 -2.47889e-07 1.3582e-06 0 0 0 0 0 0 0 0 0 0 0 0 0 0 0 0 50 0.0008 0 
7257 5 0.0361156 -0.0602572 -0.00927582 0 0 0 -0.000453039 0.000100425 7.07522e-05 1.05814e-06 -9.69851e-07 -7.78361e-07 0 0 0 0 1 0 0 0 0 0 0 0 0 0 0 0 76 0.0008 0 
18020 5 0.0375543 -0.0601286 -0.00996393 0 0 0 -0.000321698 -6.99152e-05 -0.000214882 -2.08548e-06 1.11451e-06 -3.39286e-07 0 0 0 0 1 0 0 0 0 0 0 0 0 0 0 0 47 0.0008 0 
10842 11 0.0390632 -0.0602263 -0.00944101 0 0 0 0.000137502 2.26352e-05 -0.000154803 -1.16964e-06 1.84638e-06 7.87948e-08 0 0 0 1 1 0 0 0 0 0 2 0 0 0 0 0 57 0.0008 0 
13870 2 0.0406433 -0.0601802 -0.00968771 0 0 0 0.000154151 -3.35991e-05 -0.000158248 6.19253e-07 -2.60903e-07 2.32007e-07 0 0 1 0 0 0 0 0 0 0 1 0 0 0 0 0 21 0.0008 0 
13519 2 0.0435833 -0.0600769 -0.00958864 0 0 0 0.00105717 -0.0337665 -0.00811936 0 -1.05196e-05 0 0 0 0 0 0 0 0 0 0 0 0 0 0 0 0 0 44 0.0008 0 
4489 4 0.0451967 -0.0602325 -0.00940798 0 0 0 0.000994767 -0.000145229 0.000782667 6.52948e-07 -8.43056e-08 5.69343e-07 0 0 0 1 0 0 0 0 0 0 0 0 0 0 0 0 90 0.0008 0 
1313 4 0.0467719 -0.0602876 -0.00911335 0 0 0 -0.000784733 4.18641e-05 -0.000169906 4.70471e-07 -1.78053e-07 -1.9733e-07 0 0 0 2 0 0 0 0 0 0 0 0 0 0 0 0 70 0.0008 0 
18335 1 0.0130169 -0.058695 -0.00566379 0 0 0 1.03622 -3.36092 9.07759 0 -1.05196e-05 0 0 0 0 0 0 0 0 0 0 0 0 0 0 0 0 0 53 0.0008 0 
12757 3 0.00079995 -0.0605153 -0.00789494 0 0 0 3.21949e-06 -1.92464e-06 7.82354e-06 -4.0356e-10 -1.75823e-08 3.23459e-08 0 0 0 0 0 0 1 0 0 0 0 0 0 0 0 0 95 0.0008 0 
15555 3 0.00219233 -0.0603705 -0.0086696 0 0 0 9.5661e-06 2.78503e-06 -1.26521e-06 -1.21898e-07 2.40167e-08 -3.64215e-08 0 1 1 0 0 0 0 0 0 0 0 0 0 0 0 0 138 0.0008 0 
17336 10 0.00384011 -0.0605091 -0.00792816 0 0 0 -4.29334e-06 -1.44173e-06 4.49239e-06 4.84491e-08 -1.30973e-08 6.94378e-08 0 1 0 0 0 0 0 0 0 2 0 0 0 0 0 0 182 0.0008 0 
15828 4 0.00538576 -0.060585 -0.00752204 0 0 0 -2.2201e-07 1.62207e-06 -7.3212e-06 -5.87308e-08 -5.54502e-08 5.14227e-08 0 1 0 2 0 0 0 0 0 1 0 0 0 0 0 0 161 0.0008 0 
10209 5 0.00739148 -0.0603536 -0.00875997 0 0 0 -8.60457e-06 -1.2649e-06 4.45647e-06 -2.2125e-07 3.08004e-08 -1.0505e-07 1 0 1 0 2 0 0 0 0 0 0 0 0 0 0 0 81 0.0008 0 
17589 11 0.00851039 -0.0605638 -0.00763577 0 0 0 -9.7148e-06 -2.99615e-06 -1.81519e-07 -2.16472e-07 9.06465e-09 -2.18686e-07 0 0 0 0 1 0 0 0 0 0 2 0 0 0 0 0 169 0.0008 0 
2108 4 0.01011 -0.0605681 -0.00761279 0 0 0 -1.49251e-05 -3.7439e-07 4.34913e-06 -3.7321e-07 -8.02717e-08 2.44086e-07 0 0 0 2 1 0 0 0 0 0 1 0 0 0 0 0 170 0.0008 0 
11974 2 0.0112485 -0.0603615 -0.00871771 0 0 0 -7.25699e-07 6.76737e-07 8.96003e-06 -3.40607e-08 -5.98107e-08 4.31999e-07 0 1 0 1 0 0 0 0 0 0 0 0 0 0 0 0 87 0.0008 0 
15203 3 0.0127387 -0.0604686 -0.0081451 0 0 0 1.44396e-05 1.76741e-06 -1.67987e-05 -1.49873e-07 6.06067e-08 -5.30061e-08 0 1 1 0 0 0 0 0 0 0 0 0 0 0 0 0 112 0.0008 0 
13645 4 0.0143049 -0.0603895 -0.008568 0 0 0 -2.02097e-05 9.2336e-05 -7.8969e-05 -5.306e-07 -6.72924e-07 8.99745e-07 0 1 0 2 0 0 0 0 0 0 0 0 0 0 0 0 133 0.0008 0 
13193 11 0.0154922 -0.0605866 -0.00751386 0 0 0 9.47462e-05 2.33898e-05 -2.55295e-05 -3.85204e-08 -1.72288e-07 3.67463e-08 0 0 0 2 0 0 0 0 0 0 2 0 0 0 0 0 103 0.0008 0 
18001 5 0.0171978 -0.0605072 -0.00793838 0 0 0 0.00211681 -0.000136147 0.000720774 7.00486e-07 -1.51148e-08 3.6037e-07 0 0 0 0 1 0 0 0 0 0 0 0 0 0 0 0 126 0.0008 0 
6450 6 0.0191021 -0.0604454 -0.00826938 0 0 0 0.000995999 9.79248e-05 0.000827398 -1.29577e-06 4.51213e-06 -3.90084e-06 0 0 0 1 0 2 0 0 0 0 0 0 0 0 0 0 127 0.0008 0 
17453 12 0.020546 -0.060572 -0.00759194 0 0 0 -2.11104e-05 -0.000158971 0.000894248 2.19589e-06 9.33801e-07 -1.19124e-06 0 0 0 0 0 1 0 0 0 0 0 2 0 0 0 0 49 0.0008 0 
12749 3 0.0219153 -0.0604199 -0.00840515 0 0 0 0.00108015 -0.000111884 0.000425741 2.64624e-06 -1.24517e-06 -5.59641e-07 0 0 0 0 0 0 0 0 0 0 0 1 0 0 0 0 81 0.0008 0 
9574 2 0.023513 -0.0604387 -0.00830494 0 0 0 0.00027773 -4.0994e-05 6.24436e-05 6.68212e-07 -5.09262e-08 4.93193e-08 0 1 0 0 0 0 0 0 0 0 0 0 0 0 0 0 137 0.0008 0 
3783 1 0.0250576 -0.0603613 -0.00871893 0 0 0 -0.000435361 -9.59523e-05 0.00179473 -1.37934e-05 -2.48298e-06 -2.36353e-06 1 0 0 0 0 0 0 0 0 0 0 0 0 0 0 0 126 0.0008 0 
16602 4 0.0262095 -0.0605653 -0.00762757 0 0 0 -0.0029196 0.000225825 0.000214909 1.64254e-05 -2.86759e-07 7.37167e-06 1 0 0 1 0 0 0 0 0 0 0 0 0 0 0 0 80 0.0008 0 
6441 5 0.0278635 -0.0604958 -0.00799923 0 0 0 -0.00534154 -0.000612571 0.00232854 2.63183e-10 -4.30074e-07 1.31165e-06 0 0 0 0 0 0 0 0 0 0 0 0 0 0 0 0 110 0.0008 0 
6537 6 0.0294844 -0.0604468 -0.00826131 0 0 0 -0.000224127 -8.25223e-05 0.000460268 5.32898e-07 -6.62215e-08 -3.10219e-08 0 0 0 0 0 1 0 0 0 0 0 0 0 0 0 0 65 0.0008 0 
11852 5 0.0312158 -0.0603821 -0.00860752 0 0 0 -0.00479002 -0.00093339 0.00510983 -7.44042e-07 3.36543e-08 -5.14775e-07 0 0 0 0 1 0 0 0 0 0 0 0 0 0 0 0 103 0.0008 0 
10544 4 0.0337921 -0.0605677 -0.00761485 0 0 0 0.000126733 -0.000214024 0.00102558 1.5184e-06 -1.07432e-07 -3.28921e-07 0 0 0 1 0 0 0 0 0 0 0 0 0 0 0 0 63 0.0008 0 
5801 6 0.0353681 -0.0605171 -0.00788539 0 0 0 0.000164643 -0.00011432 0.000353019 1.22924e-06 -5.295e-07 -9.0795e-07 0 0 0 1 1 1 0 0 0 0 0 0 0 0 0 0 82 0.0008 0 
17917 3 0.0371346 -0.060487 -0.00804642 0 0 0 -0.000404939 -2.748e-05 0.000165499 2.75518e-07 -1.8238e-07 8.07345e-07 0 0 0 0 0 0 0 0 0 0 0 0 0 0 0 0 19 0.0008 0 
13493 8 0.0390518 -0.0605203 -0.00786848 0 0 0 -3.8593e-07 2.16335e-05 -7.27925e-05 -1.68331e-06 1.7657e-07 -6.74076e-08 0 0 0 0 0 0 0 2 0 0 1 0 0 0 0 0 126 0.0008 0 
6436 2 0.0407892 -0.0604729 -0.00812156 0 0 0 -0.000140716 2.29993e-05 -9.7724e-05 -5.13098e-07 2.89057e-07 -3.50309e-07 0 1 0 1 0 0 0 0 0 0 0 0 0 0 0 0 119 0.0008 0 
15835 4 0.0427339 -0.0605766 -0.00756736 0 0 0 -3.01062e-05 -2.0662e-05 1.26965e-05 -1.1113e-07 2.52689e-07 1.24581e-07 0 0 0 2 0 0 0 0 0 0 0 0 0 0 0 0 92 0.0008 0 
14994 1 0.0442125 -0.0604643 -0.00816803 0 0 0 -0.000131182 -3.96162e-06 -8.68951e-05 -2.38859e-08 2.42176e-08 6.27679e-08 1 0 0 2 0 0 0 0 0 0 0 0 0 0 0 0 78 0.0008 0 
15146 2 0.0457854 -0.060519 -0.00787518 0 0 0 -0.000756256 0.000107119 -0.000631498 -4.38406e-08 -2.07797e-07 7.07858e-07 0 0 0 1 0 0 0 0 0 0 0 0 0 0 0 0 85 0.0008 0 
14597 5 0.0473749 -0.0604906 -0.00764554 0 0 0 -0.00258517 -0.00270867 0.000140597 -8.98189e-07 1.90392e-06 4.02681e-07 0 0 0 1 2 0 0 0 0 0 0 0 0 0 0 0 137 0.0008 0 
16285 6 0.00722924 -0.0560156 -0.00226875 0 0 0 -0.733983 -2.89938 10.4674 0 -1.05196e-05 0 0 0 0 0 0 0 0 0 0 0 0 0 0 0 0 0 598 0.0008 0 
3129 3 0.00104124 -0.0608059 -0.00634037 0 0 0 2.01458e-05 -9.02861e-07 -6.48185e-07 -1.78799e-07 -1.81489e-08 4.38459e-08 0 0 1 0 0 0 0 0 0 0 0 0 0 0 0 0 113 0.0008 0 
7654 8 0.00246738 -0.0606601 -0.00712034 0 0 0 9.36387e-06 3.14359e-07 1.33448e-06 -6.49225e-08 6.4457e-09 -3.48884e-08 0 0 1 0 0 0 0 1 0 1 0 0 0 0 0 0 256 0.0008 0 
14580 12 0.00435682 -0.0608101 -0.00631782 0 0 0 -3.57434e-06 -1.13122e-06 -2.77589e-06 -8.97199e-09 -1.05952e-08 -3.49479e-09 0 0 0 1 0 0 0 0 0 0 0 2 0 0 0 0 214 0.0008 0 
14360 4 0.00593182 -0.0608618 -0.00604129 0 0 0 -1.22377e-05 5.8957e-07 -5.80143e-06 2.30048e-08 3.66539e-09 3.2585e-08 0 0 0 2 0 0 0 0 0 0 0 1 0 0 0 0 157 0.0008 0 
12332 2 0.00696068 -0.0606367 -0.00724544 0 0 0 -9.29246e-07 -6.90155e-07 9.61022e-06 -2.29849e-07 1.14394e-07 -1.661e-07 0 0 0 2 1 0 0 0 0 0 1 0 0 0 0 0 196 0.0008 0 
16821 3 0.0107374 -0.0608385 -0.00616624 0 0 0 1.28542e-05 -1.8108e-06 -5.74007e-06 5.77814e-08 -2.86033e-08 2.94093e-09 0 0 2 1 0 0 0 0 0 0 0 0 0 0 0 0 173 0.0008 0 
15785 4 0.0123181 -0.0607532 -0.00662231 0 0 0 -0.000110128 3.88134e-06 9.78446e-06 1.20469e-07 -4.08454e-08 -1.24042e-07 0 0 0 2 0 0 0 0 0 0 0 0 0 0 0 0 131 0.0008 0 
7967 9 0.0138868 -0.0606733 -0.00704991 0 0 0 4.73321e-05 7.79082e-06 -3.96087e-05 6.08804e-08 7.82289e-08 1.86497e-07 0 0 1 1 0 0 0 0 2 0 0 0 0 0 0 0 211 0.0008 0 
16369 1 0.0150741 -0.0608703 -0.00599585 0 0 0 -1.5679e-05 1.37883e-05 -1.25868e-05 -1.26545e-07 -1.57787e-07 3.02849e-07 2 0 0 0 0 0 0 0 1 0 1 0 0 0 0 0 171 0.0008 0 
13527 2 0.016673 -0.0607849 -0.00645271 0 0 0 -2.30224e-05 -1.87401e-05 3.28475e-05 -2.54248e-07 -3.10049e-07 3.26663e-07 0 1 0 0 1 0 0 0 0 0 1 0 0 0 0 0 125 0.0008 0 
15517 2 0.0183729 -0.060707 -0.00686967 0 0 0 0.00156396 -0.000223698 0.000821144 2.90551e-06 9.94003e-07 8.30709e-07 0 0 0 0 0 1 0 0 0 0 0 0 0 0 0 0 87 0.0008 0 
5399 2 0.0212569 -0.0608353 -0.00618307 0 0 0 0.000648023 -5.31899e-05 0.000432311 7.15432e-07 3.72578e-07 6.41911e-07 0 1 0 0 0 0 0 0 0 0 0 1 0 0 0 0 183 0.0008 0 
15806 3 0.0226271 -0.0606835 -0.00699539 0 0 0 0.00099653 -0.000119137 0.000689249 -1.16105e-07 7.72532e-08 -1.78229e-07 0 1 0 0 0 0 0 0 0 0 0 0 0 0 0 0 153 0.0008 0 
7627 1 0.0246469 -0.0606461 -0.00719522 0 0 0 -0.0019252 -0.000428362 0.0022938 -7.50979e-07 -1.60477e-07 -9.12948e-07 1 0 0 0 0 0 0 0 0 0 0 0 0 0 0 0 124 0.0008 0 
9644 2 0.0258018 -0.0608495 -0.00610683 0 0 0 -0.000926964 -0.00046765 0.000822684 -1.22262e-06 1.588e-07 -8.31539e-07 1 2 0 1 0 0 0 0 0 0 0 0 0 0 0 0 97 0.0008 0 
5728 2 0.0273488 -0.0607745 -0.00650823 0 0 0 -0.000725794 -7.21987e-05 0.000645298 -3.75879e-07 -1.24577e-06 6.85419e-07 0 1 0 0 0 0 0 0 0 0 0 0 0 0 0 0 121 0.0008 0 
17490 7 0.0289301 -0.0607226 -0.00678598 0 0 0 0.000103101 -0.000113203 0.000566961 2.53257e-07 -3.77755e-08 4.37609e-07 0 0 0 0 0 1 1 0 0 0 0 0 0 0 0 0 80 0.0008 0 
18396 4 0.0306303 -0.0606581 -0.00713121 0 0 0 1.13486e-05 -6.96592e-05 0.000366964 -1.35606e-07 2.24371e-08 9.43399e-07 0 0 0 1 0 0 0 0 0 0 0 0 0 0 0 0 42 0.0008 0 
9751 4 0.0322107 -0.0606124 -0.00737588 0 0 0 6.18491e-05 -0.00016185 0.00114724 1.24572e-06 2.21624e-07 3.39236e-07 0 0 0 1 1 0 0 0 0 0 0 0 0 0 0 0 76 0.0008 0 
8100 4 0.0332181 -0.0608421 -0.0061467 0 0 0 0.000206318 -0.000289663 0.00150016 1.47022e-07 1.87232e-08 6.96869e-07 0 0 0 2 0 0 0 0 0 0 0 0 0 0 0 0 102 0.0008 0 
10802 6 0.0347984 -0.0607964 -0.00639143 0 0 0 7.39887e-05 -0.000167351 0.000722172 5.32017e-07 -1.16975e-07 9.41763e-07 0 0 0 1 0 2 0 0 0 0 0 0 0 0 0 0 98 0.0008 0 
9184 3 0.0363742 -0.0607456 -0.00666264 0 0 0 1.00589e-05 -9.43828e-05 0.000401575 1.68326e-07 -2.30396e-07 2.07421e-07 0 0 1 0 0 2 0 0 0 0 0 0 0 0 0 0 124 0.0008 0 
2102 5 0.0379733 -0.0607374 -0.00670688 0 0 0 -2.50409e-05 2.13861e-06 9.95874e-06 9.3543e-08 -5.1023e-07 3.48986e-07 0 0 1 0 1 0 0 1 0 0 0 0 0 0 0 0 158 0.0008 0 
4160 5 0.0401165 -0.0607397 -0.00669477 0 0 0 -2.33494e-05 2.85052e-05 -7.6022e-05 -3.46917e-08 4.53678e-07 -1.70441e-07 0 1 0 0 1 0 0 1 0 0 0 0 0 0 0 0 115 0.0008 0 
4952 4 0.0416882 -0.0607991 -0.00637712 0 0 0 0.000106053 6.91321e-06 3.79333e-05 3.2348e-07 2.37172e-07 1.08243e-07 0 0 0 2 0 0 0 0 0 0 0 0 0 0 0 0 161 0.0008 0 
9087 1 0.0432626 -0.060854 -0.00608306 0 0 0 7.78737e-05 1.71969e-05 2.66501e-05 7.70869e-07 -8.46904e-08 8.08197e-07 1 0 0 1 0 0 0 0 0 0 0 0 0 0 0 0 118 0.0008 0 
10116 2 0.0447411 -0.0607418 -0.00668373 0 0 0 3.51839e-05 5.52962e-05 -9.49036e-05 6.39135e-07 -1.38739e-07 6.02144e-07 2 2 0 0 0 0 0 0 0 0 0 0 0 0 0 0 171 0.0008 0 
14048 7 0.0463115 -0.060798 -0.00638298 0 0 0 0.000161887 0.000129435 -0.000442692 2.50674e-07 7.36087e-08 1.75297e-08 0 1 0 0 0 0 1 0 0 0 0 0 0 0 0 0 150 0.0008 0 
8108 1 0.0138192 -0.0586501 0.00198513 0 0 0 -3.33452 1.12575 17.3403 0 -1.05196e-05 0 0 0 0 0 0 0 0 0 0 0 0 0 0 0 0 0 115 0.0008 0 
7649 2 0.00141978 -0.0609356 -0.00479145 0 0 0 2.06855e-05 8.21763e-07 -3.18988e-06 -8.22972e-08 -5.22804e-09 2.46748e-08 0 1 1 0 0 0 0 0 0 0 0 0 0 0 0 0 150 0.0008 0 
8040 3 0.0029044 -0.0609356 -0.0056062 0 0 0 -7.17163e-06 -8.71264e-07 3.06505e-06 -9.67006e-08 1.43802e-08 -4.66551e-09 0 0 1 0 0 0 0 1 0 0 0 0 0 0 0 0 222 0.0008 0 
4413 6 0.00424497 -0.0609356 -0.00472685 0 0 0 -4.0453e-06 -1.53474e-07 -1.2122e-06 -2.23685e-09 1.70417e-09 -3.50605e-09 0 0 0 0 0 2 0 0 0 0 0 1 0 0 0 0 177 0.0008 0 
4306 9 0.00904903 -0.0609172 -0.00574524 0 0 0 -0.00358226 0.000137286 -0.000758804 2.30493e-07 -9.43312e-09 -6.1157e-08 0 0 0 0 0 0 0 0 1 0 0 0 0 0 0 0 227 0.0008 0 
2611 5 0.0102515 -0.0609356 -0.00464511 0 0 0 4.09795e-05 -2.4858e-06 1.23179e-05 2.06625e-07 -2.07939e-08 1.09467e-07 0 0 1 0 2 0 0 0 0 0 0 0 0 0 0 0 237 0.0008 0 
255 2 0.0119128 -0.0609356 -0.00508532 0 0 0 -2.00934e-05 -5.77089e-06 1.12355e-05 1.51248e-07 2.34318e-09 -1.17493e-07 0 0 1 1 0 0 0 0 0 0 0 0 0 0 0 0 165 0.0008 0 
4848 7 0.0134705 -0.0609356 -0.00552755 0 0 0 -2.14349e-06 2.00508e-05 -2.03528e-05 -1.57458e-07 -2.75803e-08 5.32914e-08 0 0 0 1 0 0 1 0 1 0 0 0 0 0 0 0 180 0.0008 0 
1637 5 0.016253 -0.0609356 -0.00491629 0 0 0 -4.7442e-05 -1.32641e-05 3.99867e-05 -8.05124e-08 -1.6615e-07 -4.51085e-08 1 1 0 0 2 0 0 0 0 0 0 0 0 0 0 0 226 0.0008 0 
5892 2 0.0178469 -0.0609357 -0.0053762 0 0 0 -0.000183531 -5.25094e-05 2.92342e-05 -4.38905e-07 -3.20794e-07 -3.06002e-07 0 2 0 0 0 0 0 0 0 0 0 0 0 0 0 0 195 0.0008 0 
13175 6 0.0195938 -0.06091 -0.00578348 0 0 0 -0.000416897 -4.15873e-05 6.31796e-05 -1.44032e-06 -2.38426e-07 -1.03966e-06 0 0 0 0 0 1 0 0 0 0 0 0 0 0 0 0 192 0.0008 0 
11880 4 0.0207435 -0.0609356 -0.00467113 0 0 0 -3.66746e-05 1.36595e-05 2.41822e-05 1.39583e-06 1.14368e-07 -2.34738e-07 0 1 0 1 0 1 0 0 0 0 0 0 0 0 0 0 225 0.0008 0 
16506 3 0.0226764 -0.0609356 -0.00541622 0 0 0 0.0014539 1.07411e-05 0.000731362 -5.14182e-08 -7.58538e-08 1.21717e-07 0 0 1 0 0 0 0 0 0 0 0 0 0 0 0 0 101 0.0008 0 
13149 4 0.0242655 -0.0609317 -0.00566762 0 0 0 -0.00141231 -8.07537e-05 0.000734715 -1.35634e-07 7.61334e-07 1.46781e-06 0 1 0 1 0 0 0 0 0 0 0 0 0 0 0 0 185 0.0008 0 
17720 5 0.0268175 -0.0609356 -0.00487379 0 0 0 -0.000113696 -0.00010049 2.52073e-05 -4.74909e-07 -5.24995e-07 -6.34974e-07 0 1 0 0 2 0 0 0 0 0 0 0 0 0 0 0 115 0.0008 0 
658 6 0.0283826 -0.0609356 -0.00529781 0 0 0 -0.000349309 3.19785e-06 0.000445599 1.05225e-07 6.52002e-07 5.05859e-07 0 1 0 0 0 1 1 0 0 0 0 0 0 0 0 0 153 0.0008 0 
4132 2 0.0300563 -0.0609325 -0.00566318 0 0 0 -6.77642e-05 -6.32672e-05 0.000303429 1.05512e-07 -3.58686e-07 2.44147e-07 0 2 0 1 0 0 0 0 0 0 0 0 0 0 0 0 154 0.0008 0 
14576 3 0.0316368 -0.0608868 -0.00590789 0 0 0 8.04403e-05 -0.000215821 0.000998419 -1.30228e-07 4.08292e-08 -2.18447e-07 0 1 1 2 0 0 0 0 0 0 0 0 0 0 0 0 110 0.0008 0 
2062 8 0.0342232 -0.0609356 -0.00490493 0 0 0 0.000157089 2.78158e-05 0.000928372 -8.92525e-08 -1.02518e-07 1.30286e-07 0 0 0 0 0 1 0 2 0 0 0 0 0 0 0 0 151 0.0008 0 
9740 2 0.0362629 -0.0609356 -0.005077 0 0 0 -0.00137446 -1.86414e-12 0.000864925 1.41562e-19 1.35461e-16 1.50408e-19 0 0 0 0 0 0 0 0 0 0 0 0 0 0 0 0 124 0.0008 0 
5264 7 0.0377745 -0.0609356 -0.00454717 0 0 0 -0.00101032 -4.93921e-07 -0.000904657 6.10313e-11 -2.39874e-09 -5.75802e-11 0 0 0 0 0 0 0 0 0 0 0 0 0 0 0 0 103 0.0008 0 
6612 3 0.039038 -0.0609355 -0.00552946 0 0 0 0.000105192 -1.24692e-06 -5.96623e-05 -9.12696e-07 -3.40209e-07 7.96668e-08 0 0 1 0 2 0 0 0 0 0 0 0 0 0 0 0 134 0.0008 0 
818 5 0.040624 -0.0609356 -0.0051903 0 0 0 -1.94371e-05 2.28667e-05 -1.96854e-06 4.35177e-07 2.70167e-07 -1.75407e-08 0 0 0 1 1 0 0 0 0 0 0 0 0 0 0 0 193 0.0008 0 
4793 1 0.0422184 -0.0609356 -0.00487382 0 0 0 2.12001e-05 7.03285e-07 2.64635e-05 4.51566e-07 -1.53127e-07 5.03865e-07 1 0 0 1 0 0 0 0 0 0 0 0 0 0 0 0 102 0.0008 0 
298 1 0.043784 -0.0609356 -0.00454408 0 0 0 6.03828e-05 -8.29683e-05 0.000168178 5.47078e-07 4.21963e-07 1.08e-06 1 0 0 0 0 0 0 0 0 0 0 0 0 0 0 0 81 0.0008 0 
9387 3 0.045252 -0.0609356 -0.00518014 0 0 0 -0.000181071 8.63439e-05 6.74572e-05 2.51808e-06 -3.15855e-07 -4.27259e-08 1 1 1 0 0 0 0 0 0 0 0 0 0 0 0 0 148 0.0008 0 
4780 5 0.0468226 -0.0609356 -0.00487308 0 0 0 5.1544e-05 -5.38982e-05 -0.000419804 -4.25608e-06 8.10921e-07 -5.80644e-07 0 0 0 0 2 0 1 0 0 0 0 0 0 0 0 0 170 0.0008 0 
7937 2 0.00135953 -0.0609356 -0.00319272 0 0 0 3.24092e-06 4.08934e-06 3.69275e-06 1.84764e-08 -8.41066e-09 3.04983e-09 0 2 0 0 0 0 0 0 0 0 0 0 0 0 0 0 152 0.0008 0 
10595 5 0.00281528 -0.0609356 -0.00400888 0 0 0 9.58419e-07 -3.95807e-06 2.44837e-06 -3.32471e-09 1.02506e-08 -3.99859e-09 0 1 1 0 1 1 0 0 0 0 0 0 0 0 0 0 260 0.0008 0 
9977 6 0.0042473 -0.0609356 -0.00312694 0 0 0 -2.35335e-06 2.48283e-07 2.67399e-08 -7.98435e-08 -1.8164e-08 -1.88096e-08 0 0 0 0 0 2 0 0 0 0 0 0 0 0 0 0 139 0.0008 0 
5611 3 0.00582021 -0.0609356 -0.00444711 0 0 0 -1.27827e-06 2.86916e-06 -2.29764e-06 -3.11253e-09 3.58361e-10 1.48634e-08 0 0 1 1 0 1 0 0 0 0 0 0 0 0 0 0 225 0.0008 0 
8455 4 0.00721865 -0.0609356 -0.00362888 0 0 0 1.25671e-06 2.86539e-06 -8.30117e-06 -2.31281e-08 2.13645e-08 -6.8805e-08 0 0 0 2 0 0 0 0 0 0 0 0 0 0 0 0 215 0.0008 0 
3837 1 0.00872089 -0.0609356 -0.00417942 0 0 0 6.28672e-06 4.12992e-06 -1.92047e-05 1.78157e-08 1.60483e-08 -8.01748e-08 1 0 0 1 1 0 0 0 1 0 0 0 0 0 0 0 254 0.0008 0 
12304 8 0.00988965 -0.0609356 -0.0030868 0 0 0 -2.55062e-05 2.31275e-06 -2.12556e-07 -1.65585e-07 2.61424e-08 4.21974e-09 1 0 0 0 1 0 0 1 0 0 0 0 0 0 0 0 221 0.0008 0 
12917 2 0.0114347 -0.0609356 -0.0035581 0 0 0 -0.000116565 -5.37848e-08 -0.000109324 2.26164e-09 -1.87861e-08 -4.62732e-10 0 0 0 0 0 0 0 0 0 0 0 0 0 0 0 0 106 0.0008 0 
2015 2 0.0130683 -0.0609356 -0.00397899 0 0 0 -5.62768e-05 2.48251e-06 1.93716e-05 -5.00594e-08 -8.89649e-09 7.49145e-08 0 2 0 0 0 0 1 0 0 0 0 0 0 0 0 0 110 0.0008 0 
15272 2 0.0146561 -0.0609356 -0.00445295 0 0 0 -0.000102974 6.50571e-06 -3.86758e-05 -1.9564e-07 -5.0421e-09 9.44884e-08 1 1 0 0 0 0 0 0 0 0 0 0 0 0 0 0 112 0.0008 0 
14749 4 0.0158356 -0.0609356 -0.0033717 0 0 0 2.89202e-05 1.22825e-05 -0.000142724 -3.84095e-07 1.28383e-07 6.14049e-07 0 0 0 0 1 0 0 0 0 0 0 0 0 0 0 0 104 0.0008 0 
16330 3 0.0174292 -0.0609356 -0.00383187 0 0 0 5.11139e-05 -1.16505e-05 -3.44063e-06 3.7131e-07 -6.11063e-08 -8.57036e-08 0 1 2 0 1 0 0 0 0 0 0 0 0 0 0 0 194 0.0008 0 
14256 8 0.0190205 -0.0609356 -0.0042887 0 0 0 7.56492e-05 1.11861e-05 -6.56147e-05 5.23e-08 7.6948e-08 -2.64611e-07 0 1 0 0 0 0 0 0 0 0 0 0 0 0 0 0 173 0.0008 0 
700 8 0.0201713 -0.0609356 -0.00317714 0 0 0 6.82674e-05 -7.66694e-06 2.4301e-05 -3.28827e-07 2.98508e-07 -2.2133e-07 0 0 0 1 0 0 0 1 0 0 0 0 0 0 0 0 99 0.0008 0 
11529 2 0.0221487 -0.0609356 -0.00390577 0 0 0 -0.000307386 -1.51603e-05 0.000114941 -6.93942e-07 -5.82828e-08 5.81726e-07 0 2 1 0 0 0 0 0 0 0 0 0 0 0 0 0 139 0.0008 0 