ITEM: TIMESTEP
150000
ITEM: NUMBER OF ATOMS
16
ITEM: BOX BOUNDS ff ff ff
-0.01 0.45
-0.15 0.15
-0.08 0.1
ITEM: ATOMS id type x y z ix iy iz vx vy vz fx fy fz c_cc_1 c_cc_2 c_cc_3 c_cc_4 c_cc_5 c_cc_6 c_cc_7 c_cc_8 c_cc_9 c_cc_10 c_cc_11 c_cc_12 c_cc_13 c_cc_14 c_cc_15 c_cc_16 f_fppacc radius 
13 4 0.0123774 0.0354124 -0.00401512 0 0 0 3.82034 -1.7332 -7.22035 0 -0.000164368 0 0 0 0 0 0 0 0 0 0 0 0 0 0 0 0 0 0 0.002 
12 9 0.00691154 0.0534764 -0.0178991 0 0 0 3.64002 0.319765 6.21349 0 -0.000164368 0 0 0 0 0 0 0 0 0 0 0 0 0 0 0 0 0 0 0.002 
10 6 0.00620866 0.0725865 -0.0169913 0 0 0 -0.900417 -0.615351 -5.09189 0 -0.000164368 0 0 0 0 0 0 0 0 0 0 0 0 0 0 0 0 0 0 0.002 
4 6 0.0147151 0.0699623 -0.00394099 0 0 0 0.989786 -0.302229 -1.9862 0 -0.000164368 0 0 0 0 0 0 0 0 0 0 0 0 0 0 0 0 0 0 0.002 
5 3 0.0100478 0.0912347 -0.0243717 0 0 0 2.05708 -0.872461 -5.2083 0 -0.000164368 0 0 0 0 0 0 0 0 0 0 0 0 0 0 0 0 0 0 0.002 
1 6 0.0100042 0.0899026 -0.0119782 0 0 0 2.05037 6.22602 -4.37379 0 -0.000164368 0 0 0 0 0 0 0 0 0 0 0 0 0 0 0 0 0 0 0.002 
3 2 0.00438907 0.105793 -0.00910394 0 0 0 -3.46943 3.24198 12.4612 0 -0.000164368 0 0 0 0 0 0 0 0 0 0 0 0 0 0 0 0 0 0 0.002 
16 3 0.0474884 0.00368328 -0.0492706 0 0 0 12.3224 -40.8984 4.03998 0 -0.000164368 0 0 0 0 0 0 0 0 0 0 0 0 0 0 0 0 0 0 0.002 
8 5 0.0470647 0.107867 -0.0224811 0 0 0 -1.10964 -0.428507 1.82382 0 -0.000164368 0 0 0 0 0 0 0 0 0 0 0 0 0 0 0 0 0 0 0.002 
14 5 0.0474716 0.07568 0.0163659 0 0 0 -8.38563 -4.03037 -14.9885 0 -0.000164368 0 0 0 0 0 0 0 0 0 0 0 0 0 0 0 0 0 0 0.002 
6 3 0.0404456 0.0889175 0.0217824 0 0 0 -4.68824 -8.27262 0.258165 0 -0.000164368 0 0 0 0 0 0 0 0 0 0 0 0 0 0 0 0 0 0 0.002 
15 2 0.04574 0.0972231 0.0260975 0 0 0 3.70228 -4.28928 -5.00822 0 -0.000164368 0 0 0 0 0 0 0 0 0 0 0 0 0 0 0 0 0 0 0.002 
2 6 0.024082 0.0763174 0.030852 0 0 0 0.966733 -0.33103 1.88582 0 -0.000164368 0 0 0 0 0 0 0 0 0 0 0 0 0 0 0 0 0 0 0.002 
9 6 0.0615821 0.0539212 0.0210862 0 0 0 -0.937079 13.3551 -34.4514 0.00885802 -0.90955 -0.251212 0 0 0 0 0 0 0 0 0 0 0 0 0 0 0 0 0 0.002 
11 2 0.105303 -0.0274974 0.0508541 0 0 0 10.1866 16.8452 10.2273 0 -0.000164368 0 0 0 0 0 0 0 0 0 0 0 0 0 0 0 0 0 0 0.002 
7 1 0.132562 0.0534935 -0.0220847 0 0 0 -0.63479 -12.3376 -26.4992 0.0506228 -0.143276 -0.0198112 0 0 0 0 0 0 0 0 0 0 0 0 0 0 0 0 0 0.002 
