ITEM: TIMESTEP
13000000
ITEM: NUMBER OF ATOMS
18210
ITEM: BOX BOUNDS ff ff ff
-0.01 0.45
-0.15 0.15
-0.08 0.1
ITEM: ATOMS id type x y z ix iy iz vx vy vz fx fy fz c_cc_1 c_cc_2 c_cc_3 c_cc_4 c_cc_5 c_cc_6 c_cc_7 c_cc_8 c_cc_9 c_cc_10 c_cc_11 c_cc_12 c_cc_13 c_cc_14 c_cc_15 c_cc_16 f_fppacc radius c_cc_17 
13117 4 0.0342758 -0.031495 -0.0488194 0 0 0 -11.446 -35.6143 27.3165 0 -1.05196e-05 0 0 0 0 0 0 0 0 0 0 0 0 0 0 0 0 0 59 0.0008 0 
1812 1 0.0125517 -0.0138887 -0.0573809 0 0 0 -0.737405 -15.7648 6.7614 0.01471 -0.00281151 0.0379952 0 0 0 0 0 0 0 0 0 0 0 0 0 0 0 0 121 0.0008 0 
4732 3 0.0131418 -0.0159725 -0.0567499 0 0 0 -1.86007 -6.7656 8.1741 0.0169601 -0.0532021 -0.103197 0 0 0 0 0 0 0 0 0 0 0 0 0 0 0 0 146 0.0008 0 
11700 9 0.0438766 -0.0601921 0.00962385 0 0 0 -0.00121065 -0.000225769 -0.0011763 6.0026e-08 4.0018e-07 -1.21711e-06 0 0 0 0 0 0 0 0 3 0 0 0 0 0 0 0 85 0.0008 0 
14623 2 0.0221834 -0.00436865 -0.0571589 0 0 0 1.63865 -4.5525 -0.768663 0 -1.05196e-05 0 0 0 0 0 0 0 0 0 0 0 0 0 0 0 0 0 90 0.0008 0 
1321 6 0.00211975 -0.00861637 -0.0574168 0 0 0 -6.78381 -14.869 0.665234 0 -1.05196e-05 0 0 0 0 0 0 0 0 0 0 0 0 0 0 0 0 0 128 0.0008 0 
19101 7 0.00813244 -0.0117211 -0.0547309 0 0 0 -2.5939 -20.0958 3.68259 0 -3.55035e-05 0 0 0 0 0 0 0 0 0 0 0 0 0 0 0 0 0 105 0.0012 0 
5997 10 0.00529629 -0.0198251 -0.0548627 0 0 0 0.436605 -2.7827 0.634215 0 -1.05196e-05 0 0 0 0 0 0 0 0 0 0 0 0 0 0 0 0 0 163 0.0008 0 
15020 2 0.0318621 -0.0139799 -0.054165 0 0 0 1.61415 -4.38837 1.59048 0 -1.05196e-05 0 0 0 0 0 0 0 0 0 0 0 0 0 0 0 0 0 72 0.0008 0 
19988 4 0.00945754 -0.0274303 -0.0515816 0 0 0 0.618715 -3.33191 1.87795 0 -3.55035e-05 0 0 0 0 0 0 0 0 0 0 0 0 0 0 0 0 0 23 0.0012 0 
5867 5 0.0379742 -0.0293551 -0.0511435 0 0 0 8.35874 -11.5969 8.11196 0 -1.05196e-05 0 0 0 0 0 0 0 0 0 0 0 0 0 0 0 0 0 111 0.0008 0 
3545 9 0.00651926 -0.0299547 -0.0509257 0 0 0 -0.844978 -11.2546 6.01392 0 -1.05196e-05 0 0 0 0 0 0 0 0 0 0 0 0 0 0 0 0 0 144 0.0008 0 
6126 6 0.0173069 -0.0267608 -0.0519806 0 0 0 0.538125 -4.95602 3.9152 0 -1.05196e-05 0 0 0 0 0 0 0 0 0 0 0 0 0 0 0 0 0 69 0.0008 0 
3266 3 0.0123997 -0.0164634 -0.0553213 0 0 0 2.08344 -26.975 12.5042 0 -1.05196e-05 0 0 0 0 0 0 0 0 0 0 0 0 0 0 0 0 0 120 0.0008 0 
8553 7 0.00668907 -0.0221757 -0.0500551 0 0 0 -3.59891 -4.15725 2.16525 0 -1.05196e-05 0 0 0 0 0 0 0 0 0 0 0 0 0 0 0 0 0 118 0.0008 0 
5901 8 0.0300057 -0.0302767 -0.0498194 0 0 0 1.60349 -3.66668 1.66622 0 -1.05196e-05 0 0 0 0 0 0 0 0 0 0 0 0 0 0 0 0 0 187 0.0008 0 
18299 4 0.0172775 -0.0201271 -0.0501437 0 0 0 -1.54566 -11.3095 1.04051 0 -1.05196e-05 0 0 0 0 0 0 0 0 0 0 0 0 0 0 0 0 0 41 0.0008 0 
16675 2 0.0183157 -0.0360895 -0.0491052 0 0 0 0.266574 0.119187 -0.0900059 1.89781e-17 -4.78501e-06 3.61347e-06 0 0 0 0 0 0 0 0 0 0 0 0 0 0 0 0 11 0.0008 0 
2371 3 0.00546994 -0.0469228 -0.0353935 0 0 0 -8.12348 -46.9252 27.4009 0 -1.05196e-05 0 0 0 0 0 0 0 0 0 0 0 0 0 0 0 0 0 99 0.0008 0 
11911 4 0.0429941 -0.0482537 -0.0321156 0 0 0 14.5752 -55.4985 33.467 0 -1.05196e-05 0 0 0 0 0 0 0 0 0 0 0 0 0 0 0 0 0 60 0.0008 0 
20417 1 0.00309085 -0.0139014 -0.0378524 0 0 0 4.38071 -22.1653 21.792 0 -3.55035e-05 0 0 0 0 0 0 0 0 0 0 0 0 0 0 0 0 0 0 0.0012 0 
6900 4 0.0145033 -0.0425822 -0.0407077 0 0 0 -0.0564738 -9.69658 11.8697 0 -1.05196e-05 0 0 0 0 0 0 0 0 0 0 0 0 0 0 0 0 0 95 0.0008 0 
7660 5 0.0353839 -0.0550032 0.00147029 0 0 0 0.0837797 2.96105 109.95 1.79762e-05 0.235693 -0.00637456 0 0 0 0 1 0 0 0 0 0 0 0 0 0 0 0 113 0.0008 0 
1833 4 0.00186062 -0.0377208 -0.0432432 0 0 0 -0.262871 -0.77894 1.47946 0 -1.05196e-05 0 0 0 0 0 0 0 0 0 0 0 0 0 0 0 0 0 122 0.0008 0 
20300 2 0.0328874 -0.0547949 0.00406872 0 0 0 0.173291 8.11493 109.456 6.79852e-06 0.79123 -0.0585846 0 1 0 0 0 0 0 0 0 0 0 0 0 0 0 0 7 0.0012 0 
19676 12 0.0344343 -0.0549671 0.00254339 0 0 0 0.148678 5.04213 109.782 -6.81605e-05 0.793571 -0.0361982 0 1 0 0 1 0 0 0 0 0 0 0 0 0 0 0 11 0.0012 0 
3712 6 0.0203619 -0.0444986 -0.0376447 0 0 0 -0.843676 -7.46376 9.35891 0 -1.05196e-05 0 0 0 0 0 0 0 0 0 0 0 0 0 0 0 0 0 149 0.0008 0 
9230 4 0.0230075 -0.0441695 -0.038311 0 0 0 1.68388 -5.30878 7.37586 0 -1.05196e-05 0 0 0 0 0 0 0 0 0 0 0 0 0 0 0 0 0 123 0.0008 0 
13980 3 0.00678057 -0.00153748 -0.0407125 0 0 0 0.26394 -2.07531 -0.357722 0 -1.05196e-05 0 0 0 0 0 0 0 0 0 0 0 0 0 0 0 0 0 94 0.0008 0 
19804 9 0.0301408 -0.0491188 0.00605584 0 0 0 -0.0323624 12.0025 98.2795 3.42428e-07 0.711674 -0.0860874 0 0 0 0 0 0 0 0 0 0 0 0 0 0 0 0 0 0.0012 0 
20409 1 0.00959867 -0.0478331 -0.0336209 0 0 0 -0.845189 -6.1948 7.59941 0 -3.55035e-05 0 0 0 0 0 0 0 0 0 0 0 0 0 0 0 0 0 0 0.0012 0 
13200 6 0.00209063 -0.00575118 -0.0374385 0 0 0 0.754282 -8.44669 -1.52568 0 -1.05196e-05 0 0 0 0 0 0 0 0 0 0 0 0 0 0 0 0 0 93 0.0008 0 
18500 10 0.00753246 -0.0522756 -0.0260344 0 0 0 0.75812 -9.82365 15.1963 0 -3.55035e-05 0 0 0 0 0 0 0 0 0 0 0 0 0 0 0 0 0 81 0.0012 0 
6053 1 0.0168624 -0.0602166 0.00949257 0 0 0 0.00421283 0.000247663 -0.000636674 -1.08079e-05 -7.62965e-06 -3.12487e-07 1 0 0 0 0 0 0 0 0 0 0 0 0 0 0 0 202 0.0008 0 
14381 3 0.0450522 -0.0603916 0.00855704 0 0 0 -0.00065621 -0.000119099 -0.000552089 -7.04808e-07 7.21842e-07 -9.46837e-07 0 0 1 0 0 0 0 0 1 0 0 0 0 0 0 0 44 0.0008 0 
5629 1 0.037674 -0.0604402 0.00829679 0 0 0 0.00768215 0.000878717 0.00470072 -3.37243e-15 -2.53693e-07 -1.35713e-06 0 0 0 0 0 0 0 0 0 0 0 0 0 0 0 0 121 0.0008 0 
3865 4 0.00220228 -0.0606464 0.00719161 0 0 0 0.00523709 0.00173456 -0.00318643 -9.66224e-06 -5.82097e-06 8.30958e-06 0 0 0 2 0 0 0 0 0 0 0 0 0 0 0 0 317 0.0008 0 
6920 6 0.0292434 -0.0608081 0.0063288 0 0 0 0.00488233 0.000493147 0.00272088 1.19301e-06 1.20096e-06 -5.89911e-07 0 0 0 0 0 1 0 0 0 0 0 0 0 0 0 0 223 0.0008 0 
3630 1 0.0190794 -0.060885 0.0059172 0 0 0 0.00861519 2.2498e-05 0.00126287 -1.68554e-06 -3.30318e-06 4.34679e-06 2 0 0 0 0 0 0 0 0 0 0 0 0 0 0 0 193 0.0008 0 
6076 6 0.00637917 -0.0607958 0.00639445 0 0 0 0.00326398 -0.000818158 -0.00346179 -6.3525e-09 2.68682e-06 -1.45499e-06 0 0 0 0 0 1 0 0 0 0 0 0 0 0 0 0 252 0.0008 0 
4900 4 0.0319496 -0.0437391 0.0038819 0 0 0 0.0141046 7.79463 87.4551 4.37676e-06 0.187757 -0.0167492 0 0 0 1 0 0 0 0 0 0 0 0 0 0 0 0 119 0.0008 0 
7478 3 0.0316426 -0.0422807 0.00347342 0 0 0 -0.000168439 6.95128 84.4774 -0.00406541 0.182715 -0.0143083 0 0 4 1 0 0 0 0 0 0 0 0 0 0 0 0 794 0.0008 0 
3345 7 0.0328149 -0.0419627 0.00269286 0 0 0 -0.00266746 5.42032 83.8807 0.000404793 0.180108 -0.0109277 0 0 1 0 0 0 3 0 0 0 0 0 0 0 0 0 294 0.0008 0 
11851 5 0.0313606 -0.0416296 0.00234731 0 0 0 -0.0297526 4.74536 83.2224 0.00100467 0.179229 -0.0104969 0 0 1 0 2 0 1 0 0 0 0 0 0 0 0 0 508 0.0008 0 
16108 5 0.0153408 -0.060125 0.00998284 0 0 0 0.00450564 -0.000932665 -0.00527095 4.12835e-08 -4.55855e-07 -1.31565e-06 0 0 0 0 0 0 0 0 0 0 0 0 0 0 0 0 159 0.0008 0 
13214 1 0.0127072 -0.0602009 0.00957698 0 0 0 0.00344961 -0.00041666 -0.00309762 1.14381e-09 -9.06228e-07 -1.23352e-06 0 0 0 0 0 0 0 0 0 0 0 0 0 0 0 0 161 0.0008 0 
8682 5 0.00497438 -0.0603324 0.00879615 0 0 0 -0.00162407 -0.00927705 0.00736 0 -1.05196e-05 0 0 0 0 0 0 0 0 0 0 0 0 0 0 0 0 0 253 0.0008 0 
13492 7 0.0360925 -0.0604936 0.0080111 0 0 0 0.00470018 0.00183257 0.00980332 1.04418e-14 -2.53652e-07 -1.35714e-06 0 0 0 0 0 0 0 0 0 0 0 0 0 0 0 0 74 0.0008 0 
7843 6 0.0172043 -0.0605063 0.00794299 0 0 0 0.0052107 0.000673156 0.00110245 -6.00032e-06 -2.94e-07 -8.24507e-07 0 0 0 0 0 2 0 0 0 0 0 0 0 0 0 0 175 0.0008 0 
6261 7 0.0345139 -0.0605543 0.00768665 0 0 0 0.00039823 0.0003948 0.00170725 9.26384e-08 2.08356e-07 -1.2517e-06 0 0 0 0 0 0 1 0 0 0 0 0 0 0 0 0 119 0.0008 0 
147 2 0.0273141 -0.0604398 0.00829912 0 0 0 0.00842291 -0.000618074 -0.0032557 5.62111e-10 -5.23194e-08 -1.396e-06 0 0 0 0 0 0 0 0 0 0 0 0 0 0 0 0 57 0.0008 0 
2966 5 0.0199202 -0.0603969 0.00852815 0 0 0 0.0114777 0.000886812 0.00490672 -1.31579e-05 -1.83107e-06 1.39211e-06 0 0 0 0 1 0 0 0 0 0 0 0 0 0 0 0 228 0.0008 0 
11656 4 0.0156819 -0.060416 0.00842603 0 0 0 0.00389469 0.000283008 -0.000219465 -2.70331e-06 -7.49351e-06 4.10175e-06 0 0 0 1 0 1 0 0 0 0 0 0 0 0 0 0 252 0.0008 0 
12475 3 0.0398176 -0.0608902 0.00588956 0 0 0 -0.00125736 -1.82898e-05 -9.78477e-05 -4.05636e-16 -2.53695e-07 -1.35713e-06 0 0 0 0 0 0 0 0 0 0 0 0 0 0 0 0 204 0.0008 0 
5113 5 0.000802795 -0.0604947 0.00800509 0 0 0 0.00125315 -0.00373616 -0.017395 -2.19191e-06 9.09409e-07 3.05777e-05 0 0 0 0 1 0 0 0 0 0 0 0 0 0 0 0 298 0.0008 0 
9957 4 0.0387118 -0.0606654 0.00709252 0 0 0 0.00381823 -8.4722e-05 -0.000827196 -1.01278e-05 5.16903e-06 -5.46899e-06 0 0 0 2 0 0 0 0 0 0 0 0 0 0 0 0 174 0.0008 0 
1039 2 0.0217911 -0.0607664 0.00655153 0 0 0 0.00503859 0.000877867 0.00124594 1.64542e-06 -8.70451e-06 -2.30158e-07 0 0 0 0 0 0 0 0 0 0 0 0 0 0 0 0 281 0.0008 0 
8128 3 0.0202529 -0.0606852 0.00698609 0 0 0 0.00802902 0.000805008 0.00342068 -1.82232e-06 9.15527e-07 -3.96341e-06 1 0 0 0 0 0 0 0 0 0 0 0 0 0 0 0 243 0.0008 0 
3998 3 0.0117915 -0.0607185 0.00680707 0 0 0 0.00345112 -0.000307783 -0.00472683 -1.31701e-05 -5.07015e-06 -9.17241e-06 0 0 1 0 0 0 0 0 0 0 0 0 0 0 0 0 303 0.0008 0 
17183 5 0.0258943 -0.0448611 0.00984769 0 0 0 0.403312 19.8821 90.3241 0.0628599 0.196104 0.00252428 0 0 0 0 3 0 0 0 0 0 0 0 0 0 0 0 199 0.0008 0 
5208 5 0.0265424 -0.0459924 0.00955568 0 0 0 6.41745 19.622 98.4989 -0.21697 -0.0183907 -0.321596 0 0 0 0 1 0 0 0 0 0 0 0 0 0 0 0 127 0.0008 0 
19642 8 0.0295105 -0.0434268 0.00657381 0 0 0 -0.0866809 12.8713 87.046 -0.0337109 0.620085 -0.194651 0 0 0 0 0 0 0 1 0 0 0 0 0 0 0 0 47 0.0012 0 
19073 1 0.0305365 -0.0424753 0.0053731 0 0 0 0.0401175 10.5392 85.0699 -0.18389 0.626089 -0.273118 2 0 0 0 0 0 0 1 0 0 0 0 0 0 0 0 89 0.0012 0 
3796 15 0.0325873 -0.0419617 0.00444721 0 0 0 0.0120468 8.86194 83.9094 0.00316209 0.18444 -0.0166081 0 0 1 0 0 0 0 0 0 0 0 0 0 0 3 0 607 0.0008 0 
19122 5 0.0305788 -0.0408557 0.00355141 0 0 0 0.0207417 7.09939 81.7353 -0.00373596 0.594336 -0.0586242 0 0 1 0 4 0 0 0 0 0 0 0 0 0 0 0 183 0.0012 0 
11780 5 0.0335712 -0.0413092 0.00376942 0 0 0 -0.00565455 7.53537 82.6037 0.000560366 0.176612 -0.0155135 0 0 0 0 2 0 1 0 0 0 0 0 0 0 1 0 552 0.0008 0 
19579 3 0.0324327 -0.0405197 0.0032475 0 0 0 0.000196711 6.49313 81.0389 0.00333244 0.583068 -0.0466244 0 0 6 0 3 0 1 0 0 0 0 0 0 0 1 0 248 0.0012 0 
14143 1 0.0316855 -0.0403593 0.00188198 0 0 0 -0.00650187 3.83029 80.7215 -0.000566292 0.172567 -0.00844053 0 0 1 0 1 0 0 0 0 0 0 0 0 0 0 0 384 0.0008 0 
6951 2 0.0333356 -0.0397317 0.00205667 0 0 0 -0.00409736 4.15417 79.4434 -0.000332164 0.170169 -0.00875638 0 1 1 0 0 0 0 0 0 0 0 0 0 0 0 0 667 0.0008 0 
13823 5 0.00637775 -0.0601899 0.00956094 0 0 0 0.00705808 -0.00752901 -2.94739e-05 0 -1.05196e-05 0 0 0 0 0 0 0 0 0 0 0 0 0 0 0 0 0 149 0.0008 0 
398 2 0.0297668 -0.0602683 0.00921195 0 0 0 0.000367846 0.000860016 -0.00368497 -3.40673e-06 -1.03472e-05 1.26083e-05 0 1 0 0 0 0 0 0 0 0 0 0 0 0 0 0 205 0.0008 0 
2858 2 0.00359211 -0.0600965 0.00958192 0 0 0 -0.00437526 0.0241938 0.00716714 0 -1.05196e-05 0 0 0 0 0 0 0 0 0 0 0 0 0 0 0 0 0 280 0.0008 0 
3491 3 0.0141626 -0.0603238 0.0089185 0 0 0 0.00260027 -0.000227142 -0.00150007 3.80542e-06 -6.04059e-06 2.2307e-06 0 0 1 1 0 0 0 0 0 0 0 0 0 0 0 0 215 0.0008 0 
4325 3 0.00221312 -0.0603529 0.00876417 0 0 0 0.00501038 0.00029224 0.000765727 -3.55275e-06 7.34457e-06 -1.16958e-05 0 0 0 1 0 0 0 0 0 0 0 0 0 0 0 0 276 0.0008 0 
5222 2 0.03954 -0.0260766 -0.0528176 0 0 0 -18.1349 -45.7459 26.0148 0 -1.05196e-05 0 0 0 0 0 0 0 0 0 0 0 0 0 0 0 0 0 84 0.0008 0 
9290 4 0.0257199 -0.0604091 0.00846326 0 0 0 0.00514512 -0.00017285 4.26843e-05 4.11118e-08 2.74192e-06 -1.93766e-06 0 0 0 0 0 0 0 0 0 0 0 0 0 0 0 0 103 0.0008 0 
5900 8 0.014504 -0.0606148 0.0073614 0 0 0 0.00548897 -0.000947722 -0.00327005 9.79301e-07 -9.49213e-06 -1.0108e-06 0 0 0 0 0 0 0 2 0 0 0 0 0 0 0 0 254 0.0008 0 
12396 1 0.0429304 -0.0607538 0.00661911 0 0 0 0.000433556 -0.000145197 -0.00193875 -1.45341e-06 9.14395e-07 -3.70224e-07 3 0 0 0 0 0 0 0 0 0 0 0 0 0 0 0 182 0.0008 0 
11044 4 0.0187291 -0.0605953 0.00746708 0 0 0 0.00661116 0.000926997 0.00680558 3.53526e-06 2.55496e-06 -2.75292e-06 0 0 0 0 0 1 0 0 0 0 0 0 0 0 0 0 236 0.0008 0 
9563 9 0.0355691 -0.0607297 0.00649659 0 0 0 0.00428803 -0.0105983 0.00613711 -3.31605e-06 -8.84895e-06 -7.36702e-07 0 0 0 0 0 0 0 0 1 0 0 0 0 0 0 0 188 0.0008 0 
4196 2 0.0413911 -0.060834 0.00618999 0 0 0 5.76739e-05 -0.000120372 -0.00062976 -1.34181e-07 -1.83776e-07 -2.9197e-07 0 2 0 0 0 0 0 0 0 0 0 0 0 0 0 0 263 0.0008 0 
7390 5 0.0249434 -0.0606253 0.00579981 0 0 0 0.00908271 0.0250044 -0.00441303 0 -1.05196e-05 0 0 0 0 0 0 0 0 0 0 0 0 0 0 0 0 0 161 0.0008 0 
12 4 0.00915634 -0.0607958 0.00639469 0 0 0 0.0110165 -0.0016828 -0.0087327 -8.05268e-11 -7.57257e-07 -1.26131e-06 0 0 0 0 0 0 0 0 0 0 0 0 0 0 0 0 389 0.0008 0 
1749 6 0.0175528 -0.060796 0.00639364 0 0 0 0.00934992 6.26079e-05 0.000432651 -2.68545e-08 -3.64407e-07 -1.39966e-06 0 0 0 0 0 0 0 0 0 0 0 0 0 0 0 0 195 0.0008 0 
3869 8 0.00358817 -0.0607936 0.00640645 0 0 0 0.00804654 -0.000367834 -0.00256116 -1.22328e-05 4.75909e-06 2.05251e-05 0 0 0 1 0 0 0 1 0 0 0 0 0 0 0 0 407 0.0008 0 
2800 3 0.0264978 -0.0440895 0.00949038 0 0 0 0.0815745 18.8316 88.1576 0.00923438 0.198766 -0.0303188 0 0 2 0 1 0 0 0 0 0 0 0 0 0 0 0 689 0.0008 0 
4454 12 0.0265484 -0.0424692 0.00914158 0 0 0 -0.0851646 18.2581 85.0179 0.000327847 0.182342 -0.0393248 0 0 0 0 0 0 0 0 0 0 0 4 0 0 0 0 840 0.0008 0 
2710 6 0.0272859 -0.0435939 0.00856716 0 0 0 0.00210708 17.1641 87.2025 -0.000516034 0.187259 -0.0368248 0 0 1 0 0 0 0 0 0 0 0 1 0 0 0 0 783 0.0008 0 
83 6 0.0275766 -0.042272 0.00807612 0 0 0 -0.106635 16.3631 84.6214 3.35138e-05 0.181397 -0.0355706 0 0 0 0 0 1 0 0 0 0 0 1 0 0 0 0 904 0.0008 0 
14906 2 0.0282536 -0.0417822 0.007524 0 0 0 0.0673704 14.8681 83.5158 -0.00015901 0.179023 -0.0314047 0 0 0 0 0 1 0 0 0 0 0 0 0 0 0 0 249 0.0008 0 
100 2 0.0318533 -0.0412717 0.00520448 0 0 0 0.120941 10.3574 82.5861 -0.00887061 0.181375 -0.0397106 1 2 0 0 0 0 0 0 0 0 0 0 0 0 1 0 997 0.0008 0 
16148 6 0.0305855 -0.0407792 0.0051323 0 0 0 0.0528724 10.1839 81.5145 -0.0161515 0.175756 -0.0234435 1 1 0 0 1 1 0 0 0 0 0 0 0 0 0 0 359 0.0008 0 
16766 3 0.0324976 -0.0402036 0.00517119 0 0 0 0.0168597 10.3065 80.4386 0.00318579 0.169774 -0.0188335 0 1 3 0 0 0 0 0 0 0 0 0 0 0 0 0 201 0.0008 0 
760 7 0.033413 -0.0403308 0.00449621 0 0 0 -0.0114141 9.01271 80.6535 0.000397599 0.173115 -0.0177968 0 0 2 0 1 0 1 0 0 0 0 0 0 0 0 0 873 0.0008 0 
564 10 0.0304223 -0.0391214 0.00300918 0 0 0 0.0479149 5.98619 78.2279 0.00185277 0.166312 -0.0252371 0 0 0 0 1 0 0 0 0 5 0 0 0 0 0 0 1012 0.0008 0 
13798 2 0.0319717 -0.0387698 0.00315292 0 0 0 -0.0159961 6.27595 77.532 0.00612851 0.165333 -0.0158991 0 5 1 0 0 0 0 0 0 1 0 0 0 0 0 0 508 0.0008 0 
847 1 0.0312926 -0.039497 0.00407042 0 0 0 0.0566499 8.13152 78.9914 0.00251921 0.170422 -0.022702 3 1 1 0 1 0 0 0 0 1 0 0 0 0 0 0 661 0.0008 0 
134 7 0.0336251 -0.0391941 0.00370995 0 0 0 0.00630127 7.44623 78.4056 3.20089e-05 0.168408 -0.0158088 0 0 1 0 0 0 3 0 0 0 0 0 0 0 0 0 822 0.0008 0 
12101 1 0.0311601 -0.0392337 0.0020575 0 0 0 -0.0149426 4.17644 78.4591 0.00115566 0.167861 -0.0116042 1 1 0 0 0 0 0 0 0 1 0 0 0 0 0 0 519 0.0008 0 
5427 6 0.032033 -0.0382173 0.00181541 0 0 0 0.0477067 3.63408 76.4417 0.000769896 0.165034 -0.00748485 1 1 0 0 0 2 0 0 0 0 0 0 0 0 0 0 467 0.0008 0 
9772 4 0.0333102 -0.0387451 0.00262382 0 0 0 0.0115263 5.1852 77.5366 4.42899e-05 0.165493 -0.0116801 0 2 0 1 0 0 1 0 0 0 0 0 0 0 0 0 715 0.0008 0 
1954 6 0.00342763 -0.0494101 -0.0304926 0 0 0 0.0556345 -5.11559 0.117456 0 -1.05196e-05 0 0 0 0 0 0 0 0 0 0 0 0 0 0 0 0 0 109 0.0008 0 
1937 15 0.0282159 -0.0601967 0.00959891 0 0 0 -0.00125178 0.000180301 -0.00147702 -1.46688e-07 -1.08615e-05 1.77529e-07 0 0 0 0 0 0 0 0 0 0 0 0 0 0 0 0 180 0.0008 0 
9965 4 0.0461396 -0.0606072 0.00740339 0 0 0 -0.000179887 4.02829e-06 -0.000181766 -4.92534e-07 1.69749e-07 -2.13289e-07 0 0 1 2 0 0 0 0 0 0 0 0 0 0 0 0 131 0.0008 0 
11745 5 0.0434028 -0.0604729 0.00812168 0 0 0 0.000222388 -0.000282122 -0.00184315 2.99111e-07 -8.60949e-07 -8.27368e-08 1 0 0 0 0 0 0 0 1 0 0 0 0 0 0 0 127 0.0008 0 
6782 5 0.0245675 -0.0606132 0.00737169 0 0 0 0.00726646 0.000583864 -0.00542175 -2.8092e-06 1.1334e-07 -1.11053e-06 0 0 0 0 2 0 0 0 0 0 0 0 0 0 0 0 174 0.0008 0 
4050 3 0.0063637 -0.0605 0.00797709 0 0 0 0.00604415 -6.18921e-05 -0.000366756 1.63963e-06 1.89773e-06 -5.58625e-07 0 0 0 0 0 0 0 0 0 0 0 0 0 0 0 0 242 0.0008 0 
9441 6 0.00498211 -0.0606481 0.0071828 0 0 0 0.0049162 -0.00303544 0.0008187 0 -1.05196e-05 0 0 0 0 0 0 0 0 0 0 0 0 0 0 0 0 0 234 0.0008 0 
10366 1 0.0339924 -0.0608322 0.00619986 0 0 0 0.0048852 -0.000372402 -0.000167004 -8.07654e-08 -1.12613e-06 -2.09563e-06 1 0 0 0 0 0 1 0 0 0 0 0 0 0 0 0 192 0.0008 0 
9120 7 0.0276948 -0.0607266 0.00676289 0 0 0 0.01153 -0.00119296 -0.000826613 -1.54992e-06 -9.83479e-06 2.12388e-06 0 0 0 0 0 0 2 0 0 0 0 0 0 0 0 0 173 0.0008 0 
2399 5 0.0257351 -0.0417993 0.00985774 0 0 0 -0.0627106 19.8315 83.6513 7.38425e-05 0.179834 -0.0426747 0 0 0 0 3 0 0 0 0 0 0 1 0 0 0 0 911 0.0008 0 
4081 6 0.0266557 -0.0413392 0.00907145 0 0 0 0.0658366 18.0514 82.6326 0.000199579 0.176886 -0.0387437 0 0 0 0 1 1 0 0 0 0 0 1 0 0 0 0 845 0.0008 0 
13155 7 0.0315245 -0.0394907 0.00520436 0 0 0 0.00948277 10.4111 78.9962 0.00181517 0.170321 -0.0241863 1 0 1 0 0 1 2 0 0 0 0 0 0 0 0 0 441 0.0008 0 
5066 2 0.0328873 -0.0389867 0.00472917 0 0 0 -0.00110128 9.42005 77.9834 0.000248792 0.169061 -0.020683 0 1 1 0 0 0 3 0 0 0 0 0 0 0 0 0 615 0.0008 0 
2167 5 0.0304219 -0.0386037 0.00426272 0 0 0 0.110839 8.5238 77.0386 -0.0203595 0.167018 -0.00261662 1 0 0 0 3 0 0 0 0 1 0 0 0 0 0 0 871 0.0008 0 
7604 2 0.0316065 -0.0381802 0.00435083 0 0 0 0.0619061 8.65955 76.2909 0.00203425 0.164351 -0.0268625 1 4 0 0 1 0 1 0 0 0 0 0 0 0 0 0 630 0.0008 0 
16871 1 0.0303231 -0.0378118 0.00305502 0 0 0 0.0392991 6.07619 75.5884 2.92125e-05 0.164303 -0.0209513 1 0 0 0 1 0 0 0 0 1 0 0 0 0 0 0 302 0.0008 0 
20087 3 0.0331704 -0.0373972 0.00346555 0 0 0 -0.000661077 6.91178 74.7872 0.00231808 0.542256 -0.0484951 0 2 6 1 0 0 1 0 0 0 0 0 0 0 0 0 37 0.0012 0 
16763 1 0.0310105 -0.0371301 0.00200786 0 0 0 0.0102419 3.99764 74.2709 0.000582606 0.160196 -0.0095961 1 0 0 0 0 1 0 0 0 0 0 0 0 0 0 0 298 0.0008 0 
47 1 0.0325003 -0.0369228 0.00180958 0 0 0 -0.00124359 3.6414 73.8477 2.6556e-05 0.158086 -0.00762467 1 0 1 0 0 1 0 0 0 0 0 0 0 0 0 0 867 0.0008 0 
15205 2 0.0456294 -0.053824 -0.0288233 0 0 0 -0.0207618 -0.023416 0.0378182 -8.0978e-19 -2.08228e-06 3.363e-06 0 0 0 0 0 0 0 0 0 0 0 0 0 0 0 0 33 0.0008 0 
10453 9 0.0266244 -0.0601654 0.00976588 0 0 0 -0.00439022 -9.16386e-05 0.00680588 0 -1.05196e-05 0 0 0 0 0 0 0 0 0 0 0 0 0 0 0 0 0 99 0.0008 0 
3561 10 0.0331619 -0.0603968 0.0085289 0 0 0 -0.0034146 -0.00033756 -0.00174183 -2.28948e-10 -2.29525e-07 -1.36095e-06 0 0 0 0 0 0 0 0 0 0 0 0 0 0 0 0 67 0.0008 0 
604 2 0.0242017 -0.0603076 0.00900638 0 0 0 0.00388598 0.00123974 0.00663205 -3.79342e-16 -2.53692e-07 -1.35713e-06 0 0 0 0 0 0 0 0 0 0 0 0 0 0 0 0 192 0.0008 0 
10479 4 0.0320093 -0.0606152 0.00736081 0 0 0 -0.000854521 -0.000678991 -0.00363226 6.13561e-16 -2.53717e-07 -1.35713e-06 0 0 0 0 0 0 0 0 0 0 0 0 0 0 0 0 147 0.0008 0 
1541 1 0.0103334 -0.0605961 0.0074629 0 0 0 0.0046307 -0.000626702 -0.00336127 -6.88188e-12 -2.53398e-07 -1.35728e-06 0 0 0 0 0 0 0 0 0 0 0 0 0 0 0 0 334 0.0008 0 
9650 1 0.0129835 -0.0605228 0.00785577 0 0 0 0.0053756 -0.000898898 -0.00482247 -3.10883e-06 1.52208e-05 -3.37678e-06 0 0 2 0 0 0 0 0 0 0 0 0 0 0 0 0 233 0.0008 0 
6486 2 0.045666 -0.060888 0.00590117 0 0 0 0.00106611 -0.000113922 -0.000502961 9.54996e-08 8.94064e-08 -2.35005e-07 0 2 0 1 0 0 0 0 0 0 0 0 0 0 0 0 218 0.0008 0 
6135 3 0.0445785 -0.0606724 0.00705482 0 0 0 0.000385558 -0.000136468 -0.00103749 5.31167e-07 -4.65254e-07 1.37958e-07 0 1 1 0 0 0 0 0 0 0 0 0 0 0 0 0 132 0.0008 0 
11423 4 0.0261044 -0.0606942 0.00693436 0 0 0 0.010474 -0.00140146 0.000868006 -2.67535e-06 -1.09633e-05 1.42938e-06 0 0 0 0 1 0 1 0 0 0 0 0 0 0 0 0 134 0.0008 0 
1890 2 0.0148502 -0.060905 0.00581122 0 0 0 0.0100471 -0.000427771 -0.00251883 -3.47893e-07 2.05024e-05 -3.58376e-06 0 1 0 0 0 0 0 0 0 0 0 0 0 0 0 0 191 0.0008 0 
4248 10 0.010618 -0.0609189 0.00573606 0 0 0 0.0126708 -0.0017784 -0.00951732 -1.9471e-07 -2.32152e-07 -1.18228e-06 0 0 0 0 0 0 0 0 0 0 0 0 0 0 0 0 303 0.0008 0 
5313 7 0.023369 -0.060816 0.00628595 0 0 0 0.0112944 0.00175488 0.00374623 1.68392e-05 -1.76638e-05 -4.7188e-05 0 0 0 0 0 0 1 0 0 0 0 0 0 0 0 0 205 0.0008 0 
10239 8 0.0258101 -0.0405606 0.0098119 0 0 0 0.0116554 19.6995 81.0857 -0.000234783 0.174347 -0.0426846 0 0 0 0 1 1 0 1 0 0 0 0 0 0 0 0 561 0.0008 0 
8933 4 0.0261007 -0.0393826 0.00934831 0 0 0 0.0240564 18.6883 78.704 5.05431e-06 0.168731 -0.039862 0 0 0 1 0 0 0 1 0 0 0 0 0 0 0 0 654 0.0008 0 
5616 7 0.030525 -0.0370829 0.00409322 0 0 0 0.0263921 8.19069 74.1429 -0.000560787 0.156636 -0.0204972 1 1 0 0 1 0 2 0 0 0 0 0 0 0 0 0 751 0.0008 0 
3304 6 0.0326037 -0.0361689 0.00476585 0 0 0 -0.00452649 9.44852 72.3499 0.000410685 0.155389 -0.020042 0 0 1 0 0 5 0 0 0 0 0 0 0 0 0 0 1024 0.0008 0 
759 5 0.0325471 -0.0377526 0.00498481 0 0 0 0.000535399 9.9345 75.5008 7.19815e-05 0.161904 -0.0206763 0 2 1 0 0 1 0 0 0 0 0 0 0 0 0 0 1030 0.0008 0 
9091 5 0.0314254 -0.0369563 0.00497086 0 0 0 0.0027524 9.8623 73.9341 -0.000176201 0.157969 -0.021831 0 1 0 0 1 1 1 0 0 0 0 0 0 0 0 0 621 0.0008 0 
2782 8 0.03202 -0.0363167 0.00351847 0 0 0 -0.0252963 6.99684 72.6473 -0.000118941 0.155836 -0.0148998 0 0 1 0 0 1 0 1 0 0 0 0 0 0 0 0 1034 0.0008 0 
3329 4 0.0334504 -0.0354479 0.00375361 0 0 0 -0.0107423 7.50344 70.9358 -8.21044e-05 0.152173 -0.0160281 0 0 1 2 0 1 0 0 0 0 0 0 0 0 0 0 912 0.0008 0 
18733 5 0.0306649 -0.0355522 0.00305515 0 0 0 -0.00347077 6.10573 71.0971 -0.000188883 0.513979 -0.0437638 1 0 0 0 4 0 1 1 0 0 0 0 0 0 0 0 409 0.0012 0 
6581 1 0.031629 -0.0357207 0.00158153 0 0 0 -0.00658772 3.18597 71.4323 0.000101428 0.153015 -0.00709515 1 0 0 0 1 0 0 0 0 0 0 0 0 0 0 0 664 0.0008 0 
739 7 0.0332835 -0.0358594 0.00237076 0 0 0 0.0159806 4.75572 71.7457 -0.000130185 0.153728 -0.0102967 1 0 1 1 0 0 1 0 0 0 0 0 0 0 0 0 962 0.0008 0 
2556 1 0.0311214 -0.0342991 0.00167657 0 0 0 -0.00861471 3.36358 68.6036 0.000232487 0.146867 -0.00729265 0 0 0 0 1 0 0 0 0 0 0 0 0 0 0 0 978 0.0008 0 
5110 13 0.0327159 -0.034649 0.00172228 0 0 0 -0.00189931 3.4292 69.2977 8.10379e-05 0.148589 -0.00719577 1 0 0 0 0 0 1 0 0 0 0 0 1 0 0 0 998 0.0008 0 
13018 4 0.022634 -0.0602405 0.00936535 0 0 0 0.000613516 0.000713302 0.00381097 1.59953e-13 -2.74103e-07 -1.35319e-06 0 0 0 0 0 0 0 0 0 0 0 0 0 0 0 0 182 0.0008 0 
5360 4 0.0422932 -0.060254 0.00929289 0 0 0 -0.00224496 -0.00118012 -0.00631306 5.13204e-20 -2.53692e-07 -1.35713e-06 0 0 0 0 0 0 0 0 0 0 0 0 0 0 0 0 140 0.0008 0 
3877 5 0.00936633 -0.0603569 0.00874249 0 0 0 0.00121049 0.00124922 0.0066689 1.69797e-12 -3.07901e-07 -1.34668e-06 0 0 0 0 0 0 0 0 0 0 0 0 0 0 0 0 234 0.0008 0 
3193 11 0.0304667 -0.0605334 0.00779807 0 0 0 -0.00116866 -0.000190935 -0.00459066 -1.89417e-06 -2.78073e-06 -3.01601e-07 0 1 0 0 0 0 0 0 0 0 1 0 0 0 0 0 150 0.0008 0 
10425 1 0.000842659 -0.0601998 0.00957704 0 0 0 -0.00650782 -0.00340814 -0.005437 4.56052e-05 -2.64739e-05 -8.16747e-05 1 0 0 0 1 0 0 0 0 0 0 0 0 0 0 0 198 0.0008 0 
8439 3 0.0230351 -0.0605287 0.0078235 0 0 0 0.00827837 -0.00179277 0.00409356 9.92086e-06 1.05849e-05 1.05684e-05 0 0 1 0 1 0 1 0 0 0 0 0 0 0 0 0 216 0.0008 0 
10606 8 0.0214621 -0.0604752 0.00810926 0 0 0 0.0118395 0.00261013 0.00723599 -2.94936e-05 6.54377e-07 1.536e-05 0 0 1 0 1 0 0 0 0 0 0 0 0 0 0 0 219 0.0008 0 
1165 1 0.00360066 -0.0604995 0.0079793 0 0 0 0.00533164 -0.00146174 -0.00782937 2.6043e-12 -2.53167e-07 -1.35734e-06 0 0 0 0 0 0 0 0 0 0 0 0 0 0 0 0 378 0.0008 0 
5191 1 0.0371406 -0.0607206 0.00679643 0 0 0 0.00360689 0.000819913 0.00375944 -9.57441e-06 -2.14527e-06 -3.08945e-06 0 0 0 1 0 0 0 0 1 0 0 0 0 0 0 0 172 0.0008 0 
2951 1 0.0324301 -0.0608992 0.00584104 0 0 0 0.00377657 0.000435579 0.00311442 -6.60468e-07 -3.86463e-06 5.66803e-07 1 0 0 0 0 0 0 0 0 0 0 0 0 0 0 0 204 0.0008 0 
9210 2 0.0133283 -0.0608143 0.00629476 0 0 0 0.00798852 0.000472741 -0.00768189 -2.15036e-05 1.54308e-05 1.23138e-05 0 1 0 0 0 0 0 1 0 0 0 0 0 0 0 0 260 0.0008 0 
6574 6 0.0160265 -0.0607055 0.00687778 0 0 0 0.00713832 0.000161835 -0.00210841 -4.76465e-07 -5.93108e-06 -2.04353e-07 0 0 0 0 0 0 0 1 0 0 0 0 0 0 0 0 218 0.0008 0 
9675 5 0.0254015 -0.0387887 0.0100155 0 0 0 0.0139943 20.0911 77.5875 -0.000190512 0.166499 -0.0433085 0 0 0 1 1 0 0 0 0 0 0 0 0 0 0 0 221 0.0008 0 
11146 1 0.0312839 -0.0354536 0.0047182 0 0 0 -0.00608979 9.35691 70.9084 2.6597e-05 0.151807 -0.0199148 0 0 0 0 2 1 0 0 0 0 0 0 0 0 0 0 548 0.0008 0 
6688 7 0.0323146 -0.0347735 0.00319271 0 0 0 0.00100791 6.3441 69.5514 2.5784e-05 0.148824 -0.013397 0 0 0 1 1 0 0 0 0 0 0 0 1 0 0 0 689 0.0008 0 
14055 8 0.0410231 -0.0554213 -0.0256249 0 0 0 -0.388819 0.0386249 -0.0997024 2.02099e-17 -9.80505e-07 2.53098e-06 0 0 0 0 0 0 0 0 0 0 0 0 0 0 0 0 35 0.0008 0 
1268 2 0.0210377 -0.0601824 0.009676 0 0 0 0.00325214 0.00133363 0.00705757 1.97701e-08 -5.83205e-07 -1.30068e-06 0 0 0 0 0 0 0 0 0 0 0 0 0 0 0 0 155 0.0008 0 
6154 8 0.0466156 -0.0603265 0.00890486 0 0 0 -2.72434e-05 -4.71114e-05 -0.000176114 -9.30215e-07 2.3967e-07 -7.63957e-07 0 0 0 1 0 0 0 1 0 0 0 0 0 0 0 0 124 0.0008 0 
5875 2 0.00775837 -0.0603528 0.00876412 0 0 0 0.00299236 -0.00135197 -0.00689142 2.56303e-07 -3.05749e-07 -2.02979e-06 0 0 0 0 0 0 0 0 0 0 0 0 0 0 0 0 206 0.0008 0 
10666 7 0.0418372 -0.0605391 0.00776736 0 0 0 0.00241076 4.28112e-05 0.000817765 -1.44005e-06 -6.40288e-06 2.45436e-06 1 0 0 0 0 0 0 0 0 0 0 0 0 0 0 0 173 0.0008 0 
5753 8 0.0402751 -0.0606028 0.00742697 0 0 0 0.00280655 -0.00205926 -0.0029546 -5.47665e-08 3.31689e-06 1.92925e-07 0 0 0 1 0 0 0 0 0 0 0 0 0 0 0 0 201 0.0008 0 
12874 9 0.0115258 -0.0603992 0.00851624 0 0 0 0.00769221 -0.000646045 -0.00344419 -4.77121e-12 -2.60486e-07 -1.35567e-06 0 0 0 0 0 0 0 0 0 0 0 0 0 0 0 0 195 0.0008 0 
3081 3 0.00776347 -0.0606483 0.0071835 0 0 0 0.0100734 -0.0023496 -0.0126882 9.29122e-07 -2.13071e-06 -1.36969e-06 0 0 0 0 0 0 0 0 0 0 0 0 0 0 0 0 220 0.0008 0 
2843 9 0.0308525 -0.0608187 0.00627209 0 0 0 0.0120845 -0.000596666 -0.00357567 2.30793e-06 3.23296e-06 -5.3715e-06 0 0 0 0 0 0 0 0 0 0 1 0 0 0 0 0 233 0.0008 0 
1776 3 0.0376346 -0.0601448 0.00987682 0 0 0 0.00425735 0.00122114 0.0065325 -1.78679e-15 -2.53687e-07 -1.35713e-06 0 0 0 0 0 0 0 0 0 0 0 0 0 0 0 0 112 0.0008 0 
4373 4 0.0313627 -0.0602452 0.00934006 0 0 0 -0.00648618 -0.00997281 -0.0552294 -4.77354e-09 3.44804e-08 -1.39347e-06 0 0 0 0 0 0 0 0 0 0 0 0 0 0 0 0 72 0.0008 0 
18855 5 0.00216231 -0.00540417 -0.0463126 0 0 0 1.75381 -33.1116 -0.883059 -0.01284 0.00260028 0.00585395 0 0 0 0 0 0 0 0 0 0 0 0 0 0 0 0 75 0.0012 0 
6493 9 0.0183895 -0.0603035 0.0090241 0 0 0 0.00599783 -0.000925776 -0.00241904 1.10158e-05 -1.4294e-05 9.30986e-07 1 0 0 0 0 0 0 0 0 0 0 0 0 0 0 0 199 0.0008 0 
510 4 0.0288643 -0.0605223 0.00785741 0 0 0 0.00138544 0.000343622 0.00182886 6.94176e-13 -2.43461e-07 -1.35923e-06 0 0 0 0 0 0 0 0 0 0 0 0 0 0 0 0 133 0.0008 0 
3551 3 0.034699 -0.0576457 -0.019883 0 0 0 0.249747 -0.098312 0.253772 4.72644e-18 -9.80505e-07 2.53098e-06 0 0 0 0 0 0 0 0 0 0 0 0 0 0 0 0 88 0.0008 0 
10842 11 0.0317403 -0.058957 -0.0162311 0 0 0 0.236459 -0.00275621 0.0147444 2.4339e-17 -2.53692e-07 1.35713e-06 0 0 0 0 0 0 0 0 0 0 0 0 0 0 0 0 49 0.0008 0 
874 2 0.0163934 -0.0591986 -0.014939 0 0 0 -0.01242 0.0248853 -0.133124 -1.85242e-18 -2.53692e-07 1.35713e-06 0 0 0 0 0 0 0 0 0 0 0 0 0 0 0 0 83 0.0008 0 
6450 6 0.0241761 -0.0590256 -0.0158641 0 0 0 0.0949695 0.0386876 -0.20696 -4.53215e-15 -2.53692e-07 1.35713e-06 0 0 0 0 0 0 0 0 0 0 0 0 0 0 0 0 121 0.0008 0 
924 3 0.033688 -0.0590758 -0.0155959 0 0 0 -0.0401803 -0.00394946 0.0211277 2.68721e-18 -2.53692e-07 1.35713e-06 0 0 0 0 0 0 0 0 0 0 0 0 0 0 0 0 86 0.0008 0 
17011 3 0.0394093 -0.0591343 -0.015283 0 0 0 0.0497636 -0.0146377 0.0783049 7.44434e-18 -2.53692e-07 1.35713e-06 0 0 0 0 0 0 0 0 0 0 0 0 0 0 0 0 47 0.0008 0 
16349 4 0.00272986 -0.059479 -0.013439 0 0 0 -0.00544794 0.00107707 -0.00502197 -4.17009e-07 7.82992e-07 1.49824e-06 0 0 0 1 0 0 0 0 0 0 0 0 0 0 0 0 40 0.0008 0 
8602 1 0.0130243 -0.0594414 -0.0136401 0 0 0 -0.0445076 0.0122196 -0.0653691 -4.49324e-18 -2.53692e-07 1.35713e-06 0 0 0 0 0 0 0 0 0 0 0 0 0 0 0 0 48 0.0008 0 
16806 4 0.0192763 -0.0593396 -0.0141846 0 0 0 -0.0132331 0.0187557 -0.100334 6.42703e-19 -2.53692e-07 1.35713e-06 0 0 0 0 0 0 0 0 0 0 0 0 0 0 0 0 65 0.0008 0 
12535 4 0.014582 -0.0584148 -0.00732373 0 0 0 4.5993 -0.808046 14.9022 0 -1.05196e-05 0 0 0 0 0 0 0 0 0 0 0 0 0 0 0 0 0 109 0.0008 0 
11726 4 0.00131444 -0.059617 -0.0127004 0 0 0 -0.00854011 0.00192501 -0.0103043 2.80368e-12 -2.51306e-07 1.35753e-06 0 0 0 0 0 0 0 0 0 0 0 0 0 0 0 0 61 0.0008 0 
16870 13 0.00414404 -0.0596164 -0.0127036 0 0 0 -0.00668115 -8.47251e-06 -0.000673852 2.96653e-07 -1.552e-06 1.13735e-06 0 0 0 1 0 0 0 0 0 0 0 0 0 0 0 0 81 0.0008 0 
4777 3 0.00561747 -0.0597786 -0.0118362 0 0 0 -0.0101887 -0.000892081 0.00477221 -9.47105e-19 -2.53692e-07 1.35713e-06 0 0 0 0 0 0 0 0 0 0 0 0 0 0 0 0 97 0.0008 0 
13872 3 0.0146648 -0.0595117 -0.013264 0 0 0 -0.0253193 0.0177749 -0.0950871 -1.16814e-18 -2.53692e-07 1.35713e-06 0 0 0 0 0 0 0 0 0 0 0 0 0 0 0 0 80 0.0008 0 
16168 4 0.0163866 -0.0597103 -0.0122013 0 0 0 -0.0122113 0.0141179 -0.0755238 -3.10711e-19 -2.53692e-07 1.35713e-06 0 0 0 0 0 0 0 0 0 0 0 0 0 0 0 0 112 0.0008 0 
1903 4 0.0227813 -0.0595624 -0.0129925 0 0 0 0.101122 0.019978 -0.106873 1.21674e-18 -2.53692e-07 1.35713e-06 0 0 0 0 0 0 0 0 0 0 0 0 0 0 0 0 128 0.0008 0 
18020 5 0.024862 -0.059506 -0.0132943 0 0 0 0.0705469 0.0272578 -0.145816 -6.04021e-18 -2.53692e-07 1.35713e-06 0 0 0 0 0 0 0 0 0 0 0 0 0 0 0 0 45 0.0008 0 
4719 3 0.00081821 -0.059898 -0.0111974 0 0 0 -0.00451878 0.00162727 -0.0087044 -1.57964e-13 -2.51726e-07 1.35752e-06 0 0 0 0 0 0 0 0 0 0 0 0 0 0 0 0 129 0.0008 0 