ITEM: TIMESTEP
850000
ITEM: NUMBER OF ATOMS
1648
ITEM: BOX BOUNDS ff ff ff
-0.01 0.45
-0.15 0.15
-0.08 0.1
ITEM: ATOMS id type x y z ix iy iz vx vy vz fx fy fz c_cc_1 c_cc_2 c_cc_3 c_cc_4 c_cc_5 c_cc_6 c_cc_7 c_cc_8 c_cc_9 c_cc_10 c_cc_11 c_cc_12 c_cc_13 c_cc_14 c_cc_15 c_cc_16 f_fppacc radius c_cc_17 
1591 4 0.0134268 -0.00701536 -0.060347 0 0 0 -0.0294243 -0.142534 0.0502982 0 -1.05196e-05 0 0 0 0 0 0 0 0 0 0 0 0 0 0 0 0 0 0 0.0008 0 
869 5 0.0143551 -0.0133799 -0.0595501 0 0 0 0.00829733 -0.060774 -0.119084 -0.000359911 0.00157904 0.00318579 0 0 0 0 0 0 0 0 0 0 0 0 0 0 0 0 0 0.0008 0 
826 1 0.0117874 -0.0216977 -0.0570288 0 0 0 -0.0135485 -0.736533 0.220039 0 -1.05196e-05 0 0 0 0 0 0 0 0 0 0 0 0 0 0 0 0 0 0 0.0008 0 
991 5 0.0125656 -0.00906823 -0.0563691 0 0 0 -3.88124 -30.8129 -6.26415 0 -1.05196e-05 0 0 0 0 0 0 0 0 0 0 0 0 0 0 0 0 0 0 0.0008 0 
1468 5 0.0100012 -0.00720107 -0.0551895 0 0 0 2.85853 -7.89232 0.48914 0 -1.05196e-05 0 0 0 0 0 0 0 0 0 0 0 0 0 0 0 0 0 0 0.0008 0 
839 1 0.0123238 -0.0293067 -0.053479 0 0 0 -0.00264761 -0.235782 0.117409 2.22085e-09 -6.32867e-06 3.15398e-06 0 0 0 0 0 0 0 0 0 0 0 0 0 0 0 0 0 0.0008 0 
1039 2 0.00885489 -0.0417614 -0.0446417 0 0 0 -0.0515289 -1.46555 1.02243 -0.00278347 0.00414494 0.00370688 0 0 0 0 0 0 0 0 0 0 0 0 0 0 0 0 0 0.0008 0 
1242 4 0.00262025 -0.0198032 -0.0442065 0 0 0 0.288408 -12.6296 -9.13334 0 -1.05196e-05 0 0 0 0 0 0 0 0 0 0 0 0 0 0 0 0 0 0 0.0008 0 
403 6 0.0145459 -0.0376796 -0.04263 0 0 0 0.228526 -7.68485 5.49112 0 -1.05196e-05 0 0 0 0 0 0 0 0 0 0 0 0 0 0 0 0 0 0 0.0008 0 
568 1 0.0160291 -0.0477841 -0.0380331 0 0 0 -0.0464646 -0.347667 0.379189 -2.21065e-09 2.69588e-06 3.73658e-06 0 0 0 0 0 0 0 0 0 0 0 0 0 0 0 0 0 0.0008 0 
937 9 0.0141367 -0.0458861 -0.0367986 0 0 0 3.97902 -28.4107 34.7011 0 -1.05196e-05 0 0 0 0 0 0 0 0 0 0 0 0 0 0 0 0 0 0 0.0008 0 
731 2 0.00172282 -0.0490922 -0.0363548 0 0 0 -0.0311834 -0.321202 0.692674 0 -1.05196e-05 0 0 0 0 0 0 0 0 0 0 0 0 0 0 0 0 0 0 0.0008 0 
209 4 0.0155629 -0.0490237 -0.0365354 0 0 0 0.0219423 -0.274245 0.515975 0 -1.05196e-05 0 0 0 0 0 0 0 0 0 0 0 0 0 0 0 0 0 0 0.0008 0 
1562 3 0.0178468 -0.0455583 -0.0355198 0 0 0 8.44277 -32.7116 36.1714 0 -1.05196e-05 0 0 0 0 0 0 0 0 0 0 0 0 0 0 0 0 0 0 0.0008 0 
512 13 0.00994936 -0.0482083 -0.0309687 0 0 0 -1.21597 -9.4519 15.2591 0 -1.05196e-05 0 0 0 0 0 0 0 0 0 0 0 0 0 0 0 0 0 0 0.0008 0 
1534 1 0.0149458 -0.0522214 -0.0276316 0 0 0 -4.87889e-13 -5.33502 9.29575 0 -1.05196e-05 0 0 0 0 0 0 0 0 0 0 0 0 0 0 0 0 0 0 0.0008 0 
1460 13 0.00886192 -0.0333252 -0.0239113 0 0 0 0.496862 -1.14021 1.3463 0 -1.05196e-05 0 0 0 0 0 0 0 0 0 0 0 0 0 0 0 0 0 0 0.0008 0 
795 7 0.00569269 -0.0564751 -0.0165681 0 0 0 1.04021 -1.87582 5.31746 0 -1.05196e-05 0 0 0 0 0 0 0 0 0 0 0 0 0 0 0 0 0 0 0.0008 0 
1399 3 0.0176661 -0.0594051 -0.0116824 0 0 0 -0.496668 -0.438918 1.89851 0.000121954 -0.000890423 -0.000649527 0 0 0 0 0 0 0 0 0 0 0 0 0 0 0 0 0 0.0008 0 
412 6 0.00361279 -0.0608444 -0.00565709 0 0 0 -0.492295 -0.0834643 0.631077 0 -1.05196e-05 0 0 0 0 0 0 0 0 0 0 0 0 0 0 0 0 0 0 0.0008 0 
172 1 0.00555382 -0.0608423 -0.00528829 0 0 0 -0.227291 -0.28527 0.415364 0 -1.05196e-05 0 0 0 0 0 0 0 0 0 0 0 0 0 0 0 0 0 0 0.0008 0 
1477 1 0.0179522 -0.0555025 0.00293886 0 0 0 2.73772 0.434418 3.51918 0 -1.05196e-05 0 0 0 0 0 0 0 0 0 0 0 0 0 0 0 0 0 0 0.0008 0 
317 1 0.00466198 -0.0607441 0.00667115 0 0 0 -0.205147 0.00661475 0.0354497 -5.16511e-06 -2.04934e-07 -1.3639e-06 0 0 0 0 0 0 0 0 0 0 0 0 0 0 0 0 0 0.0008 0 
18 2 0.00643087 -0.0603745 0.00864828 0 0 0 0.139929 0.0208955 0.111781 -3.14484e-06 -1.10926e-06 -5.93398e-06 0 0 0 0 0 0 0 0 0 0 0 0 0 0 0 0 0 0.0008 0 
537 1 0.0152657 -0.0602979 0.00905825 0 0 0 -0.0761013 0.0467355 0.250012 4.01448e-17 -2.53692e-07 -1.35713e-06 0 0 0 0 0 0 0 0 0 0 0 0 0 0 0 0 0 0.0008 0 
248 8 0.000930543 -0.0601984 0.00922739 0 0 0 0.0935918 -0.0284005 -0.341717 0 -1.05196e-05 0 0 0 0 0 0 0 0 0 0 0 0 0 0 0 0 0 0 0.0008 0 
458 3 0.00158479 -0.0599005 0.0111837 0 0 0 0.238893 -0.00997547 -0.0664306 -2.68351e-06 -1.58878e-05 1.8441e-06 0 0 0 0 0 0 0 0 0 0 0 0 0 0 0 0 0 0.0008 0 
39 7 0.0186973 -0.0595727 0.0129374 0 0 0 -0.00452841 -0.018343 -0.0981262 1.77369e-18 -2.53692e-07 -1.35713e-06 0 0 0 0 0 0 0 0 0 0 0 0 0 0 0 0 0 0.0008 0 
1367 1 0.0047438 -0.0595041 0.0133047 0 0 0 -0.0034896 -0.0114559 -0.0612835 3.00693e-18 -2.53692e-07 -1.35713e-06 0 0 0 0 0 0 0 0 0 0 0 0 0 0 0 0 0 0.0008 0 
1499 11 0.0100822 -0.0547614 0.0150934 0 0 0 0.45281 5.32885 9.28696 0 -1.05196e-05 0 0 0 0 0 0 0 0 0 0 0 0 0 0 0 0 0 0 0.0008 0 
733 3 0.00136405 -0.0589586 0.0158843 0 0 0 0.00767128 -6.71985e-05 -0.0707094 0 -1.05196e-05 0 0 0 0 0 0 0 0 0 0 0 0 0 0 0 0 0 0 0.0008 0 
101 5 0.00278323 -0.0588178 0.0167791 0 0 0 0.000957728 0.0117048 -0.0352801 0 -1.05196e-05 0 0 0 0 0 0 0 0 0 0 0 0 0 0 0 0 0 0 0.0008 0 
1404 3 0.0114964 -0.0562079 0.0164007 0 0 0 3.28626 3.37962 8.34174 0 -1.05196e-05 0 0 0 0 0 0 0 0 0 0 0 0 0 0 0 0 0 0 0.0008 0 
691 1 0.013028 -0.0772825 0.0174186 0 0 0 -0.00152695 -0.618603 -0.0164245 0 -1.05196e-05 0 0 0 0 0 0 0 0 0 0 0 0 0 0 0 0 0 0 0.0008 0 
690 7 0.00423226 -0.0585184 0.0176305 0 0 0 0.0152727 -0.0118037 -0.0304688 -1.09584e-14 -9.8049e-07 -2.53098e-06 0 0 0 0 0 0 0 0 0 0 0 0 0 0 0 0 0 0.0008 0 
239 11 0.0083477 -0.0580261 0.0178795 0 0 0 -0.00469034 -0.0759223 0.0287996 0 -1.05196e-05 0 0 0 0 0 0 0 0 0 0 0 0 0 0 0 0 0 0 0.0008 0 
1172 1 0.00680616 -0.0573726 0.0205542 0 0 0 -0.0747916 -0.00136862 -0.000593541 0 -1.05196e-05 0 0 0 0 0 0 0 0 0 0 0 0 0 0 0 0 0 1 0.0008 0 
781 1 0.00986033 -0.0439225 0.0232344 0 0 0 1.46862 2.53347 4.39377 0 -1.05196e-05 0 0 0 0 0 0 0 0 0 0 0 0 0 0 0 0 0 0 0.0008 0 
1535 4 0.00293781 -0.05364 0.0247007 0 0 0 0.677867 7.48929 16.8022 0 -1.05196e-05 0 0 0 0 0 0 0 0 0 0 0 0 0 0 0 0 0 0 0.0008 0 
421 6 0.0163929 -0.052689 0.0299194 0 0 0 0.170558 -0.460234 -0.719272 0 -1.05196e-05 0 0 0 0 0 0 0 0 0 0 0 0 0 0 0 0 0 0 0.0008 0 
222 1 0.00435267 -0.050834 0.0298657 0 0 0 1.57116 16.1413 19.7146 0 -1.05196e-05 0 0 0 0 0 0 0 0 0 0 0 0 0 0 0 0 0 1 0.0008 0 
341 5 -0.00542364 -0.0994029 0.0325965 0 0 0 -0.146829 -0.934463 0.0474437 0 -1.05196e-05 0 0 0 0 0 0 0 0 0 0 0 0 0 0 0 0 0 0 0.0008 0 
286 8 0.0072968 -0.0473102 0.0346984 0 0 0 2.18578 4.52327 5.4874 0 -1.05196e-05 0 0 0 0 0 0 0 0 0 0 0 0 0 0 0 0 0 0 0.0008 0 
85 5 0.00187176 -0.105996 0.0361207 0 0 0 -0.195882 -0.987539 0.227304 0 -1.05196e-05 0 0 0 0 0 0 0 0 0 0 0 0 0 0 0 0 0 0 0.0008 0 
948 5 0.0101347 -0.0315791 0.0366861 0 0 0 0.111925 -2.21066 0.131206 0 -1.05196e-05 0 0 0 0 0 0 0 0 0 0 0 0 0 0 0 0 0 0 0.0008 0 
1605 6 0.00386742 -0.044677 0.0385307 0 0 0 0.748996 16.6524 16.1496 -0.000172595 0.0161627 -0.00372535 0 0 0 0 0 0 0 0 0 0 0 0 0 0 0 0 0 0.0008 0 
1275 5 0.00196308 -0.00161007 0.0420518 0 0 0 0.414527 -3.58365 1.59215 0 -1.05196e-05 0 0 0 0 0 0 0 0 0 0 0 0 0 0 0 0 0 0 0.0008 0 
1332 3 0.0144434 -0.0179338 0.0429319 0 0 0 3.15427 13.1338 3.66621 0 -1.05196e-05 0 0 0 0 0 0 0 0 0 0 0 0 0 0 0 0 0 0 0.0008 0 
710 5 0.00167194 -0.0386105 0.0472015 0 0 0 -0.448336 -0.181187 -0.136826 1.39729e-17 -4.78501e-06 -3.61347e-06 0 0 0 0 0 0 0 0 0 0 0 0 0 0 0 0 1 0.0008 0 
1418 1 0.0147127 -0.0170351 0.0498841 0 0 0 6.75209 2.36904 -4.01547 0 -1.05196e-05 0 0 0 0 0 0 0 0 0 0 0 0 0 0 0 0 0 0 0.0008 0 
48 1 0.0106035 -0.0131334 0.0493668 0 0 0 0.609963 2.22787 -1.14241 0 -1.05196e-05 0 0 0 0 0 0 0 0 0 0 0 0 0 0 0 0 0 0 0.0008 0 
1505 3 0.00605607 -0.0171711 0.0561986 0 0 0 -3.14131 13.9326 6.69868 0 -1.05196e-05 0 0 0 0 0 0 0 0 0 0 0 0 0 0 0 0 0 0 0.0008 0 
899 6 0.00199129 -0.0015463 0.0557157 0 0 0 0.0771264 3.53408 -1.03426 0 -1.05196e-05 0 0 0 0 0 0 0 0 0 0 0 0 0 0 0 0 0 0 0.0008 0 
1101 5 0.00236602 -0.00141559 0.0587142 0 0 0 0.694161 22.2844 0.792719 0 -1.05196e-05 0 0 0 0 0 0 0 0 0 0 0 0 0 0 0 0 0 0 0.0008 0 
1355 10 0.00979389 0.0140225 -0.0591516 0 0 0 0.491632 0.858747 0.35594 0 -1.05196e-05 0 0 0 0 0 0 0 0 0 0 0 0 0 0 0 0 0 0 0.0008 0 
535 7 0.0185827 0.0209066 -0.0546919 0 0 0 2.04574 -3.83162 -1.59401 0 -1.05196e-05 0 0 0 0 0 0 0 0 0 0 0 0 0 0 0 0 0 0 0.0008 0 
284 7 0.00782523 0.0232863 -0.0522383 0 0 0 -1.22923 -3.46008 -2.18169 0 -1.05196e-05 0 0 0 0 0 0 0 0 0 0 0 0 0 0 0 0 0 0 0.0008 0 
1555 2 0.0111414 0.0247815 -0.0503574 0 0 0 1.11461 -3.30386 -0.602914 0 -1.05196e-05 0 0 0 0 0 0 0 0 0 0 0 0 0 0 0 0 0 0 0.0008 0 
1521 1 0.00525156 0.0296959 -0.0499409 0 0 0 0.762879 -2.97569 -1.70273 0 -1.05196e-05 0 0 0 0 0 0 0 0 0 0 0 0 0 0 0 0 0 0 0.0008 0 
1576 8 0.0181053 0.0214888 -0.045539 0 0 0 1.48889 -1.51923 0.344068 0 -1.05196e-05 0 0 0 0 0 0 0 0 0 0 0 0 0 0 0 0 0 0 0.0008 0 
1405 7 0.00646235 0.0330909 -0.0439666 0 0 0 0.650728 -3.18171 -2.04453 0 -1.05196e-05 0 0 0 0 0 0 0 0 0 0 0 0 0 0 0 0 0 0 0.0008 0 
1032 1 0.00642371 0.0423091 -0.0434575 0 0 0 -0.0114304 -0.133707 -0.146669 -9.18377e-18 -3.41023e-06 -3.74085e-06 0 0 0 0 0 0 0 0 0 0 0 0 0 0 0 0 0 0.0008 0 
1554 2 0.0156782 0.0180098 -0.0352028 0 0 0 0.183948 -2.6671 -5.12379 0 -1.05196e-05 0 0 0 0 0 0 0 0 0 0 0 0 0 0 0 0 0 0 0.0008 0 
283 5 0.00826752 0.0521736 -0.0355 0 0 0 3.73192e-302 8.48762e-20 -3.53506e-12 -9.48529e-308 0 -2.22045e-16 0 0 0 0 0 0 0 0 0 0 0 0 0 0 0 0 0 0.0008 0 
478 2 0.00652095 0.0529084 -0.0355 0 0 0 -2.37424e-302 3.77844e-20 -2.36061e-12 9.29389e-308 0 2.22045e-16 0 0 0 0 0 0 0 0 0 0 0 0 0 0 0 0 0 0.0008 0 
871 8 0.00632976 0.0557836 -0.0355 0 0 0 -2.08646e-302 8.48221e-20 -2.36058e-12 9.4945e-308 -8.47033e-22 -2.22045e-16 0 0 0 0 0 0 0 0 0 0 0 0 0 0 0 0 1 0.0008 0 
791 4 0.0055267 0.0157102 -0.033738 0 0 0 0.876257 -2.7938 -4.1143 0 -1.05196e-05 0 0 0 0 0 0 0 0 0 0 0 0 0 0 0 0 0 0 0.0008 0 
1200 7 0.00559463 0.069995 -0.033832 0 0 0 0.783675 -1.9278 0.857004 0 -1.05196e-05 0 0 0 0 0 0 0 0 0 0 0 0 0 0 0 0 0 0 0.0008 0 
745 6 0.00267007 0.10485 -0.0340351 0 0 0 0.583304 -0.823127 0.204616 0 -1.05196e-05 0 0 0 0 0 0 0 0 0 0 0 0 0 0 0 0 0 0 0.0008 0 
594 1 0.017183 0.109205 -0.034032 0 0 0 -1.69565 -3.68837 -1.24478 0.0541319 0.0591776 0.0071937 0 0 0 0 0 0 0 0 0 0 0 0 0 0 0 0 0 0.0008 0 
1457 4 0.0111898 0.0416229 -0.0332934 0 0 0 -2.99507 -1.04475 -9.00379 0 -1.05196e-05 0 0 0 0 0 0 0 0 0 0 0 0 0 0 0 0 0 0 0.0008 0 
1575 2 0.00682576 0.0453346 -0.0326839 0 0 0 -0.184474 6.7713 -16.0105 0 -1.05196e-05 0 0 0 0 0 0 0 0 0 0 0 0 0 0 0 0 0 0 0.0008 0 
978 3 0.0148678 0.0518111 -0.0325624 0 0 0 2.04051 -6.13551 3.1549 0 -1.05196e-05 0 0 0 0 0 0 0 0 0 0 0 0 0 0 0 0 0 0 0.0008 0 
247 8 0.0115732 0.0946345 -0.0331304 0 0 0 3.7134 1.63977 1.39501 0 -1.05196e-05 0 0 0 0 0 0 0 0 0 0 0 0 0 0 0 0 0 0 0.0008 0 
256 3 0.00380096 0.104319 -0.0325838 0 0 0 -1.11289 -0.25584 2.56219 0 -1.05196e-05 0 0 0 0 0 0 0 0 0 0 0 0 0 0 0 0 0 0 0.0008 0 
684 7 0.00478768 0.0373007 -0.0318695 0 0 0 0.203093 -1.96372 -0.370429 0 -1.05196e-05 0 0 0 0 0 0 0 0 0 0 0 0 0 0 0 0 0 0 0.0008 0 
289 4 0.00623454 0.0402862 -0.0315681 0 0 0 -0.960301 -3.10711 0.168538 0 -1.05196e-05 0 0 0 0 0 0 0 0 0 0 0 0 0 0 0 0 0 0 0.0008 0 
974 1 0.0117542 0.0421687 -0.0317865 0 0 0 1.63972 -4.73934 -2.68391 0 -1.05196e-05 0 0 0 0 0 0 0 0 0 0 0 0 0 0 0 0 0 0 0.0008 0 
1353 4 0.00895336 0.059858 -0.0317206 0 0 0 0.796327 -1.38797 0.178637 0 -1.05196e-05 0 0 0 0 0 0 0 0 0 0 0 0 0 0 0 0 0 0 0.0008 0 
823 9 0.00269723 0.0756918 -0.0316636 0 0 0 0.548631 0.279441 -2.16603 0 -1.05196e-05 0 0 0 0 0 0 0 0 0 0 0 0 0 0 0 0 0 1 0.0008 0 
1248 6 0.00299051 0.0865022 -0.0313308 0 0 0 2.38036 -1.70825 0.23934 0 -1.05196e-05 0 0 0 0 0 0 0 0 0 0 0 0 0 0 0 0 0 0 0.0008 0 
1272 2 0.0106994 0.106379 -0.0321981 0 0 0 2.12152 -2.59601 -1.56388 0 -1.05196e-05 0 0 0 0 0 0 0 0 0 0 0 0 0 0 0 0 0 0 0.0008 0 
701 2 0.00761499 0.107288 -0.0313309 0 0 0 0.616555 -4.50343 5.41241 0 -1.05196e-05 0 0 0 0 0 0 0 0 0 0 0 0 0 0 0 0 0 0 0.0008 0 
1402 4 0.00943763 0.107923 -0.0323287 0 0 0 1.91455 -1.13188 0.998825 0 -1.05196e-05 0 0 0 0 0 0 0 0 0 0 0 0 0 0 0 0 0 0 0.0008 0 
1385 1 0.0150384 0.0704223 -0.0303796 0 0 0 -1.43761 -3.12404 -4.02998 0 -1.05196e-05 0 0 0 0 0 0 0 0 0 0 0 0 0 0 0 0 0 1 0.0008 0 
783 5 0.0122831 0.0708291 -0.0308078 0 0 0 3.44001 -2.17603 0.344731 0 -1.05196e-05 0 0 0 0 0 0 0 0 0 0 0 0 0 0 0 0 0 0 0.0008 0 
1518 6 0.00378535 0.0845198 -0.0312136 0 0 0 3.62065 12.2956 -30.2779 0 -1.05196e-05 0 0 0 0 0 0 0 0 0 0 0 0 0 0 0 0 0 0 0.0008 0 
903 2 0.00565818 0.102393 -0.030686 0 0 0 0.0504188 1.81476 5.70735 0 -1.05196e-05 0 0 0 0 0 0 0 0 0 0 0 0 0 0 0 0 0 0 0.0008 0 
543 5 0.0114066 0.0946116 -0.0295812 0 0 0 -3.8987 7.12778 -7.4523 0 -1.05196e-05 0 0 0 0 0 0 0 0 0 0 0 0 0 0 0 0 0 0 0.0008 0 
1550 11 0.0106961 0.104198 -0.0299678 0 0 0 0.273462 -0.116784 0.830468 0 -1.05196e-05 0 0 0 0 0 0 0 0 0 0 0 0 0 0 0 0 0 0 0.0008 0 
1624 4 0.0171521 0.104199 -0.0298822 0 0 0 -7.45931 -1.0155 2.95471 0 -1.05196e-05 0 0 0 0 0 0 0 0 0 0 0 0 0 0 0 0 0 0 0.0008 0 
1183 1 0.013378 0.107245 -0.0297447 0 0 0 1.18153 -0.418717 0.751915 0 -1.05196e-05 0 0 0 0 0 0 0 0 0 0 0 0 0 0 0 0 0 0 0.0008 0 
263 3 0.0160464 0.108377 -0.0297041 0 0 0 -3.95941 -0.571046 0.0729084 0 -1.05196e-05 0 0 0 0 0 0 0 0 0 0 0 0 0 0 0 0 0 0 0.0008 0 
987 7 0.00325223 0.095106 -0.0291218 0 0 0 0.946617 1.83752 -2.31458 0 -1.05196e-05 0 0 0 0 0 0 0 0 0 0 0 0 0 0 0 0 0 0 0.0008 0 
727 9 0.0185124 0.080319 -0.0281158 0 0 0 0.202727 1.95343 -2.31481 0 -1.05196e-05 0 0 0 0 0 0 0 0 0 0 0 0 0 0 0 0 0 0 0.0008 0 
1515 1 0.0115637 0.0820459 -0.0278585 0 0 0 0.503749 -3.48127 1.33499 0 -1.05196e-05 0 0 0 0 0 0 0 0 0 0 0 0 0 0 0 0 0 0 0.0008 0 
1052 3 0.0165611 0.0981906 -0.0278878 0 0 0 1.58952 -1.39314 -0.100411 0 -1.05196e-05 0 0 0 0 0 0 0 0 0 0 0 0 0 0 0 0 0 1 0.0008 0 
349 8 0.0145079 0.105981 -0.027267 0 0 0 0.311483 -1.27732 0.519317 0 -1.05196e-05 0 0 0 0 0 0 0 0 0 0 0 0 0 0 0 0 0 0 0.0008 0 
1083 6 0.0168383 0.109072 -0.0276654 0 0 0 -3.01216 2.46295 2.15549 0 -1.05196e-05 0 0 0 0 0 0 0 0 0 0 0 0 0 0 0 0 0 0 0.0008 0 
528 7 0.0117146 0.0566012 -0.0261688 0 0 0 0.0207093 -0.142916 3.55035 0 -1.05196e-05 0 0 0 0 0 0 0 0 0 0 0 0 0 0 0 0 0 0 0.0008 0 
1573 1 0.0110407 0.0583751 -0.0270063 0 0 0 0.981091 1.14744 -1.84134 0 -1.05196e-05 0 0 0 0 0 0 0 0 0 0 0 0 0 0 0 0 0 0 0.0008 0 
1306 8 0.0184485 0.0892772 -0.0262038 0 0 0 -3.24391 1.71649 -1.53235 0 -1.05196e-05 0 0 0 0 0 0 0 0 0 0 0 0 0 0 0 0 0 0 0.0008 0 
433 5 0.00939261 0.107493 -0.0262241 0 0 0 -0.944325 -0.950704 1.45604 0 -1.05196e-05 0 0 0 0 0 0 0 0 0 0 0 0 0 0 0 0 0 0 0.0008 0 
1540 4 0.0075016 0.055714 -0.0239189 0 0 0 1.00524 -2.10604 -4.92472 0 -1.05196e-05 0 0 0 0 0 0 0 0 0 0 0 0 0 0 0 0 0 0 0.0008 0 
1566 5 0.0068249 0.0691189 -0.0244864 0 0 0 -0.00195456 -4.75663 3.76657 0 -1.05196e-05 0 0 0 0 0 0 0 0 0 0 0 0 0 0 0 0 0 0 0.0008 0 
983 2 0.00326599 0.0853518 -0.0242659 0 0 0 -2.70167 -0.2784 -6.64563 0 -1.05196e-05 0 0 0 0 0 0 0 0 0 0 0 0 0 0 0 0 0 0 0.0008 0 
1498 7 0.00746731 0.103172 -0.0245356 0 0 0 -0.145605 1.45278 1.6414 0 -1.05196e-05 0 0 0 0 0 0 0 0 0 0 0 0 0 0 0 0 0 0 0.0008 0 
533 2 0.00955885 0.103355 -0.0240322 0 0 0 0.780603 -2.04594 0.39537 0 -1.05196e-05 0 0 0 0 0 0 0 0 0 0 0 0 0 0 0 0 0 0 0.0008 0 
1354 5 0.00755313 0.0455581 -0.022849 0 0 0 -0.264919 -0.0227401 0.140209 0 -1.05196e-05 0 0 0 0 0 0 0 0 0 0 0 0 0 0 0 0 0 0 0.0008 0 
1216 4 0.0127271 0.0803587 -0.0229816 0 0 0 3.10155 -6.16441 3.51882 0 -1.05196e-05 0 0 0 0 0 0 0 0 0 0 0 0 0 0 0 0 0 0 0.0008 0 
135 1 0.00496024 0.0961584 -0.0233016 0 0 0 1.10005 1.57963 -0.0711937 0 -1.05196e-05 0 0 0 0 0 0 0 0 0 0 0 0 0 0 0 0 0 0 0.0008 0 
1309 1 0.0029736 0.106016 -0.0229136 0 0 0 0.488475 -0.633848 0.347054 0 -1.05196e-05 0 0 0 0 0 0 0 0 0 0 0 0 0 0 0 0 0 0 0.0008 0 
1462 1 0.00395501 0.108675 -0.0228848 0 0 0 -0.650367 -2.39527 -0.50935 0 -1.05196e-05 0 0 0 0 0 0 0 0 0 0 0 0 0 0 0 0 0 0 0.0008 0 
1345 6 0.0065634 0.0344818 -0.0223354 0 0 0 -0.572877 -2.03118 1.08988 0 -1.05196e-05 0 0 0 0 0 0 0 0 0 0 0 0 0 0 0 0 0 0 0.0008 0 
1506 4 0.00287542 0.0864532 -0.0222189 0 0 0 -6.67023 4.5797 -2.67828 0 -1.05196e-05 0 0 0 0 0 0 0 0 0 0 0 0 0 0 0 0 0 0 0.0008 0 
1602 4 0.00232952 0.103266 -0.0220394 0 0 0 0.251849 -1.7207 2.77508 0 -1.05196e-05 0 0 0 0 0 0 0 0 0 0 0 0 0 0 0 0 0 0 0.0008 0 
669 9 0.0112432 0.107459 -0.0224026 0 0 0 2.4319 3.7645 -2.74351 0 -1.05196e-05 0 0 0 0 0 0 0 0 0 0 0 0 0 0 0 0 0 0 0.0008 0 
275 6 0.0163649 0.108784 -0.0227403 0 0 0 1.35019 -0.305437 0.139473 0 -1.05196e-05 0 0 0 0 0 0 0 0 0 0 0 0 0 0 0 0 0 0 0.0008 0 
1190 3 0.0169498 0.0465448 -0.0208494 0 0 0 0.628058 -2.1078 0.559272 0 -1.05196e-05 0 0 0 0 0 0 0 0 0 0 0 0 0 0 0 0 0 0 0.0008 0 
1276 5 0.00221048 0.0526441 -0.0211249 0 0 0 -0.621797 -10.8257 4.10962 0 -1.05196e-05 0 0 0 0 0 0 0 0 0 0 0 0 0 0 0 0 0 0 0.0008 0 
1610 6 0.00449872 0.0815288 -0.0212365 0 0 0 -1.70229 1.39357 -4.3061 0 -1.05196e-05 0 0 0 0 0 0 0 0 0 0 0 0 0 0 0 0 0 0 0.0008 0 
1447 3 0.00317911 0.0984193 -0.020836 0 0 0 0.290352 -2.03133 0.744259 0 -1.05196e-05 0 0 0 0 0 0 0 0 0 0 0 0 0 0 0 0 0 0 0.0008 0 
1446 2 0.00752343 0.105993 -0.0213919 0 0 0 0.446525 -0.922116 1.79865 0 -1.05196e-05 0 0 0 0 0 0 0 0 0 0 0 0 0 0 0 0 0 0 0.0008 0 
1103 6 0.0182841 0.106148 -0.0208343 0 0 0 -1.71289 2.20544 1.61147 0 -1.05196e-05 0 0 0 0 0 0 0 0 0 0 0 0 0 0 0 0 0 0 0.0008 0 
418 3 0.00821039 0.0662552 -0.0202977 0 0 0 -4.23028 14.0209 -17.1417 0.030554 -0.0450001 0.0664163 0 0 1 0 0 0 0 0 0 0 0 0 0 0 0 0 1 0.0008 0 
956 4 0.00653258 0.0977011 -0.0203986 0 0 0 0.158857 -3.22121 0.221299 0 -1.05196e-05 0 0 0 0 0 0 0 0 0 0 0 0 0 0 0 0 0 0 0.0008 0 
377 1 0.00294818 0.102323 -0.0205713 0 0 0 1.51007 1.36631 -0.400397 0 -1.05196e-05 0 0 0 0 0 0 0 0 0 0 0 0 0 0 0 0 0 0 0.0008 0 
194 6 0.0153065 0.10419 -0.0201089 0 0 0 -1.25155 -0.0570541 3.41729 0 -1.05196e-05 0 0 0 0 0 0 0 0 0 0 0 0 0 0 0 0 0 0 0.0008 0 
1612 1 0.0121197 0.0334751 -0.0192161 0 0 0 0 -1.0981 -0.0001 0 -1.05196e-05 0 0 0 0 0 0 0 0 0 0 0 0 0 0 0 0 0 0 0.0008 0 
1456 5 0.00340744 0.0372497 -0.0195455 0 0 0 0.615064 -3.36941 2.22794 0 -1.05196e-05 0 0 0 0 0 0 0 0 0 0 0 0 0 0 0 0 0 0 0.0008 0 
4 6 0.0125535 0.050512 -0.0193426 0 0 0 1.97195 2.29894 -12.345 0 -1.05196e-05 0 0 0 0 0 0 0 0 0 0 0 0 0 0 0 0 0 0 0.0008 0 
954 2 0.0139574 0.0557093 -0.0188978 0 0 0 -0.541268 -1.14644 4.07623 0 -1.05196e-05 0 0 0 0 0 0 0 0 0 0 0 0 0 0 0 0 0 0 0.0008 0 
1625 5 0.00878834 0.0652526 -0.0191998 0 0 0 0.738201 1.65085 -13.6081 -0.030554 0.0449791 -0.0664163 0 0 1 0 0 0 0 0 0 0 0 0 0 0 0 0 1 0.0008 0 
255 2 0.00692647 0.094555 -0.0190198 0 0 0 1.07188 -0.0712374 1.80257 0 -1.05196e-05 0 0 0 0 0 0 0 0 0 0 0 0 0 0 0 0 0 0 0.0008 0 
231 6 0.00262333 0.10482 -0.0194849 0 0 0 0.650443 0.632236 -1.14555 0 -1.05196e-05 0 0 0 0 0 0 0 0 0 0 0 0 0 0 0 0 0 0 0.0008 0 
1225 1 0.00217139 0.108882 -0.0194095 0 0 0 0.122709 -0.137004 1.79106 0 -1.05196e-05 0 0 0 0 0 0 0 0 0 0 0 0 0 0 0 0 0 0 0.0008 0 
1595 8 0.00814504 0.0407899 -0.0183663 0 0 0 0 -1.14715 -0.0001 0 -1.05196e-05 0 0 0 0 0 0 0 0 0 0 0 0 0 0 0 0 0 0 0.0008 0 
1497 6 0.0140576 0.0414806 -0.0178974 0 0 0 0.322129 1.63689 5.73003 0 -1.05196e-05 0 0 0 0 0 0 0 0 0 0 0 0 0 0 0 0 0 0 0.0008 0 
1627 7 0.0149559 0.0871264 -0.0170292 0 0 0 4.24232 15.9708 -21.1417 0 -1.05196e-05 0 0 0 0 0 0 0 0 0 0 0 0 0 0 0 0 0 0 0.0008 0 
1598 10 0.00791412 0.0965214 -0.0174886 0 0 0 -3.05395 -2.49612 1.46121 0 -1.05196e-05 0 0 0 0 0 0 0 0 0 0 0 0 0 0 0 0 0 0 0.0008 0 
1292 2 0.0164691 0.0974781 -0.0170018 0 0 0 0.276896 -2.15791 3.78552 0 -1.05196e-05 0 0 0 0 0 0 0 0 0 0 0 0 0 0 0 0 0 0 0.0008 0 
1548 5 0.00544551 0.101186 -0.0172325 0 0 0 0.361378 2.28457 10.9656 0 -1.05196e-05 0 0 0 0 0 0 0 0 0 0 0 0 0 0 0 0 0 0 0.0008 0 
677 5 0.00783101 0.104422 -0.0164883 0 0 0 0.0445452 -0.880929 -1.2264 0 -1.05196e-05 0 0 0 0 0 0 0 0 0 0 0 0 0 0 0 0 0 0 0.0008 0 
1594 6 0.013978 0.0283452 -0.0155639 0 0 0 0 -1.14715 -0.0001 0 -1.05196e-05 0 0 0 0 0 0 0 0 0 0 0 0 0 0 0 0 0 0 0.0008 0 
1127 4 0.00430495 0.0880121 -0.0156638 0 0 0 2.09393 -0.550112 -0.328119 0 -1.05196e-05 0 0 0 0 0 0 0 0 0 0 0 0 0 0 0 0 0 1 0.0008 0 
1048 1 0.00196711 0.10481 -0.0155821 0 0 0 0.395037 -0.0734744 0.622816 0 -1.05196e-05 0 0 0 0 0 0 0 0 0 0 0 0 0 0 0 0 0 0 0.0008 0 
1078 1 0.00808061 0.0862833 -0.0145999 0 0 0 0.82781 -2.13466 0.149833 0 -1.05196e-05 0 0 0 0 0 0 0 0 0 0 0 0 0 0 0 0 0 1 0.0008 0 
510 4 0.00776446 0.0926386 -0.0148645 0 0 0 -1.68846 2.56131 0.637099 0 -1.05196e-05 0 0 0 0 0 0 0 0 0 0 0 0 0 0 0 0 0 0 0.0008 0 
1622 3 0.00549766 0.107098 -0.0149726 0 0 0 0.964848 -2.04692 -0.551843 0 -1.05196e-05 0 0 0 0 0 0 0 0 0 0 0 0 0 0 0 0 0 0 0.0008 0 
1539 1 0.00271363 0.108678 -0.0149355 0 0 0 -8.76596 -1.07381 3.80852 0 -1.05196e-05 0 0 0 0 0 0 0 0 0 0 0 0 0 0 0 0 0 0 0.0008 0 
1558 5 0.00190399 0.039226 -0.013614 0 0 0 0.513301 -0.640463 1.8975 0 -1.05196e-05 0 0 0 0 0 0 0 0 0 0 0 0 0 0 0 0 0 0 0.0008 0 
695 4 0.0122198 0.0892833 -0.0135315 0 0 0 -3.69229 2.71614 -2.4395 0 -1.05196e-05 0 0 0 0 0 0 0 0 0 0 0 0 0 0 0 0 0 0 0.0008 0 
998 1 0.00201427 0.100225 -0.0141904 0 0 0 0.467788 -1.78475 -0.339306 0 -1.05196e-05 0 0 0 0 0 0 0 0 0 0 0 0 0 0 0 0 0 0 0.0008 0 
1357 3 0.0055306 0.102107 -0.0141202 0 0 0 -0.178519 -0.770902 2.59002 0 -1.05196e-05 0 0 0 0 0 0 0 0 0 0 0 0 0 0 0 0 0 0 0.0008 0 
1411 6 0.00455425 0.107601 -0.013747 0 0 0 0.635856 -1.71147 -1.07485 0 -1.05196e-05 0 0 0 0 0 0 0 0 0 0 0 0 0 0 0 0 0 0 0.0008 0 
1613 4 0.0152177 0.0389052 -0.0126448 0 0 0 0 -1.0981 -0.0001 0 -1.05196e-05 0 0 0 0 0 0 0 0 0 0 0 0 0 0 0 0 0 0 0.0008 0 
1572 6 0.0076403 0.0464691 -0.0128792 0 0 0 -1.30583 -1.35785 -2.12178 0 -1.05196e-05 0 0 0 0 0 0 0 0 0 0 0 0 0 0 0 0 0 0 0.0008 0 
1634 6 0.0128299 0.0536989 -0.0127381 0 0 0 0 -1.04905 -0.0001 0 -1.05196e-05 0 0 0 0 0 0 0 0 0 0 0 0 0 0 0 0 0 0 0.0008 0 
678 6 0.00241679 0.0898573 -0.0125107 0 0 0 8.86962 20.006 -30.5122 0 -1.05196e-05 0 0 0 0 0 0 0 0 0 0 0 0 0 0 0 0 0 0 0.0008 0 
1108 5 0.00475027 0.0926499 -0.0128344 0 0 0 0.397527 -1.72359 2.28484 0 -1.05196e-05 0 0 0 0 0 0 0 0 0 0 0 0 0 0 0 0 0 0 0.0008 0 
1333 4 0.00180323 0.108549 -0.0132409 0 0 0 0.592585 -0.320526 0.368535 0 -1.05196e-05 0 0 0 0 0 0 0 0 0 0 0 0 0 0 0 0 0 0 0.0008 0 
1615 6 0.0119043 0.0337012 -0.0121376 0 0 0 -1.51564 -1.43401 -5.48278 -0.0339941 -0.0223161 -0.102843 0 0 0 0 0 1 0 0 0 0 0 0 0 0 0 0 1 0.0008 0 
1574 2 0.0123903 0.0423181 -0.0115244 0 0 0 -0.394116 1.49137 -0.696699 0 -1.05196e-05 0 0 0 0 0 0 0 0 0 0 0 0 0 0 0 0 0 0 0.0008 0 
73 5 0.0150626 0.0599595 -0.0114217 0 0 0 1.66851 -0.0279907 0.0926079 0 -1.05196e-05 0 0 0 0 0 0 0 0 0 0 0 0 0 0 0 0 0 0 0.0008 0 
62 3 0.00730992 0.0631936 -0.0115143 0 0 0 2.86712 -4.66353 -4.309 0 -1.05196e-05 0 0 0 0 0 0 0 0 0 0 0 0 0 0 0 0 0 0 0.0008 0 
653 1 0.0156433 0.0648911 -0.0112577 0 0 0 4.46805 2.62226 -11.1649 0 -1.05196e-05 0 0 0 0 0 0 0 0 0 0 0 0 0 0 0 0 0 0 0.0008 0 
1378 3 0.0082294 0.0741183 -0.0115937 0 0 0 0.462884 16.8689 -10.4026 0 -1.05196e-05 0 0 0 0 0 0 0 0 0 0 0 0 0 0 0 0 0 0 0.0008 0 
1130 4 0.00260121 0.0756771 -0.0114733 0 0 0 10.5119 -3.2671 18.9638 0 -1.05196e-05 0 0 0 0 0 0 0 0 0 0 0 0 0 0 0 0 0 1 0.0008 0 
1514 8 0.00771782 0.0935013 -0.0121541 0 0 0 1.36594 -0.531157 3.06733 0 -1.05196e-05 0 0 0 0 0 0 0 0 0 0 0 0 0 0 0 0 0 0 0.0008 0 
1008 12 0.0125076 0.0345727 -0.0110983 0 0 0 1.84819 3.9023 -8.32111 0.0339941 0.0222951 0.102843 0 0 0 0 0 1 0 0 0 0 0 0 0 0 0 0 1 0.0008 0 
1494 6 0.00248183 0.062437 -0.0103998 0 0 0 0.78423 -1.62324 1.29526 0 -1.05196e-05 0 0 0 0 0 0 0 0 0 0 0 0 0 0 0 0 0 0 0.0008 0 
475 6 0.0180225 0.0939857 -0.010246 0 0 0 2.74761 2.13075 0.666395 0 -1.05196e-05 0 0 0 0 0 0 0 0 0 0 0 0 0 0 0 0 0 1 0.0008 0 
11 3 0.002744 0.106283 -0.0110177 0 0 0 0.256512 7.36008 -1.15581 0 -1.05196e-05 0 0 0 0 0 0 0 0 0 0 0 0 0 0 0 0 0 0 0.0008 0 
60 1 0.0132414 0.107639 -0.0108403 0 0 0 0.684954 -0.955537 6.84628 0 -1.05196e-05 0 0 0 0 0 0 0 0 0 0 0 0 0 0 0 0 0 0 0.0008 0 
31 5 0.00555052 0.107851 -0.010849 0 0 0 -1.27537 0.531959 -1.65766 0 -1.05196e-05 0 0 0 0 0 0 0 0 0 0 0 0 0 0 0 0 0 0 0.0008 0 
1611 1 0.00850336 0.0307231 -0.00918142 0 0 0 0.0475981 -1.23084 -8.46506 0 -1.05196e-05 0 0 0 0 0 0 0 0 0 0 0 0 0 0 0 0 0 0 0.0008 0 
1556 2 0.0164778 0.0310797 -0.00997626 0 0 0 0.228952 -0.332452 -6.51263 0 -1.05196e-05 0 0 0 0 0 0 0 0 0 0 0 0 0 0 0 0 0 0 0.0008 0 
352 2 0.0034504 0.0409883 -0.00933057 0 0 0 0.578531 -3.28234 2.45327 0 -1.05196e-05 0 0 0 0 0 0 0 0 0 0 0 0 0 0 0 0 0 0 0.0008 0 
687 4 0.00548035 0.0797822 -0.0100311 0 0 0 1.15749 2.50838 4.48539 0 -1.05196e-05 0 0 0 0 0 0 0 0 0 0 0 0 0 0 0 0 0 0 0.0008 0 
1488 5 0.015503 0.0943765 -0.0094547 0 0 0 -1.10751 0.924697 -1.76836 0 -1.05196e-05 0 0 0 0 0 0 0 0 0 0 0 0 0 0 0 0 0 0 0.0008 0 
685 1 0.00366571 0.100335 -0.0098205 0 0 0 1.34732 4.85652 -1.91139 0 -1.05196e-05 0 0 0 0 0 0 0 0 0 0 0 0 0 0 0 0 0 1 0.0008 0 
1180 6 0.00236853 0.103205 -0.00908383 0 0 0 -0.726261 3.02762 2.60643 0 -1.05196e-05 0 0 0 0 0 0 0 0 0 0 0 0 0 0 0 0 0 0 0.0008 0 
1304 2 0.00509851 0.103279 -0.00922236 0 0 0 -0.0476646 2.42383 -2.60952 0 -1.05196e-05 0 0 0 0 0 0 0 0 0 0 0 0 0 0 0 0 0 1 0.0008 0 
1401 4 0.00448942 0.0376474 -0.00871975 0 0 0 0.371595 -1.15012 -0.974379 0 -1.05196e-05 0 0 0 0 0 0 0 0 0 0 0 0 0 0 0 0 0 0 0.0008 0 
1633 2 0.0174518 0.0365479 -0.00732454 0 0 0 0 -1.04905 -0.0001 0 -1.05196e-05 0 0 0 0 0 0 0 0 0 0 0 0 0 0 0 0 0 0 0.0008 0 
680 7 0.0085707 0.0842291 -0.00793389 0 0 0 -1.62202 -0.251789 4.06852 0 -1.05196e-05 0 0 0 0 0 0 0 0 0 0 0 0 0 0 0 0 0 0 0.0008 0 
1413 8 0.00533188 0.104625 -0.00700942 0 0 0 1.06919 -1.51008 2.15036 0 -1.05196e-05 0 0 0 0 0 0 0 0 0 0 0 0 0 0 0 0 0 0 0.0008 0 
279 1 0.0155416 0.108755 -0.00623942 0 0 0 -2.47706 1.29173 8.29057 0 -1.05196e-05 0 0 0 0 0 0 0 0 0 0 0 0 0 0 0 0 0 0 0.0008 0 
1614 6 0.00916957 0.035946 -0.00523676 0 0 0 0 -1.0981 -0.0001 0 -1.05196e-05 0 0 0 0 0 0 0 0 0 0 0 0 0 0 0 0 0 0 0.0008 0 
810 2 0.0172338 0.0654648 -0.00493515 0 0 0 2.14379 -2.10708 2.63664 0 -1.05196e-05 0 0 0 0 0 0 0 0 0 0 0 0 0 0 0 0 0 0 0.0008 0 
435 5 0.0110166 0.0726982 -0.00576172 0 0 0 -0.792455 -1.65043 -1.53688 0 -1.05196e-05 0 0 0 0 0 0 0 0 0 0 0 0 0 0 0 0 0 1 0.0008 0 
162 4 0.00206433 0.103408 -0.00499938 0 0 0 0.39996 -1.24831 1.26579 0 -1.05196e-05 0 0 0 0 0 0 0 0 0 0 0 0 0 0 0 0 0 1 0.0008 0 
1501 8 0.00704455 0.103132 -0.00508038 0 0 0 -1.99017 -1.36103 1.82628 0 -1.05196e-05 0 0 0 0 0 0 0 0 0 0 0 0 0 0 0 0 0 0 0.0008 0 
1054 6 0.00345901 0.109031 -0.00547625 0 0 0 1.33323 -0.31473 1.07178 0 -1.05196e-05 0 0 0 0 0 0 0 0 0 0 0 0 0 0 0 0 0 0 0.0008 0 
952 6 0.0170812 0.0967955 -0.00441977 0 0 0 0.643672 2.36795 0.349097 0 -1.05196e-05 0 0 0 0 0 0 0 0 0 0 0 0 0 0 0 0 0 0 0.0008 0 
180 9 0.00445953 0.102308 -0.00479478 0 0 0 -1.45044 -5.04355 -0.761148 0 -1.05196e-05 0 0 0 0 0 0 0 0 0 0 0 0 0 0 0 0 0 0 0.0008 0 
131 3 0.00896826 0.103497 -0.00434015 0 0 0 1.83628 -0.644944 -2.91053 0 -1.05196e-05 0 0 0 0 0 0 0 0 0 0 0 0 0 0 0 0 0 0 0.0008 0 
1472 7 0.00662882 0.105188 -0.00382659 0 0 0 -1.44887 1.13183 -0.293332 0 -1.05196e-05 0 0 0 0 0 0 0 0 0 0 0 0 0 0 0 0 0 0 0.0008 0 
1593 4 0.0112937 0.0355106 -0.00356747 0 0 0 0 -1.14715 -0.0001 0 -1.05196e-05 0 0 0 0 0 0 0 0 0 0 0 0 0 0 0 0 0 0 0.0008 0 
1600 2 0.0147486 0.0690268 -0.00190947 0 0 0 2.66402 -3.05447 8.87259 0 -1.05196e-05 0 0 0 0 0 0 0 0 0 0 0 0 0 0 0 0 0 0 0.0008 0 
1119 3 0.0139163 0.0708374 -0.00185563 0 0 0 0.0464045 -0.861781 -2.14523 0 -1.05196e-05 0 0 0 0 0 0 0 0 0 0 0 0 0 0 0 0 0 0 0.0008 0 
988 9 0.00624381 0.0738459 -0.00165602 0 0 0 11.53 2.73456 20.252 0 -1.05196e-05 0 0 0 0 0 0 0 0 0 0 0 0 0 0 0 0 0 1 0.0008 0 
1033 2 0.0122458 0.102339 -0.00255908 0 0 0 -1.57312 -0.156075 0.0223597 0 -1.05196e-05 0 0 0 0 0 0 0 0 0 0 0 0 0 0 0 0 0 0 0.0008 0 
1441 5 0.0173346 0.1018 -0.00193551 0 0 0 2.00479 -2.05367 4.40879 0 -1.05196e-05 0 0 0 0 0 0 0 0 0 0 0 0 0 0 0 0 0 0 0.0008 0 
1204 4 0.00729503 0.106738 -0.00173038 0 0 0 0.646971 -2.42539 -0.498371 0 -1.05196e-05 0 0 0 0 0 0 0 0 0 0 0 0 0 0 0 0 0 0 0.0008 0 
461 6 0.0033937 0.0607406 -0.000515843 0 0 0 -0.110213 0.671321 -1.04473 0 -1.05196e-05 0 0 0 0 0 0 0 0 0 0 0 0 0 0 0 0 0 0 0.0008 0 
962 3 0.0167164 0.0522215 0.000697601 0 0 0 0.326898 -4.47285 9.75367 0 -1.05196e-05 0 0 0 0 0 0 0 0 0 0 0 0 0 0 0 0 0 1 0.0008 0 
1153 4 0.00219772 0.0674475 0.000618951 0 0 0 -8.64517 11.6287 -20.9405 0 -1.05196e-05 0 0 0 0 0 0 0 0 0 0 0 0 0 0 0 0 0 0 0.0008 0 
1536 4 0.00468324 0.0928134 0.000906118 0 0 0 -3.03223 4.65281 7.02337 0 -1.05196e-05 0 0 0 0 0 0 0 0 0 0 0 0 0 0 0 0 0 0 0.0008 0 
272 1 0.0060287 0.109262 0.00144782 0 0 0 -4.56705 -2.01988 -2.60137 0.00378385 -0.0890242 -0.00235014 0 0 0 0 0 0 0 0 0 0 0 0 0 0 0 0 0 0.0008 0 
571 6 0.0136005 0.0542271 0.00235823 0 0 0 -1.31848 -2.6254 -5.35461 0 -1.05196e-05 0 0 0 0 0 0 0 0 0 0 0 0 0 0 0 0 0 0 0.0008 0 
931 6 0.0163946 0.100188 0.00201062 0 0 0 3.42503 2.12098 -0.3002 0 -1.05196e-05 0 0 0 0 0 0 0 0 0 0 0 0 0 0 0 0 0 0 0.0008 0 
1632 2 0.0107249 0.0360141 0.00481575 0 0 0 0 -1.04905 -0.0001 0 -1.05196e-05 0 0 0 0 0 0 0 0 0 0 0 0 0 0 0 0 0 0 0.0008 0 
1129 1 0.00975749 0.0585668 0.00576065 0 0 0 -0.567513 0.717471 0.624301 0 -1.05196e-05 0 0 0 0 0 0 0 0 0 0 0 0 0 0 0 0 0 0 0.0008 0 
519 3 0.0104279 0.066393 0.00573182 0 0 0 -4.96919 3.94936 3.78617 0 -1.05196e-05 0 0 0 0 0 0 0 0 0 0 0 0 0 0 0 0 0 0 0.0008 0 
1160 6 0.0149633 0.086616 0.00483825 0 0 0 -0.171116 -0.762402 -1.06885 0 -1.05196e-05 0 0 0 0 0 0 0 0 0 0 0 0 0 0 0 0 0 0 0.0008 0 
1453 2 0.00641674 0.0870442 0.00488667 0 0 0 -4.67082 16.3394 0.583981 0 -1.05196e-05 0 0 0 0 0 0 0 0 0 0 0 0 0 0 0 0 0 1 0.0008 0 
1192 7 0.0090395 0.10451 0.00512131 0 0 0 0.537764 -1.81071 -0.421435 0 -1.05196e-05 0 0 0 0 0 0 0 0 0 0 0 0 0 0 0 0 0 0 0.0008 0 
1459 9 0.00803723 0.0498581 0.00644375 0 0 0 2.02557 2.00118 -8.12674 0 -1.05196e-05 0 0 0 0 0 0 0 0 0 0 0 0 0 0 0 0 0 0 0.0008 0 
1003 4 0.0104705 0.0622318 0.00608817 0 0 0 0.128084 0.0862333 -6.89391 0 -1.05196e-05 0 0 0 0 0 0 0 0 0 0 0 0 0 0 0 0 0 0 0.0008 0 
304 6 0.00404161 0.0832749 0.00580211 0 0 0 -19.7765 -2.7634 13.5417 0 -1.05196e-05 0 0 0 0 0 0 0 0 0 0 0 0 0 0 0 0 0 0 0.0008 0 
1286 5 0.00840097 0.0845471 0.00637419 0 0 0 -4.36654 1.91418 2.1907 0 -1.05196e-05 0 0 0 0 0 0 0 0 0 0 0 0 0 0 0 0 0 0 0.0008 0 