ITEM: TIMESTEP
3300000
ITEM: NUMBER OF ATOMS
6198
ITEM: BOX BOUNDS ff ff ff
-0.01 0.45
-0.15 0.15
-0.08 0.1
ITEM: ATOMS id type x y z ix iy iz vx vy vz fx fy fz c_cc_1 c_cc_2 c_cc_3 c_cc_4 c_cc_5 c_cc_6 c_cc_7 c_cc_8 c_cc_9 c_cc_10 c_cc_11 c_cc_12 c_cc_13 c_cc_14 c_cc_15 c_cc_16 f_fppacc radius c_cc_17 
3905 4 0.0169675 -0.0119378 -0.0599794 0 0 0 0.000147769 -0.411995 0.0268487 0 -1.05196e-05 0 0 0 0 0 0 0 0 0 0 0 0 0 0 0 0 0 1 0.0008 0 
6344 4 0.0149695 -0.016875 -0.0562644 0 0 0 0.0373553 -16.3957 7.57352 0 -1.05196e-05 0 0 0 0 0 0 0 0 0 0 0 0 0 0 0 0 0 0 0.0008 0 
6290 1 0.0173974 -0.0234406 -0.0542041 0 0 0 -6.19559 -30.7155 10.5375 -0.0200444 0.0651127 0.137155 0 0 0 0 0 0 0 0 0 0 0 0 0 0 0 0 0 0.0008 0 
6268 3 0.0183739 -0.00893914 -0.0535656 0 0 0 0.177493 -2.29229 -0.338906 0 -1.05196e-05 0 0 0 0 0 0 0 0 0 0 0 0 0 0 0 0 0 0 0.0008 0 
4298 7 0.0152832 -0.0336467 -0.0508934 0 0 0 0.0535134 -0.292001 0.212038 0 -1.05196e-05 0 0 0 0 0 0 0 0 0 0 0 0 0 0 0 0 0 3 0.0008 0 
6262 9 0.00506836 -0.0182722 -0.0510716 0 0 0 2.07356 -13.8552 -1.389 0 -1.05196e-05 0 0 0 0 0 0 0 0 0 0 0 0 0 0 0 0 0 0 0.0008 0 
5543 4 0.00239627 -0.0194465 -0.050049 0 0 0 0.385967 -4.36886 4.60052 0 -1.05196e-05 0 0 0 0 0 0 0 0 0 0 0 0 0 0 0 0 0 2 0.0008 0 
5890 6 0.0150051 -0.0396163 -0.0464419 0 0 0 0.114625 -0.393827 0.297404 3.00711e-06 -5.89941e-06 4.45503e-06 0 0 0 0 0 0 0 0 0 0 0 0 0 0 0 0 0 0.0008 0 
2843 9 0.0183478 -0.0420636 -0.0442122 0 0 0 -0.00860263 -0.311686 0.364045 0 -1.05196e-05 0 0 0 0 0 0 0 0 0 0 0 0 0 0 0 0 0 3 0.0008 0 
2016 2 0.00725489 -0.00506558 -0.0409779 0 0 0 0.265989 -0.91138 1.45421 0 -1.05196e-05 0 0 0 0 0 0 0 0 0 0 0 0 0 0 0 0 0 7 0.0008 0 
2102 5 0.0176742 -0.0457845 -0.0402265 0 0 0 -0.407338 0.00175811 -0.00192855 -3.8449e-06 -4.39e-06 4.8156e-06 0 0 0 0 0 0 0 0 0 0 0 0 0 0 0 0 8 0.0008 0 
6269 4 0.00880131 -0.0249774 -0.0391435 0 0 0 -4.63568e-13 -3.38725 4.51515 0 -1.05196e-05 0 0 0 0 0 0 0 0 0 0 0 0 0 0 0 0 0 0 0.0008 0 
1101 5 0.00897805 -0.0378613 -0.0373487 0 0 0 5.76169 -38.9171 4.26625 0 -1.05196e-05 0 0 0 0 0 0 0 0 0 0 0 0 0 0 0 0 0 2 0.0008 0 
725 4 0.0109898 -0.0466422 -0.0356366 0 0 0 0.503449 -9.96313 12.2714 0 -1.05196e-05 0 0 0 0 0 0 0 0 0 0 0 0 0 0 0 0 0 18 0.0008 0 
6209 3 0.0187356 -0.0448341 -0.0361124 0 0 0 1.88448 -0.652924 2.94675 0 -1.05196e-05 0 0 0 0 0 0 0 0 0 0 0 0 0 0 0 0 0 0 0.0008 0 
3427 4 0.0178448 -0.0504939 -0.0340052 0 0 0 -0.0960451 -0.314175 0.497605 0 -1.05196e-05 0 0 0 0 0 0 0 0 0 0 0 0 0 0 0 0 0 2 0.0008 0 
6042 3 0.0129923 -0.0469774 -0.0339014 0 0 0 -1.45496 -2.55041 4.46254 0 -1.05196e-05 0 0 0 0 0 0 0 0 0 0 0 0 0 0 0 0 0 0 0.0008 0 
6074 4 0.00315833 -0.0489455 -0.0329871 0 0 0 -15.5767 -9.44027 13.744 0.023243 0.0783336 0.0431319 0 0 0 0 0 0 0 0 0 0 0 0 0 0 0 0 0 0.0008 0 
5892 2 0.0136119 -0.0541727 -0.0282602 0 0 0 -0.0021075 -0.0452827 0.0731199 4.4681e-12 -2.04731e-06 3.38406e-06 0 0 0 0 0 0 0 0 0 0 0 0 0 0 0 0 0 0.0008 0 
3491 3 0.00657618 -0.0555694 -0.0252427 0 0 0 -0.127821 0.00551864 -0.0142452 1.58285e-17 -9.80505e-07 2.53098e-06 0 0 0 0 0 0 0 0 0 0 0 0 0 0 0 0 0 0.0008 0 
6195 1 0.00231117 -0.0529724 -0.0256677 0 0 0 0.292232 -9.6662 17.6557 0 -1.05196e-05 0 0 0 0 0 0 0 0 0 0 0 0 0 0 0 0 0 0 0.0008 0 
5213 1 0.00649633 -0.0589325 -0.0163622 0 0 0 0.0800848 0.0310045 -0.170727 9.33162e-07 6.31394e-09 -3.45383e-07 0 0 0 0 0 0 0 0 0 0 0 0 0 0 0 0 0 0.0008 0 
5360 4 0.0179209 -0.0592129 -0.0145307 0 0 0 0.179497 -0.0973216 0.475755 0 -1.05196e-05 0 0 0 0 0 0 0 0 0 0 0 0 0 0 0 0 0 0 0.0008 0 
5632 2 0.00983446 -0.0604651 -0.00816348 0 0 0 0.204165 -0.0469494 0.251157 -1.3407e-15 -2.5369e-07 1.35713e-06 0 0 0 0 0 0 0 0 0 0 0 0 0 0 0 0 1 0.0008 0 
693 3 0.00183292 -0.0607455 -0.00665675 0 0 0 0.0519012 -0.00369914 0.0447995 3.32874e-05 3.3456e-05 -5.82889e-05 0 0 1 0 0 0 0 0 0 0 0 0 0 0 0 0 1 0.0008 0 
4050 3 0.00717261 -0.0608802 -0.00594289 0 0 0 0.0436704 0.00151001 -0.00807782 -2.07391e-19 -2.53692e-07 1.35713e-06 0 0 0 0 0 0 0 0 0 0 0 0 0 0 0 0 3 0.0008 0 
72 4 0.00102102 -0.0609316 -0.00529158 0 0 0 -0.0320304 0.00552621 -0.00275727 -3.32874e-05 -5.44952e-05 5.82889e-05 0 0 1 0 0 0 0 0 0 0 0 0 0 0 0 0 1 0.0008 0 
5313 7 0.00446287 -0.0609356 -0.0043354 0 0 0 0.0414711 2.34616e-12 0.0207119 2.65767e-18 0 0 0 0 0 0 0 0 0 0 0 0 0 0 0 0 0 0 0 0.0008 0 
604 2 0.00889289 -0.0609356 -0.00390673 0 0 0 0.059684 1.45826e-12 0.0170789 -9.29076e-18 -5.14276e-16 2.35937e-18 0 0 0 0 0 0 0 0 0 0 0 0 0 0 0 0 1 0.0008 0 
4459 4 0.000926239 -0.0609356 -0.00368956 0 0 0 0.00524432 2.92711e-06 0.00263227 1.76699e-12 -9.90423e-08 3.56562e-11 0 0 0 0 0 0 0 0 0 0 0 0 0 0 0 0 3 0.0008 0 
3193 11 0.0163415 -0.0609356 -0.00333138 0 0 0 0.0291442 -6.83854e-12 -0.0184799 -4.25651e-18 0 0 0 0 0 0 0 0 0 0 0 0 0 0 0 0 0 0 0 0.0008 0 
1200 7 0.000800441 -0.0609356 -0.00209379 0 0 0 0.000878159 -7.93309e-05 0.00197945 2.8686e-08 -5.52976e-07 -1.43884e-08 0 0 0 0 0 0 0 0 0 0 0 0 0 0 0 0 0 0.0008 0 
4095 1 0.00407056 -0.0609356 -0.00202029 0 0 0 -0.0112851 2.34616e-12 -0.00961823 1.19805e-18 0 -1.21723e-18 0 0 0 0 0 0 0 0 0 0 0 0 0 0 0 0 1 0.0008 0 
1887 11 0.00666186 -0.0609356 -0.00205773 0 0 0 0.0103828 -8.84488e-13 -0.0105218 -1.08445e-18 5.17893e-17 1.1979e-18 0 0 0 0 0 0 0 0 0 0 0 0 0 0 0 0 1 0.0008 0 
3742 14 0.00825944 -0.0609356 -0.00242238 0 0 0 0.0173726 -5.52225e-12 0.00510757 -7.5868e-19 9.27434e-15 -1.32991e-19 0 0 0 0 0 0 0 0 0 0 0 0 0 0 0 0 4 0.0008 0 
1118 3 0.00998837 -0.0609356 -0.00259126 0 0 0 0.0319708 4.44091e-12 -0.0225293 1.50992e-18 0 2.39595e-18 0 0 0 0 0 0 0 0 0 0 0 0 0 0 0 0 0 0.0008 0 
414 7 0.00262221 -0.0609356 -0.00127211 0 0 0 -0.0107906 2.02389e-12 -0.0043296 -1.19794e-18 0 -5.99047e-19 0 0 0 0 0 0 0 0 0 0 0 0 0 0 0 0 4 0.0008 0 
690 7 0.00520185 -0.0609356 -0.000862831 0 0 0 -0.0164377 1.86275e-12 -0.00240737 1.88621e-18 0 2.37034e-19 0 0 0 0 0 0 0 0 0 0 0 0 0 0 0 0 1 0.0008 0 
1920 3 0.00778719 -0.0609356 -0.000890908 0 0 0 0.00298468 1.76552e-05 0.000892604 -1.02036e-06 1.72337e-07 -6.82608e-06 0 0 1 0 0 0 0 0 0 0 0 0 0 0 0 0 3 0.0008 0 
4525 2 0.0169903 -0.0609356 -0.00117445 0 0 0 0.0443236 2.39945e-07 -0.0231072 2.96897e-12 8.05816e-10 -1.54782e-12 0 0 0 0 0 0 0 0 0 0 0 0 0 0 0 0 1 0.0008 0 
1871 2 0.000834574 -0.0609356 -0.000492887 0 0 0 -0.00127986 -7.40963e-06 0.00367101 5.86762e-12 -1.84988e-08 1.99318e-11 0 0 0 0 0 0 0 0 0 0 0 0 0 0 0 0 3 0.0008 0 
101 5 0.00223269 -0.0609356 0.000288191 0 0 0 0.00216084 -4.9128e-07 -0.000397201 -4.54902e-13 -2.54857e-08 7.54177e-14 0 0 0 0 0 0 0 0 0 0 0 0 0 0 0 0 10 0.0008 0 
585 3 0.00675096 -0.0609356 0.000335532 0 0 0 -0.0022811 1.79358e-11 -0.00130092 -1.1656e-17 -5.29029e-13 -6.65566e-18 0 0 0 0 0 0 0 0 0 0 0 0 0 0 0 0 4 0.0008 0 
2966 5 0.0115867 -0.0609356 -0.000147355 0 0 0 0.00975582 4.27978e-12 -0.0254186 -1.01399e-18 0 2.39611e-18 0 0 0 0 0 0 0 0 0 0 0 0 0 0 0 0 3 0.0008 0 
4893 3 0.0137454 -0.0609356 -0.000284822 0 0 0 0.00458985 7.94051e-13 -0.00138613 6.09448e-19 -1.4363e-15 -1.52391e-19 0 0 0 0 0 0 0 0 0 0 0 0 0 0 0 0 0 0.0008 0 
2951 1 0.0178646 -0.0609356 0.000245513 0 0 0 0.0218703 1.42131e-09 -0.00155431 5.94481e-15 6.62346e-12 -3.667e-15 0 0 0 0 0 0 0 0 0 0 0 0 0 0 0 0 0 0.0008 0 
206 1 0.000800098 -0.0609356 0.001109 0 0 0 0.000206376 4.8512e-06 0.00478985 -2.03252e-09 -1.53924e-08 -1.8686e-10 0 0 0 0 0 0 0 0 0 0 0 0 0 0 0 0 5 0.0008 0 
1002 3 0.00366085 -0.0609356 0.00121895 0 0 0 -0.000457164 5.72999e-12 -0.00118376 1.61705e-21 0 -1.41825e-19 0 0 0 0 0 0 0 0 0 0 0 0 0 0 0 0 8 0.0008 0 
209 4 0.00519194 -0.0609356 0.000740757 0 0 0 -0.000699099 -6.61885e-12 -0.00197015 7.62062e-20 6.68595e-16 2.99638e-19 0 0 0 0 0 0 0 0 0 0 0 0 0 0 0 0 2 0.0008 0 
18 2 0.00856432 -0.0609356 0.000507594 0 0 0 0.00712471 -4.50327e-05 -0.00355702 5.35307e-07 -1.6451e-06 5.98254e-06 0 1 1 0 0 0 0 0 0 0 0 0 0 0 0 0 2 0.0008 0 
1039 2 0.0102611 -0.0609356 0.00121828 0 0 0 -0.00381076 -4.26038e-12 -0.0238234 4.98226e-19 0 -2.41721e-18 0 0 0 0 0 0 0 0 0 0 0 0 0 0 0 0 5 0.0008 0 
280 2 0.00219724 -0.0609356 0.00188882 0 0 0 0.00254014 2.64392e-05 0.000115041 -7.4178e-07 -3.17667e-07 -2.18371e-06 0 1 0 0 0 0 0 0 0 0 0 0 0 0 0 0 7 0.0008 0 
553 2 0.00568313 -0.0609356 0.00226784 0 0 0 -0.000623635 5.62057e-12 -0.00130386 7.48712e-20 7.13156e-16 1.49744e-19 0 0 0 0 0 0 0 0 0 0 0 0 0 0 0 0 2 0.0008 0 
1470 6 0.00724366 -0.0609356 0.00185915 0 0 0 0.000341189 -0.000258593 -0.00296153 -1.7703e-08 2.1353e-06 6.20733e-08 0 0 0 0 0 0 0 0 0 0 0 0 0 0 0 0 7 0.0008 0 
1367 1 0.00886974 -0.0609356 0.00207815 0 0 0 0.00416613 -3.38504e-05 -0.00305912 -1.54919e-07 1.32371e-06 -3.6561e-07 1 1 0 0 0 0 0 0 0 0 0 0 0 0 0 0 9 0.0008 0 
839 1 0.0124988 -0.0609356 0.0023525 0 0 0 -0.0154101 1.86275e-12 0.0349246 -1.42764e-18 0 5.75693e-19 0 0 0 0 0 0 0 0 0 0 0 0 0 0 0 0 1 0.0008 0 
2748 4 0.0160725 -0.0609356 0.00253099 0 0 0 0.051406 -5.54272e-13 0.0596144 -3.68159e-18 0 -3.76549e-18 0 0 0 0 0 0 0 0 0 0 0 0 0 0 0 0 2 0.0008 0 
1972 6 0.000804114 -0.0609356 0.00272378 0 0 0 0.000540099 -1.39575e-11 0.00515696 -2.2436e-18 -2.08143e-14 -2.14589e-17 0 0 0 0 0 0 0 0 0 0 0 0 0 0 0 0 12 0.0008 0 
1894 5 0.00246247 -0.0609356 0.00346661 0 0 0 -0.00162195 0.000108274 0.000830521 2.87823e-07 -2.26172e-06 5.78662e-07 0 1 0 0 0 0 0 0 0 0 0 0 0 0 0 0 11 0.0008 0 
317 1 0.00393241 -0.0609356 0.00282374 0 0 0 -0.000740082 -7.56531e-07 -0.000722757 3.49246e-11 2.30252e-08 1.13226e-11 0 0 0 0 0 0 0 0 0 0 0 0 0 0 0 0 0 0.0008 0 
154 3 0.00682179 -0.0609357 0.00340303 0 0 0 0.00339998 0.000423041 -0.000333507 1.1253e-07 4.75924e-06 -3.97227e-07 0 0 0 0 0 0 0 0 0 0 0 0 0 0 0 0 11 0.0008 0 
833 7 0.00987836 -0.0609356 0.00332011 0 0 0 0.00193158 4.84968e-05 -0.000493879 4.48689e-08 3.97936e-07 3.93049e-07 1 0 0 0 0 0 0 0 0 0 0 0 0 0 0 0 5 0.0008 0 
248 8 0.0142008 -0.0609356 0.0032784 0 0 0 0.00606591 5.40772e-12 0.0310135 -6.04314e-19 0 4.80386e-18 0 0 0 0 0 0 0 0 0 0 0 0 0 0 0 0 5 0.0008 0 
733 3 0.000800052 -0.0609356 0.00432473 0 0 0 1.70902e-05 1.19393e-11 0.00507475 5.32994e-20 8.35385e-13 1.56925e-17 0 0 0 0 0 0 0 0 0 0 0 0 0 0 0 0 17 0.0008 0 
1705 8 0.00373646 -0.0609357 0.00443458 0 0 0 0.000699919 -0.000146937 -0.00120533 3.63085e-07 4.32536e-06 -6.98611e-07 0 0 0 0 0 0 0 1 0 0 0 0 0 0 0 0 18 0.0008 0 
2069 4 0.00520402 -0.0609356 0.0037952 0 0 0 -1.07222e-05 3.06645e-06 -0.00124578 7.38434e-11 -9.69497e-08 9.91594e-10 0 0 0 0 0 0 0 0 0 0 0 0 0 0 0 0 10 0.0008 0 
3087 1 0.00877324 -0.0609356 0.00447718 0 0 0 -0.0097225 5.31256e-05 -0.0108624 -5.22277e-08 3.60312e-08 -2.65978e-07 1 0 0 0 0 0 0 0 0 0 0 0 0 0 0 0 6 0.0008 0 
6288 7 0.0166074 -0.0586445 0.00385061 0 0 0 -0.295805 0.61301 11.6594 0 -1.05196e-05 0 0 0 0 0 0 0 0 0 0 0 0 0 0 0 0 0 0 0.0008 0 
210 4 0.00222904 -0.0609356 0.0050504 0 0 0 -0.00145951 5.31725e-06 -8.50351e-05 1.26491e-08 -1.98864e-07 1.01463e-08 0 0 0 0 0 0 0 0 0 0 0 0 0 0 0 0 33 0.0008 0 
2352 2 0.00533366 -0.0609356 0.00539002 0 0 0 -0.00218685 -6.08307e-06 -0.000938833 5.09701e-07 -3.61274e-07 -3.6232e-07 0 1 0 0 0 0 0 0 0 0 0 0 0 0 0 0 6 0.0008 0 
531 10 0.00689484 -0.0609356 0.0050066 0 0 0 -0.0025397 -1.57191e-06 -0.00455293 1.66841e-12 6.29024e-09 1.80629e-11 0 0 0 0 0 0 0 0 0 0 0 0 0 0 0 0 14 0.0008 0 
1890 2 0.010078 -0.0609354 0.00559767 0 0 0 -0.0338687 0.00164522 0.00861435 0 -1.05196e-05 0 0 0 0 0 0 0 0 0 0 0 0 0 0 0 0 0 4 0.0008 0 
570 3 0.0120155 -0.0609356 0.00475255 0 0 0 0.0528435 0.000326621 0.0107728 -1.16376e-06 -7.59561e-06 8.84883e-07 0 0 0 0 0 0 0 0 0 0 0 0 0 0 0 0 6 0.0008 0 
2641 8 0.00086689 -0.060884 0.00592259 0 0 0 -0.00125326 0.000300552 0.00160781 -1.24197e-18 -2.53692e-07 -1.35713e-06 0 0 0 0 0 0 0 0 0 0 0 0 0 0 0 0 8 0.0008 0 
1165 1 0.00350312 -0.0608666 0.00601586 0 0 0 -0.000181073 -0.000242254 -0.000957178 -7.41181e-07 -1.54268e-07 1.03419e-06 1 0 0 0 0 0 0 1 0 0 0 0 0 0 0 0 16 0.0008 0 
2116 2 0.00644221 -0.06077 0.00653236 0 0 0 0.0013424 -0.000725446 -0.00377252 5.42851e-10 1.85591e-07 -1.44176e-06 0 0 0 0 0 0 0 0 0 0 0 0 0 0 0 0 10 0.0008 0 
4938 7 0.00819551 -0.0608755 0.00596802 0 0 0 0.0071022 -0.000951633 -0.00500101 -2.56922e-07 -1.67369e-07 -3.60362e-07 1 0 0 0 0 0 0 0 0 0 0 0 0 0 0 0 9 0.0008 0 
510 4 0.0115227 -0.0608166 0.00627764 0 0 0 -0.0238679 0.00309152 0.00508359 0 -1.05196e-05 0 0 0 0 0 0 0 0 0 0 0 0 0 0 0 0 0 1 0.0008 0 
3869 8 0.00483216 -0.0607029 0.00689141 0 0 0 -0.000520578 -5.56223e-05 -0.000470592 1.31923e-06 -5.00288e-07 9.09537e-07 1 1 0 0 0 0 0 1 0 0 0 0 0 0 0 0 9 0.0008 0 
4248 10 0.0089561 -0.0606074 0.00740237 0 0 0 -0.0359879 0.00304187 0.0162725 3.37961e-19 -2.53692e-07 -1.35713e-06 0 0 0 0 0 0 0 0 0 0 0 0 0 0 0 0 5 0.0008 0 
3081 3 0.0106679 -0.0605686 0.00760996 0 0 0 -0.0166807 0.0013426 0.00722332 3.06188e-07 -1.25875e-06 -7.00732e-06 0 0 0 0 0 0 0 0 0 0 0 0 0 0 0 0 3 0.0008 0 
3865 4 0.00584177 -0.0604748 0.00811145 0 0 0 0.00421773 -0.000795074 -0.00436511 8.11378e-07 5.05335e-07 -3.61681e-07 0 0 0 0 0 0 0 1 0 0 0 0 0 0 0 0 2 0.0008 0 
1352 4 0.00695346 -0.0602634 0.00924252 0 0 0 0.0132647 -0.00242256 -0.0129096 5.80213e-07 -3.1842e-07 -7.41569e-07 0 0 0 0 0 0 0 0 0 0 0 0 0 0 0 0 1 0.0008 0 
5373 2 0.010788 -0.059591 0.0112434 0 0 0 -0.0837544 -0.121502 -0.798128 0 -1.05196e-05 0 0 0 0 0 0 0 0 0 0 0 0 0 0 0 0 0 0 0.0008 0 
6222 9 0.0158669 -0.0571583 0.0135437 0 0 0 0.485348 3.04969 12.3935 0 -1.05196e-05 0 0 0 0 0 0 0 0 0 0 0 0 0 0 0 0 0 0 0.0008 0 
3790 4 0.0134022 -0.0547036 0.0180851 0 0 0 0.954539 1.12566 3.08959 0 -1.05196e-05 0 0 0 0 0 0 0 0 0 0 0 0 0 0 0 0 0 9 0.0008 0 
6112 1 0.00471289 -0.0524746 0.0174122 0 0 0 0.55127 0.147686 6.32907 0 -1.05196e-05 0 0 0 0 0 0 0 0 0 0 0 0 0 0 0 0 0 0 0.0008 0 
6313 2 0.00924425 -0.0550723 0.0202728 0 0 0 2.32956 5.62104 10.9421 0 -1.05196e-05 0 0 0 0 0 0 0 0 0 0 0 0 0 0 0 0 0 0 0.0008 0 
808 1 0.00797684 -0.0478773 0.0217362 0 0 0 0.117242 -1.1244 -0.937389 0 -1.05196e-05 0 0 0 0 0 0 0 0 0 0 0 0 0 0 0 0 0 7 0.0008 0 
5781 5 0.0102985 -0.0563046 0.0233449 0 0 0 0.231469 -0.0760797 -0.196383 -2.31581e-11 -9.8737e-07 -2.52811e-06 0 0 0 0 0 0 0 0 0 0 0 0 0 0 0 0 0 0.0008 0 
4325 3 0.00326387 -0.0560627 0.0239693 0 0 0 -0.0311777 -0.0496991 -0.128288 6.53032e-18 -9.80505e-07 -2.53098e-06 0 0 0 0 0 0 0 0 0 0 0 0 0 0 0 0 0 0.0008 0 
4703 7 0.00308955 -0.0346449 0.0293738 0 0 0 0.383784 0.715515 1.95727 0 -1.05196e-05 0 0 0 0 0 0 0 0 0 0 0 0 0 0 0 0 0 0 0.0008 0 
5961 1 0.00180248 -0.0502443 0.0305856 0 0 0 -0.050476 5.70815 8.19351 0 -1.05196e-05 0 0 0 0 0 0 0 0 0 0 0 0 0 0 0 0 0 0 0.0008 0 
1006 7 0.017262 -0.0197653 0.0431314 0 0 0 2.10784 4.8485 10.5707 0 -1.05196e-05 0 0 0 0 0 0 0 0 0 0 0 0 0 0 0 0 0 12 0.0008 0 
5113 5 0.0042477 -0.0386738 0.0471536 0 0 0 0.0817525 -0.146631 -0.11073 -3.14084e-06 -6.35849e-06 -4.80171e-06 0 0 0 0 0 0 0 0 0 0 0 0 0 0 0 0 3 0.0008 0 
2031 8 0.0103969 -0.00899346 0.0529656 0 0 0 0.494728 -1.62292 -0.518462 0 -1.05196e-05 0 0 0 0 0 0 0 0 0 0 0 0 0 0 0 0 0 4 0.0008 0 
5191 1 0.0036921 -0.0244542 0.0556501 0 0 0 0.0569588 -0.459012 -0.281083 0 -1.05196e-05 0 0 0 0 0 0 0 0 0 0 0 0 0 0 0 0 0 0 0.0008 0 
3609 1 0.0159793 -0.017592 0.0559913 0 0 0 1.18819 6.19097 1.24162 0 -1.05196e-05 0 0 0 0 0 0 0 0 0 0 0 0 0 0 0 0 0 0 0.0008 0 
1585 4 0.0174293 -0.0033035 0.0587921 0 0 0 -19.5532 34.7009 1.42674 0 -1.05196e-05 0 0 0 0 0 0 0 0 0 0 0 0 0 0 0 0 0 6 0.0008 0 
5826 2 0.0142423 -0.00729213 0.0602638 0 0 0 0.0436741 -0.513446 -0.0645563 0 -1.05196e-05 0 0 0 0 0 0 0 0 0 0 0 0 0 0 0 0 0 0 0.0008 0 
6055 5 0.0159947 0.00845781 -0.0602482 0 0 0 0.0016396 -0.222461 0.000567001 0 -1.05196e-05 0 0 0 0 0 0 0 0 0 0 0 0 0 0 0 0 0 0 0.0008 0 
184 2 0.00831797 0.00409128 -0.0576724 0 0 0 -0.744725 -5.74816 -0.635684 0 -1.05196e-05 0 0 0 0 0 0 0 0 0 0 0 0 0 0 0 0 0 6 0.0008 0 
6327 5 0.00744007 0.0198245 -0.0552656 0 0 0 -0.00935269 -8.32361 -3.71909 0 -1.05196e-05 0 0 0 0 0 0 0 0 0 0 0 0 0 0 0 0 0 0 0.0008 0 
708 13 0.0162452 0.0329525 -0.0476605 0 0 0 1.0478 -0.938405 -3.04002 0 -1.05196e-05 0 0 0 0 0 0 0 0 0 0 0 0 0 0 0 0 0 6 0.0008 0 
6145 9 0.0144735 0.018296 -0.0469342 0 0 0 -0.305724 -1.43785 -0.180272 0 -1.05196e-05 0 0 0 0 0 0 0 0 0 0 0 0 0 0 0 0 0 0 0.0008 0 
6075 6 0.00387112 0.00935467 -0.0395546 0 0 0 0.0497339 -0.843953 -0.577286 0 -1.05196e-05 0 0 0 0 0 0 0 0 0 0 0 0 0 0 0 0 0 0 0.0008 0 
6305 1 0.0170795 0.0420943 -0.0397093 0 0 0 -1.99287e-13 -6.51737 -3.47326 0 -1.05196e-05 0 0 0 0 0 0 0 0 0 0 0 0 0 0 0 0 0 0 0.0008 0 
3801 15 0.0177849 0.0159334 -0.0357699 0 0 0 1.03913 -4.80662 -8.26502 0 -1.05196e-05 0 0 0 0 0 0 0 0 0 0 0 0 0 0 0 0 0 3 0.0008 0 
2321 7 0.0103958 0.0511127 -0.0355 0 0 0 -1.33286e-81 2.83628e-20 -1.18143e-12 8.23007e-83 8.47033e-22 -2.22045e-16 0 0 0 0 0 0 0 0 0 0 0 0 0 0 0 0 0 0.0008 0 
283 5 0.00822593 0.0521943 -0.0355 0 0 0 -4.37962e-302 -8.49133e-20 -2.36056e-12 -9.17164e-308 -8.47033e-22 -2.22045e-16 0 0 0 0 0 0 0 0 0 0 0 0 0 0 0 0 0 0.0008 0 
478 2 0.00649757 0.0529414 -0.0355 0 0 0 -1.21523e-202 -6.58876e-20 1.18145e-12 -2.91744e-203 0 2.22045e-16 0 0 0 0 0 0 0 0 0 0 0 0 0 0 0 0 0 0.0008 0 
871 8 0.00626381 0.055815 -0.0355 0 0 0 1.17136e-302 1.89702e-20 -5.8979e-12 -9.27159e-308 0 2.22045e-16 0 0 0 0 0 0 0 0 0 0 0 0 0 0 0 0 1 0.0008 0 
5520 7 0.00964496 0.0549393 -0.0355 0 0 0 1.71521e-302 5.65733e-20 4.72349e-12 -9.51068e-308 0 -2.22045e-16 0 0 0 0 0 0 0 0 0 0 0 0 0 0 0 0 0 0.0008 0 
2565 7 0.00832037 0.0580035 -0.0355 0 0 0 -3.81857e-302 -8.48538e-20 4.72341e-12 8.02464e-308 0 -2.22045e-16 0 0 0 0 0 0 0 0 0 0 0 0 0 0 0 0 0 0.0008 0 
3089 3 0.0107774 0.0616873 -0.0355 0 0 0 1.43486e-302 8.48586e-20 -5.89794e-12 -9.28207e-308 0 2.22045e-16 0 0 0 0 0 0 0 0 0 0 0 0 0 0 0 0 0 0.0008 0 
3064 5 0.00572447 0.0664165 -0.0355 0 0 0 -2.45933e-302 5.65281e-20 -1.18149e-12 9.46197e-308 8.47033e-22 2.22045e-16 0 0 0 0 0 0 0 0 0 0 0 0 0 0 0 0 0 0.0008 0 
5230 4 0.00291027 0.0725327 -0.0355 0 0 0 3.23222e-48 8.47629e-20 -4.72349e-12 -5.24513e-49 0 2.22045e-16 0 0 0 0 0 0 0 0 0 0 0 0 0 0 0 0 0 0.0008 0 
2130 11 0.0169242 0.0756713 -0.0355008 0 0 0 2.91547e-16 -7.91845e-17 5.8957e-12 1.38778e-17 4.33681e-19 0 0 0 0 0 0 0 0 0 0 0 1 0 0 0 0 0 2 0.0008 0 
4708 6 0.0184183 0.0757515 -0.0354992 0 0 0 -1.68945e-16 7.96339e-17 5.89549e-12 -6.93889e-18 -1.73472e-18 0 0 0 0 0 0 0 0 0 0 0 1 0 0 0 0 0 5 0.0008 0 
5274 5 0.0152259 0.0938749 -0.0355 0 0 0 -2.63259e-129 4.70502e-20 -3.53502e-12 2.83612e-127 0 2.22045e-16 0 0 0 0 0 0 0 0 0 0 0 0 0 0 0 0 0 0.0008 0 
6287 2 0.00960209 0.0177511 -0.0335942 0 0 0 0.00572258 -3.49471 -6.86652 0 -1.05196e-05 0 0 0 0 0 0 0 0 0 0 0 0 0 0 0 0 0 0 0.0008 0 
6345 4 0.00965941 0.0610929 -0.0336175 0 0 0 2.22379 1.43157 1.44526 0 -1.05196e-05 0 0 0 0 0 0 0 0 0 0 0 0 0 0 0 0 0 0 0.0008 0 
5040 2 0.0124687 0.0681593 -0.0341089 0 0 0 -0.710665 -1.1215 0.345371 0 -1.05196e-05 0 0 0 0 0 0 0 0 0 0 0 0 0 0 0 0 0 2 0.0008 0 
6381 9 0.0129143 0.0729681 -0.0334558 0 0 0 -1.38946 -11.7816 5.51347 0.024635 0.0215253 -0.0481024 0 0 0 0 0 0 0 0 0 0 0 0 0 0 0 0 0 0.0008 0 
5981 2 0.00634417 0.0945294 -0.0336325 0 0 0 0.127763 -0.107951 0.431155 0 -1.05196e-05 0 0 0 0 0 0 0 0 0 0 0 0 0 0 0 0 0 0 0.0008 0 
982 2 0.00501774 0.0954413 -0.0334252 0 0 0 0.439722 0.910113 0.410571 0 -1.05196e-05 0 0 0 0 0 0 0 0 0 0 0 0 0 0 0 0 0 1 0.0008 0 
6117 9 0.0084305 0.0994983 -0.0339918 0 0 0 6.32335 -1.11619 9.91718 0 -1.05196e-05 0 0 0 0 0 0 0 0 0 0 0 0 0 0 0 0 0 0 0.0008 0 
1475 3 0.0127525 0.102759 -0.0336322 0 0 0 -0.621543 -0.736358 -0.978623 -8.4545e-06 -0.00029343 -0.000142777 0 0 1 0 0 0 0 0 0 0 0 0 0 0 0 0 3 0.0008 0 
5728 2 0.00797205 0.105369 -0.0341215 0 0 0 0.304463 0.289153 0.172541 0 -1.05196e-05 0 0 0 0 0 0 0 0 0 0 0 0 0 0 0 0 0 0 0.0008 0 
4059 4 0.0129625 0.104618 -0.0342638 0 0 0 -0.678089 0.899536 0.897437 0.00311929 0.00111886 0.137392 0 0 0 1 0 0 0 0 0 0 0 0 0 0 0 0 6 0.0008 0 
1640 2 0.0156603 0.105462 -0.0339495 0 0 0 0.230922 0.147038 0.120121 0 -1.05196e-05 0 0 0 0 0 0 0 0 0 0 0 0 0 0 0 0 0 9 0.0008 0 
4911 2 0.00179715 0.106436 -0.0340895 0 0 0 0.0276237 -0.126142 0.025334 0.00109301 0.000531044 7.33327e-05 0 0 0 0 0 0 0 0 0 0 0 0 0 0 0 0 2 0.0008 0 
1785 1 0.00392695 0.106288 -0.0340434 0 0 0 -0.0452698 -0.127615 0.104851 0 -1.05196e-05 0 0 0 0 0 0 0 0 0 0 0 0 0 0 0 0 0 1 0.0008 0 
2926 3 0.00644849 0.105938 -0.0336973 0 0 0 0.248567 -0.175912 0.147991 0 -1.05196e-05 0 0 0 0 0 0 0 0 0 0 0 0 0 0 0 0 0 2 0.0008 0 
4840 6 0.00959195 0.105681 -0.0341384 0 0 0 0.50016 -0.284651 0.106337 0 -1.05196e-05 0 0 0 0 0 0 0 0 0 0 0 0 0 0 0 0 0 1 0.0008 0 
1651 9 0.011863 0.105751 -0.0341138 0 0 0 0.0922467 0.178554 -0.186957 -0.0132808 0.0116229 -0.00639388 0 0 0 1 0 0 0 0 1 0 0 0 0 0 0 0 6 0.0008 0 
3115 1 0.00291163 0.107671 -0.0341626 0 0 0 -0.0179761 -0.128328 -0.00525239 0 -1.05196e-05 0 0 0 0 0 0 0 0 0 0 0 0 0 0 0 0 0 1 0.0008 0 
5706 1 0.00492398 0.107663 -0.0341743 0 0 0 0.144514 -0.104495 0.0350715 0 -1.05196e-05 0 0 0 0 0 0 0 0 0 0 0 0 0 0 0 0 0 2 0.0008 0 
3200 3 0.00738605 0.107231 -0.0341756 0 0 0 0.432105 -0.269655 -0.031121 0 -1.05196e-05 0 0 0 0 0 0 0 0 0 0 0 0 0 0 0 0 0 9 0.0008 0 
3993 2 0.00920809 0.107553 -0.0342022 0 0 0 0.158335 -0.0160103 0.0157891 8.7548e-05 3.28142e-05 -0.000430856 0 1 0 0 0 0 0 0 0 0 0 0 0 0 0 0 5 0.0008 0 
1473 1 0.0106606 0.106729 -0.0335515 0 0 0 0.04482 0.294378 0.156194 -3.58447e-05 -5.5162e-05 -4.31399e-05 1 0 0 0 0 0 0 0 0 0 0 0 0 0 0 0 6 0.0008 0 
5479 3 0.0126232 0.106995 -0.0334646 0 0 0 0.253706 0.225444 -0.0471106 -3.69812e-05 -0.000228365 -0.000210935 0 0 0 0 0 0 0 0 1 0 0 0 0 0 0 0 5 0.0008 0 
822 7 0.0139556 0.107548 -0.0341695 0 0 0 0.14278 -0.0449256 0.0236946 0 -1.05196e-05 0 0 0 0 0 0 0 0 0 0 0 0 0 0 0 0 0 3 0.0008 0 
3685 3 0.0164702 0.106873 -0.0338379 0 0 0 0.292206 0.640238 -0.605313 0 -1.05196e-05 0 0 0 0 0 0 0 0 0 0 0 0 0 0 0 0 0 2 0.0008 0 
665 6 0.0182111 0.107712 -0.0341954 0 0 0 0.944461 0.492636 0.179707 0 -1.05196e-05 0 0 0 0 0 0 0 0 0 0 0 0 0 0 0 0 0 12 0.0008 0 
5093 5 0.011555 0.107942 -0.0341968 0 0 0 -0.00274272 0.0467847 -0.00641769 0 -1.05196e-05 0 0 0 0 0 0 0 0 0 0 0 0 0 0 0 0 0 3 0.0008 0 
3968 1 0.0166692 0.108621 -0.0342006 0 0 0 0.725414 -0.0788936 0.00840924 -2.28279e-05 -5.3608e-06 4.68072e-05 0 0 0 0 0 0 0 0 0 0 0 0 0 0 0 0 4 0.0008 0 
2633 3 0.00195517 0.108995 -0.033992 0 0 0 -0.0603323 -0.0825525 -0.0494632 0 -1.05196e-05 0 0 0 0 0 0 0 0 0 0 0 0 0 0 0 0 0 5 0.0008 0 
5086 3 0.00378278 0.109076 -0.034076 0 0 0 0.0466438 -0.131677 0.0360141 0 -1.05196e-05 0 0 0 0 0 0 0 0 0 0 0 0 0 0 0 0 0 2 0.0008 0 
5605 6 0.00562306 0.109154 -0.0340784 0 0 0 0.161434 -0.0600963 -0.0764301 -4.25584e-06 1.06654e-05 -0.00010079 0 0 0 0 0 1 0 0 0 0 0 0 0 0 0 0 2 0.0008 0 
819 6 0.00759019 0.108867 -0.0341692 0 0 0 0.117885 -0.15069 -0.0238703 0 -1.05196e-05 0 0 0 0 0 0 0 0 0 0 0 0 0 0 0 0 0 7 0.0008 0 
4014 6 0.00923935 0.10918 -0.0342105 0 0 0 -0.200101 -0.00771956 0.207058 -0.00332485 -5.4972e-06 -0.000987294 0 0 0 0 0 1 0 0 0 0 0 0 0 0 0 0 7 0.0008 0 
3843 2 0.0133998 0.109184 -0.0342036 0 0 0 0.00250221 -0.103982 -0.196167 -0.00256055 -0.000506483 0.00521629 0 0 0 0 0 0 0 0 0 0 0 0 0 0 0 0 2 0.0008 0 
5939 11 0.0150712 0.108923 -0.0341215 0 0 0 0.39197 -0.386601 0.548052 0 -1.05196e-05 0 0 0 0 0 0 0 0 0 0 0 0 0 0 0 0 0 1 0.0008 0 
6027 8 0.00485521 0.0860215 -0.0329889 0 0 0 0.367758 -1.78184 0.266805 0 -1.05196e-05 0 0 0 0 0 0 0 0 0 0 0 0 0 0 0 0 0 0 0.0008 0 
3332 1 0.0132642 0.0910372 -0.0329873 0 0 0 -0.488755 -0.421994 -1.71401 0 -1.05196e-05 0 0 0 0 0 0 0 0 0 0 0 0 0 0 0 0 0 2 0.0008 0 
5912 1 0.0134245 0.0977184 -0.0331598 0 0 0 -2.80192 -1.03529 0.884584 0 -1.05196e-05 0 0 0 0 0 0 0 0 0 0 0 0 0 0 0 0 0 0 0.0008 0 
5984 6 0.0109202 0.103173 -0.0331446 0 0 0 1.76105 -0.238669 -0.306982 0 -1.05196e-05 0 0 0 0 0 0 0 0 0 0 0 0 0 0 0 0 0 0 0.0008 0 
4891 1 0.00789793 0.103841 -0.032652 0 0 0 2.16979 -0.308898 0.958604 0 -1.05196e-05 0 0 0 0 0 0 0 0 0 0 0 0 0 0 0 0 0 3 0.0008 0 
3755 1 0.0133988 0.103847 -0.0326733 0 0 0 -1.08801 0.211484 -0.922434 0.000546299 -0.00111647 -0.000643334 2 0 1 0 0 0 0 0 0 0 0 0 0 0 0 0 6 0.0008 0 
1142 6 0.00321807 0.104677 -0.0333563 0 0 0 0.756218 -0.148832 0.503553 -0.00175382 -0.000526488 -0.00138355 0 0 0 0 0 1 0 0 0 0 0 0 0 0 0 0 5 0.0008 0 
2252 3 0.0112142 0.104777 -0.0330143 0 0 0 1.11408 -0.474568 0.202535 0 -1.05196e-05 0 0 0 0 0 0 0 0 0 0 0 0 0 0 0 0 0 6 0.0008 0 
5280 2 0.0131222 0.105402 -0.0325564 0 0 0 0.128817 0.82865 -0.224287 -0.00102756 0.00276637 -0.00034107 1 0 0 0 0 0 0 0 0 0 0 0 0 0 0 0 1 0.0008 0 
6240 5 0.01496 0.104822 -0.0325014 0 0 0 0.30755 -0.24361 -0.434527 0 -1.05196e-05 0 0 0 0 0 0 0 0 0 0 0 0 0 0 0 0 0 0 0.0008 0 
5296 3 0.0143804 0.10626 -0.0330803 0 0 0 0.475424 -0.0223911 -0.219658 0 -1.05196e-05 0 0 0 0 0 0 0 0 0 0 0 0 0 0 0 0 0 0 0.0008 0 
3912 3 0.00184261 0.107693 -0.0329161 0 0 0 0.0615792 -0.112942 0.14766 0 -1.05196e-05 0 0 0 0 0 0 0 0 0 0 0 0 0 0 0 0 0 3 0.0008 0 
5577 7 0.00653695 0.107482 -0.0325516 0 0 0 -0.292047 -0.00728975 -0.121929 0 -1.05196e-05 0 0 0 0 0 0 0 0 0 0 0 0 0 0 0 0 0 4 0.0008 0 
6016 6 0.0152152 0.107706 -0.0328365 0 0 0 0.107656 0.15464 0.242438 0.00248363 -0.00430633 0.000241337 0 0 0 0 0 1 0 0 0 0 0 0 0 0 0 0 1 0.0008 0 
4313 4 0.00918178 0.108179 -0.0327362 0 0 0 -0.145124 -0.229744 0.12578 -6.70051e-05 0.000304755 0.00123555 0 1 0 1 0 0 0 0 0 0 0 0 0 0 0 0 3 0.0008 0 
4251 1 0.00262637 0.109175 -0.0325382 0 0 0 -0.0072671 -0.0142121 -0.0807082 -0.000111735 5.21073e-05 -0.000274809 1 0 0 0 0 0 0 0 0 0 0 0 0 0 0 0 6 0.0008 0 
1133 2 0.00431601 0.109029 -0.0325013 0 0 0 0.0337231 -0.0654037 0.0460244 0 -1.05196e-05 0 0 0 0 0 0 0 0 0 0 0 0 0 0 0 0 0 3 0.0008 0 
3042 3 0.0063137 0.109193 -0.0326365 0 0 0 -0.0525401 0.0568463 0.0182973 0.000753764 0.000408807 -0.00135501 0 0 0 0 0 1 0 0 0 0 0 0 0 0 0 0 4 0.0008 0 
576 2 0.00791839 0.109152 -0.0326178 0 0 0 -0.0327184 -0.0560462 0.05156 -0.000105869 1.10671e-05 1.99121e-05 0 0 0 1 0 0 0 0 0 0 0 0 0 0 0 0 5 0.0008 0 
4215 3 0.0103602 0.1092 -0.0330996 0 0 0 -0.20994 0.0196871 0.489908 -0.000168423 -0.00021251 0.0024424 0 0 2 0 0 1 0 0 0 0 0 0 0 0 0 0 7 0.0008 0 
5072 8 0.0119414 0.109199 -0.033257 0 0 0 -0.213552 0.0444836 0.148297 0.00386443 4.30728e-05 0.000594567 0 0 1 0 0 0 0 0 0 0 0 0 0 0 0 0 3 0.0008 0 
1749 6 0.0133768 0.108805 -0.0326456 0 0 0 -0.125133 -0.236096 -0.223549 0 -1.05196e-05 0 0 0 0 0 0 0 0 0 0 0 0 0 0 0 0 0 1 0.0008 0 
5863 1 0.0149248 0.109209 -0.0324005 0 0 0 0.0868417 -0.0611908 0.274928 -7.46914e-05 -0.00229877 0.00200242 0 0 0 0 0 1 0 0 0 0 0 0 0 0 0 0 1 0.0008 0 
4191 7 0.0172302 0.109068 -0.0327273 0 0 0 0.234943 -0.0695167 0.386251 0 -1.05196e-05 0 0 0 0 0 0 0 0 0 0 0 0 0 0 0 0 0 4 0.0008 0 
6201 6 0.00532073 0.0121021 -0.0313651 0 0 0 3.3348 -3.36707 0.0962741 0 -1.05196e-05 0 0 0 0 0 0 0 0 0 0 0 0 0 0 0 0 0 0 0.0008 0 
3636 6 0.00456008 0.0276631 -0.0322457 0 0 0 -0.360741 -2.14805 -4.9158 0 -1.05196e-05 0 0 0 0 0 0 0 0 0 0 0 0 0 0 0 0 0 2 0.0008 0 
4825 9 0.0121925 0.0731009 -0.0320615 0 0 0 0.260156 -1.05982 1.29239 -0.024635 -0.0215463 0.0481024 0 0 0 0 0 0 0 0 0 0 0 0 0 0 0 0 2 0.0008 0 
4622 4 0.0183402 0.0843308 -0.0317802 0 0 0 2.2529 0.56385 -2.11729 0 -1.05196e-05 0 0 0 0 0 0 0 0 0 0 0 0 0 0 0 0 0 2 0.0008 0 
6230 4 0.0167986 0.0860445 -0.03171 0 0 0 -3.55682 4.13015 1.38624 0 -1.05196e-05 0 0 0 0 0 0 0 0 0 0 0 0 0 0 0 0 0 0 0.0008 0 
2584 1 0.0117554 0.102812 -0.0315933 0 0 0 1.61948 0.335583 0.82711 0 -1.05196e-05 0 0 0 0 0 0 0 0 0 0 0 0 0 0 0 0 0 2 0.0008 0 
2924 3 0.0140721 0.103329 -0.0313301 0 0 0 -0.0780657 0.852547 -0.881848 0.000489713 -0.00139855 0.00112718 1 0 0 0 0 0 0 0 0 0 0 0 0 0 0 0 4 0.0008 0 
875 5 0.00420159 0.104394 -0.0321279 0 0 0 0.340636 -0.726688 0.211043 0.00175382 0.000505448 0.00138355 0 0 0 0 0 1 0 0 0 0 0 0 0 0 0 0 13 0.0008 0 
6173 2 0.00238576 0.105437 -0.0321616 0 0 0 0.204333 -0.222178 0.0548485 0 -1.05196e-05 0 0 0 0 0 0 0 0 0 0 0 0 0 0 0 0 0 1 0.0008 0 
1328 9 0.00642225 0.105744 -0.0318452 0 0 0 0.631793 -0.176584 0.270772 0 -1.05196e-05 0 0 0 0 0 0 0 0 0 0 0 0 0 0 0 0 0 3 0.0008 0 
2241 4 0.011813 0.106281 -0.0317291 0 0 0 0.404642 -0.496699 0.582101 -0.000131523 0.0001663 -5.94688e-05 0 0 0 1 0 0 0 0 0 0 0 0 0 0 0 0 3 0.0008 0 
5994 5 0.001813 0.106909 -0.0314191 0 0 0 0.0438658 0.00521029 0.113164 0 -1.05196e-05 0 0 0 0 0 0 0 0 0 0 0 0 0 0 0 0 0 1 0.0008 0 
1888 3 0.00395664 0.107523 -0.0320652 0 0 0 0.341032 0.17811 -0.348487 0 -1.05196e-05 0 0 0 0 0 0 0 0 0 0 0 0 0 0 0 0 0 6 0.0008 0 
5775 13 0.00805339 0.107301 -0.0319854 0 0 0 -0.201458 -0.32898 0.0605217 0 -1.05196e-05 0 0 0 0 0 0 0 0 0 0 0 0 0 0 0 0 0 2 0.0008 0 
4374 5 0.0167297 0.107196 -0.0322598 0 0 0 0.0201892 -1.04742 -0.0360211 -0.00605361 0.00453993 -0.00980399 0 0 0 0 1 0 0 0 0 0 0 0 0 0 0 0 5 0.0008 0 
3864 3 0.00548544 0.108374 -0.0315474 0 0 0 0.0552434 -0.042655 -0.0254139 -0.000333494 -0.000504899 0.000945262 0 0 1 0 0 0 0 0 0 0 0 0 0 0 0 0 6 0.0008 0 
5937 4 0.0107672 0.107781 -0.0323507 0 0 0 -0.30502 -0.0513105 0.464333 -2.06413e-05 1.47631e-05 6.40019e-06 1 0 0 1 0 0 0 0 0 0 0 0 0 0 0 0 2 0.0008 0 
4689 7 0.0123295 0.107765 -0.0320172 0 0 0 -0.15285 -0.289286 0.0263008 0.000734203 0.000313594 0.00122339 0 0 0 2 0 0 1 0 0 0 0 0 0 0 0 0 7 0.0008 0 
5923 2 0.00914557 0.109171 -0.0314103 0 0 0 -0.0246828 -0.0278448 0.124351 0 -1.05196e-05 0 0 0 0 0 0 0 0 0 0 0 0 0 0 0 0 0 2 0.0008 0 
2253 4 0.0107923 0.109182 -0.031572 0 0 0 -0.422993 0.0887742 0.576662 0.00226622 2.82593e-05 0.00417093 0 0 1 0 0 0 0 0 0 0 0 0 0 0 0 0 8 0.0008 0 
1434 3 0.0124041 0.10919 -0.0313021 0 0 0 0.0531757 0.267164 -0.556734 -0.000546194 -0.000492093 -0.00112718 0 0 0 0 0 0 1 0 0 0 0 0 0 0 0 0 2 0.0008 0 
2967 5 0.00845547 0.0561656 -0.0305984 0 0 0 1.5054 1.15302 0.982117 0 -1.05196e-05 0 0 0 0 0 0 0 0 0 0 0 0 0 0 0 0 0 4 0.0008 0 
3291 3 0.0107544 0.0679683 -0.030331 0 0 0 -0.0444315 -4.85943 0.227715 0 -1.05196e-05 0 0 0 0 0 0 0 0 0 0 0 0 0 0 0 0 0 5 0.0008 0 
4262 2 0.00456258 0.0899264 -0.0303315 0 0 0 0.495292 0.500033 0.669567 0 -1.05196e-05 0 0 0 0 0 0 0 0 0 0 0 0 0 0 0 0 0 1 0.0008 0 
4290 4 0.0164357 0.0902296 -0.0311802 0 0 0 -3.10222 -0.229748 -0.651965 0 -1.05196e-05 0 0 0 0 0 0 0 0 0 0 0 0 0 0 0 0 0 6 0.0008 0 