ITEM: TIMESTEP
12250000
ITEM: NUMBER OF ENTRIES
383
ITEM: BOX BOUNDS ff ff ff
-0.01 0.45
-0.15 0.15
-0.08 0.1
ITEM: ENTRIES c_pwc[1] c_pwc[2] c_pwc[3] 
0 932 892 
0 850 41 
0 850 480 
0 885 41 
0 885 480 
0 894 675 
0 854 1204 
0 853 763 
0 852 990 
0 852 1133 
0 894 1236 
0 894 1289 
0 894 1122 
0 894 1107 
0 894 1205 
0 894 123 
0 894 194 
0 894 957 
0 852 1328 
0 855 1413 
0 855 1310 
0 855 308 
0 855 1236 
0 854 590 
0 854 176 
1 529 417 
1 530 417 
1 1828 417 
1 1842 417 
1 1830 417 
1 1831 417 
1 1827 417 
1 526 417 
1 541 417 
1 527 417 
1 525 417 
1 1871 417 
1 1870 417 
1 1869 417 
1 1868 417 
1 1892 417 
1 1893 417 
1 1885 417 
1 1861 417 
1 1874 417 
1 1873 417 
1 1889 417 
1 1883 417 
1 1890 417 
0 950 691 
0 946 1524 
1 134 1377 
1 136 1377 
1 2650 1377 
1 123 1377 
1 125 1377 
1 120 1377 
1 2649 1377 
1 126 1377 
1 2647 1377 
1 2707 1377 
1 2674 1377 
1 2672 1377 
1 2673 1377 
1 2644 1377 
1 2721 1377 
1 2722 1377 
1 2702 1377 
1 2703 1377 
1 2724 1377 
1 2726 1377 
1 2698 752 
1 2717 752 
1 2685 752 
0 958 1526 
0 957 1526 
0 885 270 
0 885 969 
0 885 48 
0 885 127 
0 885 52 
0 885 908 
0 885 276 
0 885 6 
0 885 79 
0 885 351 
0 885 45 
0 885 393 
0 885 39 
0 850 270 
0 850 969 
0 850 48 
0 850 127 
0 850 52 
0 850 908 
0 850 276 
0 850 6 
0 850 79 
0 850 351 
0 850 45 
0 851 393 
0 851 39 
0 895 794 
0 895 1038 
0 853 1484 
0 853 1369 
0 853 709 
0 884 788 
0 850 788 
0 894 1238 
0 894 630 
0 894 1224 
0 894 414 
0 894 326 
0 894 391 
0 894 107 
0 894 240 
0 852 1062 
0 895 20 
0 895 986 
0 895 522 
0 895 671 
0 895 619 
0 895 1433 
0 925 1336 
0 923 1390 
1 1854 146 
1 481 146 
1 480 146 
1 499 146 
1 497 146 
0 953 274 
0 916 332 
0 961 1029 
0 961 40 
0 753 1029 
0 753 40 
0 886 15 
0 885 15 
0 850 15 
0 892 348 
0 892 730 
0 891 439 
0 887 1047 
0 887 1124 
0 892 1300 
0 895 245 
0 895 185 
0 383 334 
0 393 881 
0 391 540 
0 391 1480 
0 387 301 
0 373 1353 
0 397 149 
0 437 1231 
0 435 210 
0 431 216 
0 431 500 
1 2614 500 
0 431 57 
0 429 721 
0 429 1077 
0 415 28 
0 411 585 
0 414 1391 
0 386 284 
0 378 246 
0 376 1203 
0 394 1128 
0 392 943 
0 390 1114 
0 368 226 
0 364 421 
0 434 424 
0 408 132 
0 404 884 
0 424 470 
0 427 537 
0 425 610 
0 419 810 
0 411 412 
0 537 1357 
0 531 1386 
0 531 1452 
0 529 578 
0 376 66 
0 541 17 
0 539 1217 
0 388 915 
0 388 664 
0 525 1194 
0 525 3 
0 519 180 
0 518 1165 
0 402 521 
0 402 1043 
0 587 528 
0 587 1209 
0 585 1457 
0 438 198 
0 432 1216 
0 583 1318 
0 559 1257 
0 478 834 
0 404 834 
0 577 1061 
0 575 593 
0 430 99 
0 424 1240 
0 422 173 
0 569 152 
0 565 780 
0 416 35 
0 414 168 
0 419 506 
0 535 327 
0 529 837 
0 527 122 
0 538 405 
0 545 1167 
0 541 936 
0 525 1171 
0 523 22 
0 521 208 
0 516 1422 
0 517 1422 
0 526 1159 
0 551 724 
0 547 162 
0 587 1248 
0 517 25 
0 561 822 
0 579 875 
0 577 1308 
0 575 1397 
0 571 602 
0 567 853 
0 536 1 
0 528 236 
0 528 186 
0 546 694 
0 546 422 
0 545 280 
0 524 1419 
0 522 441 
0 516 1069 
0 516 1072 
0 525 124 
0 517 1069 
0 526 124 
0 526 388 
0 584 33 
0 556 346 
0 556 733 
0 555 187 
0 563 174 
0 582 31 
0 582 1190 
0 578 599 
0 574 614 
0 572 1145 
0 572 155 
0 577 1035 
0 575 1182 
0 573 155 
0 568 686 
0 566 205 
0 564 177 
0 564 1246 
0 565 722 
0 563 1087 
0 1057 697 
0 1055 109 
0 1053 413 
0 1071 1420 
0 1065 665 
0 1065 485 
0 1047 817 
0 1045 876 
0 1079 85 
0 1077 201 
0 1075 1350 
0 1073 518 
0 550 1325 
0 1115 430 
0 1109 320 
0 1109 232 
1 2572 13 
0 1087 873 
0 560 24 
0 560 71 
0 556 1407 
0 1109 238 
0 1105 982 
0 1103 358 
0 1101 158 
0 1095 47 
0 1093 852 
0 1093 1037 
0 1091 950 
0 1091 461 
0 1089 429 
0 1097 1012 
0 1064 1048 
0 1054 191 
0 1053 277 
0 1072 115 
0 1071 166 
0 1069 215 
0 1068 374 
0 1067 234 
0 1051 80 
0 1050 617 
0 1048 556 
0 1048 1179 
0 1046 1054 
0 1045 241 
0 1080 656 
0 1078 925 
0 1075 90 
0 1073 67 
0 1073 443 
0 1116 78 
0 1115 223 
0 1115 160 
0 1112 812 
0 1110 921 
0 1088 163 
0 1087 646 
0 1086 605 
0 1081 706 
0 1081 804 
0 1108 476 
0 1104 1307 
0 1100 913 
0 1091 785 
0 1289 269 
0 1279 86 
0 1062 315 
0 1297 98 
0 1295 62 
0 1072 858 
0 1070 571 
0 1068 32 
0 1050 1157 
0 1046 770 
0 1052 282 
0 1080 202 
0 1339 10 
0 1337 1010 
0 1116 504 
0 1113 847 
0 1086 11 
0 1086 120 
0 1086 893 
0 1105 242 
0 1104 643 
0 1102 135 
0 1094 363 
0 1284 153 
0 1281 91 
0 1297 379 
0 1293 279 
0 1291 478 
0 1291 736 
0 1277 725 
0 1270 530 
0 1305 372 
0 1302 335 
0 1302 170 
0 1301 335 
0 1309 1164 
0 1307 366 
0 1322 217 
0 1321 408 
0 1298 1403 
0 1293 302 
0 118 101 
0 1330 444 
0 1324 838 
0 1318 376 
0 103 687 
