ITEM: TIMESTEP
8700000
ITEM: NUMBER OF ENTRIES
2638
ITEM: BOX BOUNDS ff ff ff
-0.01 0.45
-0.15 0.15
-0.08 0.1
ITEM: ENTRIES c_pwc[1] c_pwc[2] c_pwc[3] c_pwc[4] c_pwc[5] c_pwc[6] c_pwc[7] c_pwc[8] c_pwc[9] c_pwc[10] c_pwc[11] c_pwc[12] c_pwc[13] c_pwc[14] 
0 0 0 0.323584 -2.71338 1.34894 0 924 2349 0.000422535 0.00915048 0.00690598 5.11588e-08 1.02433e-05 
0 0 0 -0.000455969 -0.322559 0.243673 0 786 15618 -8.04207e-12 5.64809e-06 3.55102e-06 3.86921e-10 7.69792e-08 
0 0 0 0.00386492 0.0218577 -0.0564211 0 780 10441 8.88419e-19 9.53905e-06 2.53098e-06 5.00925e-10 9.96621e-08 
0 0 0 0.0559784 0.00814992 -0.0210374 0 780 8467 1.36095e-17 9.53905e-06 2.53098e-06 5.00925e-10 9.96621e-08 
0 0 0 -0.00031044 3.36657e-05 0.000543526 0 778 7649 1.31888e-06 8.15845e-06 -2.117e-06 4.54052e-10 9.03359e-08 
0 0 0 -0.0106608 -0.000283858 0.0015525 0 778 15694 5.12743e-05 1.94639e-05 -4.85931e-05 5.15621e-10 1.02586e-07 
0 0 0 -0.00219773 0.000551365 -9.7163e-05 0 778 3129 -1.64408e-06 7.2204e-06 1.35534e-06 5.33144e-10 1.06073e-07 
0 0 0 0.000624641 -0.000132351 0.000384534 0 778 8040 8.28954e-08 8.98555e-06 1.02424e-06 4.60514e-10 9.16216e-08 
0 0 0 -0.0250369 -0.0036854 0.0197151 0 778 5338 2.90869e-18 1.02659e-05 1.35713e-06 5.18851e-10 1.03229e-07 
0 0 0 -0.0065658 -0.00282928 0.0151352 0 778 7654 4.37889e-14 1.02667e-05 1.35729e-06 5.18874e-10 1.03233e-07 
0 0 0 0.00307467 -0.000141604 0.000970993 0 778 4413 -1.40299e-08 9.90636e-06 4.70116e-07 5.10018e-10 1.01471e-07 
0 0 0 0.0350963 0.0025051 -0.0136611 0 778 10802 -0.000280551 4.97688e-06 2.75584e-05 4.95474e-10 9.85776e-08 
0 0 0 0.00336872 -0.000201473 0.000792476 0 778 14580 -5.21688e-09 9.92744e-06 1.22045e-06 4.95367e-10 9.85563e-08 
0 0 0 -0.0189654 -0.00315669 0.0168851 0 778 15381 1.63902e-12 1.02638e-05 1.35671e-06 5.18713e-10 1.03201e-07 
0 0 0 0.000929787 -0.000566482 0.00278582 0 778 3837 2.75735e-09 1.13087e-05 1.61595e-06 5.44541e-10 1.0834e-07 
0 0 0 -7.34997e-05 -0.000668408 0.00303754 0 778 5611 2.77858e-08 1.14726e-05 1.6219e-06 5.38313e-10 1.07101e-07 
0 0 0 -0.0217062 0.000107844 -0.000576914 0 778 12332 -9.94815e-19 1.02659e-05 1.35713e-06 5.18851e-10 1.03229e-07 
0 0 0 -0.00391397 -0.000388811 0.00222166 0 778 14360 5.96598e-10 9.21312e-06 1.13454e-06 4.8797e-10 9.70845e-08 
0 0 0 -0.0958739 -0.000684807 0.00366339 0 778 1637 -1.9778e-17 1.02659e-05 1.35713e-06 5.18851e-10 1.03229e-07 
0 0 0 0.00979798 0.00312043 -0.017168 0 778 12917 -2.48458e-10 1.09488e-05 1.48524e-06 5.23094e-10 1.04073e-07 
0 0 0 0.00946638 0.00135887 -0.0072693 0 778 14749 2.59729e-18 1.02659e-05 1.35713e-06 5.18851e-10 1.03229e-07 
0 0 0 0.0179102 0.00116298 -0.00622138 0 778 255 5.71503e-15 1.02658e-05 1.35713e-06 5.1885e-10 1.03229e-07 
0 0 0 0.0213197 0.00110611 -0.00591804 0 778 4848 -9.268e-13 1.02651e-05 1.35697e-06 5.18789e-10 1.03216e-07 
0 0 0 0.00556816 -0.00395075 0.0254622 0 778 15272 1.27068e-08 -1.53356e-07 -1.15147e-07 2.88314e-10 5.73602e-08 
0 0 0 0.0597062 -0.0016396 0.00354548 0 778 12450 3.74566e-06 3.43131e-05 -9.41042e-06 9.29383e-10 1.84916e-07 
0 0 0 0.0139086 -0.000879979 0.00473669 0 778 13527 3.85883e-11 1.02785e-05 1.35987e-06 5.20448e-10 1.03546e-07 
0 0 0 0.00686391 -0.000704664 0.00239955 0 778 10496 4.89443e-07 9.3642e-06 1.41183e-06 4.33696e-10 8.62858e-08 
0 0 0 0.00778081 -0.000819023 0.00339262 0 778 14724 1.0994e-06 1.00823e-05 1.01196e-06 4.71084e-10 9.37246e-08 
0 0 0 0.0887554 -0.00709006 0.0379284 0 778 13175 -1.06031e-17 1.02659e-05 1.35713e-06 5.18851e-10 1.03229e-07 
0 0 0 0.0585234 -0.00382662 0.0204706 0 778 3839 2.9316e-18 1.02659e-05 1.35713e-06 5.18851e-10 1.03229e-07 
0 0 0 -0.00026377 -2.20138e-05 0.000122833 0 778 7764 3.3614e-10 9.88666e-06 1.2822e-06 5.06043e-10 1.0068e-07 
0 0 0 0.0197738 -0.00291979 0.0168842 0 778 6566 -1.39658e-06 5.55703e-06 6.43146e-06 4.40607e-10 8.76607e-08 
0 0 0 0.0226886 -0.00305566 0.0133994 0 778 14256 -8.76463e-06 9.81724e-06 -5.28041e-06 3.41257e-10 6.78937e-08 
0 0 0 0.0217658 -0.000539404 0.00288685 0 778 16506 3.3375e-12 1.02679e-05 1.35755e-06 5.18972e-10 1.03253e-07 
0 0 0 -0.00170331 -0.000107104 0.000463268 0 776 7937 3.97709e-06 2.46049e-05 -6.26459e-06 9.046e-10 1.79985e-07 
0 0 0 -0.00336845 -2.60313e-05 5.74937e-05 0 776 5540 -6.15521e-07 1.13383e-05 -1.55004e-06 5.46149e-10 1.0866e-07 
0 0 0 -8.27688e-05 1.51902e-05 -2.24688e-05 0 776 1200 2.85337e-08 1.06081e-05 1.11267e-07 5.31048e-10 1.05656e-07 
0 0 0 0.000351424 2.16435e-05 1.09005e-05 0 776 1871 -3.12664e-08 1.02711e-05 3.80878e-07 5.21231e-10 1.03702e-07 
0 0 0 3.57644e-05 -3.15491e-05 2.10614e-05 0 776 206 -1.07021e-07 1.14508e-05 6.96149e-07 5.48623e-10 1.09153e-07 
0 0 0 -0.000299264 -1.92532e-05 -6.49621e-05 0 776 1972 4.77039e-08 1.00208e-05 9.00032e-07 5.03902e-10 1.00254e-07 
0 0 0 -0.000379525 3.80029e-05 -2.47633e-05 0 776 733 -1.20138e-07 1.1654e-05 2.03668e-06 5.69993e-10 1.13405e-07 
0 0 0 -0.00187183 2.74458e-07 0.000863256 0 776 894 3.93553e-06 3.03566e-06 1.46972e-06 2.29266e-10 4.56123e-08 
0 0 0 -0.002215 -6.58621e-05 0.000326994 0 776 9680 -9.10892e-07 1.28045e-05 -4.38762e-06 5.84507e-10 1.16292e-07 
0 0 0 -8.04874e-05 -5.5748e-05 6.10431e-05 0 776 414 -5.95675e-08 1.17058e-05 -2.32952e-06 5.51718e-10 1.09768e-07 
0 0 0 -0.000245554 2.36527e-05 1.63597e-05 0 776 690 4.60709e-08 1.03897e-05 8.34278e-07 5.25625e-10 1.04577e-07 
0 0 0 -5.32306e-05 -5.16343e-05 7.67201e-05 0 776 280 -7.89233e-09 1.17423e-05 7.65114e-07 5.5377e-10 1.10177e-07 
0 0 0 -0.000321431 4.80111e-05 -0.000146038 0 776 1894 1.69926e-07 9.54756e-06 9.72466e-07 5.02538e-10 9.99831e-08 
0 0 0 0.000116559 -6.5018e-05 -0.000224956 0 776 210 9.78005e-08 1.41318e-05 3.27045e-06 6.25566e-10 1.24462e-07 
0 0 0 0.000745872 1.13236e-05 0.000998959 0 776 9977 2.20721e-08 1.17809e-05 -1.16299e-06 5.68382e-10 1.13084e-07 
0 0 0 -0.00429648 0.000155204 0.00130814 0 776 1225 1.65576e-06 8.93184e-06 3.73536e-07 5.05104e-10 1.00494e-07 
0 0 0 -0.00171582 -3.22037e-05 -5.71029e-05 0 776 3512 8.75753e-07 1.15177e-05 5.29674e-07 5.50651e-10 1.09556e-07 
0 0 0 -8.84813e-05 3.6574e-05 -7.86577e-05 0 776 101 -8.34996e-08 1.07884e-05 7.65643e-07 5.41609e-10 1.07757e-07 
0 0 0 0.000237544 -6.4546e-06 8.51265e-05 0 776 317 6.4377e-08 1.02837e-05 1.18556e-06 5.15547e-10 1.02571e-07 
0 0 0 -0.00261141 -2.34105e-05 6.30554e-05 0 776 1705 -2.45372e-07 9.98005e-06 -2.2193e-07 5.01613e-10 9.9799e-08 
0 0 0 -0.000244082 1.73545e-05 -0.000180489 0 776 2352 2.67135e-07 1.14887e-05 4.21956e-07 5.60282e-10 1.11472e-07 
0 0 0 -0.000602543 -5.0215e-06 0.00318536 0 776 9269 -1.9822e-11 1.05015e-05 -5.08946e-11 5.23138e-10 1.04082e-07 
0 0 0 -0.00494236 -3.37152e-05 0.0024355 0 776 6408 1.11429e-10 1.06851e-05 6.7601e-12 5.23038e-10 1.04062e-07 
0 0 0 -0.00412662 7.75955e-05 0.00356724 0 776 553 -3.85025e-07 9.28483e-06 1.49324e-07 5.00057e-10 9.94894e-08 
0 0 0 -0.00783416 4.83982e-06 0.00370741 0 776 585 -2.04424e-13 1.03584e-05 -5.98832e-13 5.205e-10 1.03557e-07 
0 0 0 -0.0025622 5.91843e-11 0.00324145 0 776 2069 -4.24802e-17 1.05196e-05 5.37671e-17 5.24825e-10 1.04417e-07 
0 0 0 -0.00247229 7.27613e-06 -0.000945499 0 776 531 -4.66837e-08 1.06339e-05 1.75908e-08 5.30192e-10 1.05485e-07 
0 0 0 0.000192332 -2.72043e-05 -0.000897494 0 776 2116 2.73601e-08 1.14226e-05 1.20729e-06 5.48636e-10 1.09155e-07 
0 0 0 -0.00292249 1.64182e-06 0.00979394 0 776 11208 8.35579e-12 1.05425e-05 7.69394e-12 5.25943e-10 1.0464e-07 
0 0 0 -0.0114641 -2.36008e-12 0.0112674 0 776 6702 -1.19795e-18 1.05196e-05 1.1981e-18 5.24825e-10 1.04417e-07 
0 0 0 -0.00509847 2.33514e-06 0.00397611 0 776 1470 -6.19229e-10 1.10766e-05 -9.61797e-09 5.43692e-10 1.08171e-07 
0 0 0 0.000703368 -6.32572e-05 0.00405086 0 776 154 8.94357e-09 1.04695e-05 7.2744e-09 5.09456e-10 1.01359e-07 
0 0 0 0.000178008 -8.1283e-06 -0.00271398 0 776 1045 -1.31828e-07 1.19622e-05 1.29583e-06 5.70047e-10 1.13415e-07 
0 0 0 0.000962136 0.000638777 0.0102567 0 776 1920 2.75529e-06 6.68562e-06 -3.74792e-05 5.36249e-10 1.0669e-07 
0 0 0 0.00124082 4.60374e-05 0.0036917 0 776 3087 -3.59461e-08 1.06095e-05 -2.54575e-08 5.3776e-10 1.06991e-07 
0 0 0 -0.000787283 0.000805639 -0.0123038 0 776 12 1.63315e-06 1.54227e-05 2.78591e-05 8.40487e-10 1.67227e-07 
0 0 0 -0.00105896 0.00184874 0.014598 0 776 1063 2.25625e-06 4.90655e-05 -2.44288e-05 1.7738e-09 3.52964e-07 
0 0 0 -0.0029683 -0.000493953 0.00933229 0 776 4185 -5.6403e-06 1.76599e-05 -5.12285e-05 6.43349e-10 1.28e-07 
0 0 0 0.00535657 2.3462e-12 0.00320727 0 776 4938 5.99035e-19 1.05196e-05 -5.12647e-19 5.24825e-10 1.04417e-07 
0 0 0 0.00278905 -3.93689e-12 -0.000568921 0 776 18 2.45846e-19 1.05196e-05 -7.48726e-20 5.24825e-10 1.04417e-07 
0 0 0 0.00277476 -1.9127e-05 0.00133355 0 776 4248 1.62027e-08 1.09501e-05 -5.76199e-09 5.34937e-10 1.06429e-07 
0 0 0 -0.0103738 5.40772e-12 0.00816745 0 776 9715 1.19812e-18 1.05196e-05 8.99896e-19 5.24825e-10 1.04417e-07 
0 0 0 -0.000216389 -9.21649e-05 0.000129752 0 776 8603 5.96679e-06 1.13089e-05 -2.78148e-07 5.31051e-10 1.05656e-07 
0 0 0 -0.0117433 0.0003008 -0.00778486 0 776 1367 5.71559e-05 8.08283e-06 2.7631e-05 5.08233e-10 1.01116e-07 
0 0 0 -0.0232445 4.01082e-05 -0.00681472 0 776 1036 5.13622e-06 1.07685e-05 1.6153e-06 5.41717e-10 1.07778e-07 
0 0 0 0.00422745 -4.18312e-07 0.00140223 0 776 6544 -4.06509e-13 1.04903e-05 -1.61082e-13 5.23762e-10 1.04206e-07 
0 0 0 -0.0166231 -0.000451003 -0.00917994 0 776 4532 6.33632e-06 1.52655e-05 4.2556e-06 5.81059e-10 1.15606e-07 
0 0 0 -0.0213404 -0.000471982 -0.00719305 0 776 9210 0.000105376 1.26907e-05 4.26943e-05 4.95916e-10 9.86655e-08 
0 0 0 0.00147773 -0.000246911 -0.00274529 0 776 9160 -6.29713e-06 9.16453e-06 2.5189e-05 4.24091e-10 8.43747e-08 
0 0 0 -0.00563027 -0.000210714 -0.00261955 0 776 9639 3.19985e-05 1.06316e-05 1.05422e-05 4.83041e-10 9.61037e-08 
0 0 0 -0.00877542 0.000180549 -0.0122337 0 776 7185 2.50678e-06 1.16532e-05 5.2598e-06 6.00287e-10 1.19432e-07 
0 0 0 0.0102932 0.000455384 0.00181541 0 776 5953 -4.6569e-06 1.35932e-05 4.95045e-06 7.16957e-10 1.42647e-07 
0 0 0 0.0036608 -5.1432e-08 -0.00860808 0 776 3983 -5.18493e-14 1.0519e-05 1.22104e-13 5.24794e-10 1.04411e-07 
0 0 0 -0.00323928 -0.000713723 -0.00445599 0 776 3427 5.28478e-06 1.87255e-05 7.72868e-06 6.30814e-10 1.25506e-07 
0 0 0 0.000646882 0.000775951 -0.00472529 0 776 1118 -2.04368e-06 2.59925e-05 -5.10588e-06 1.10343e-09 2.1955e-07 
0 0 0 -0.0136872 -0.00250589 -0.00377152 0 776 1890 1.31705e-05 2.65763e-05 1.7648e-06 5.18196e-10 1.03098e-07 
0 0 0 -0.0159509 -0.00100196 -0.00866012 0 776 5900 2.97661e-05 6.78717e-05 1.6298e-05 1.65979e-09 3.30273e-07 
0 0 0 0.00510925 1.6832e-06 -0.00158684 0 776 9279 -1.28577e-11 1.05109e-05 -5.4443e-11 5.24903e-10 1.04433e-07 
0 0 0 -0.00122829 0.000421063 -0.00482701 0 776 1366 -4.46458e-06 1.70767e-05 3.20045e-06 8.08897e-10 1.60941e-07 
0 0 0 -0.0115632 -6.96423e-05 -0.00530214 0 776 10907 5.23263e-06 1.25403e-05 3.4546e-06 5.75406e-10 1.14482e-07 
0 0 0 -0.00635431 0.000405144 -0.00407596 0 776 6574 -3.04614e-06 6.65706e-06 2.79554e-05 4.81253e-10 9.57479e-08 
0 0 0 0.00561646 0.00104096 0.00145867 0 776 12872 -3.52145e-06 7.53946e-06 1.34546e-06 6.56041e-10 1.30526e-07 
0 0 0 0.0036705 -1.49013e-06 -0.0104272 0 776 4164 -2.4388e-08 9.404e-06 -3.61414e-08 4.86706e-10 9.68329e-08 
0 0 0 0.00849365 -5.86434e-05 0.00307371 0 776 7893 -8.91076e-06 2.64098e-05 -1.50504e-06 9.58513e-10 1.90713e-07 
0 0 0 0.00447437 0.000361916 -0.00461812 0 776 5950 -1.26656e-05 4.52415e-06 1.36775e-05 3.88871e-10 7.73672e-08 
0 0 0 0.00202151 0.00112757 -0.00798392 0 776 1749 1.41263e-07 6.57759e-07 1.39755e-06 4.22939e-10 8.41454e-08 
0 0 0 0.00849225 7.71083e-13 0.00394286 0 776 5167 -5.87001e-18 1.05196e-05 -2.48137e-18 5.24825e-10 1.04417e-07 
0 0 0 0.00681771 -0.000489669 -0.012501 0 776 11571 -5.93883e-07 1.12957e-05 5.60897e-07 4.45841e-10 8.87023e-08 
0 0 0 0.00692612 -4.26603e-09 -0.0107337 0 776 3630 -8.42203e-15 1.05197e-05 1.3052e-14 5.24827e-10 1.04418e-07 
0 0 0 0.00765209 9.58573e-08 0.00583633 0 776 11531 2.0539e-13 1.0519e-05 1.56651e-13 5.24827e-10 1.04418e-07 
0 0 0 0.000365593 0.000129333 0.000705852 0 777 10595 -8.05644e-07 1.36571e-05 -1.05678e-06 6.51369e-10 1.29596e-07 
0 0 0 -0.0081236 -0.000172442 0.0209394 0 777 8455 2.83655e-05 3.71869e-06 -1.71899e-05 2.18087e-10 4.33883e-08 
0 0 0 0.0101434 0.00029573 0.0142048 0 777 10360 7.80182e-08 1.06302e-05 2.79644e-08 5.92346e-10 1.17852e-07 
0 0 0 0.00526357 0.000105692 0.00290993 0 777 12691 -9.56245e-06 6.58473e-06 -1.80572e-05 4.08773e-10 8.13269e-08 
0 0 0 0.00955576 4.75992e-05 0.00498995 0 777 5399 -8.84919e-10 9.72369e-06 -1.38061e-09 5.08448e-10 1.01159e-07 
0 0 0 0.00287852 -0.000251268 0.00211779 0 777 5560 -1.42018e-07 3.31254e-05 3.37128e-06 1.08252e-09 2.1539e-07 
0 0 0 0.00324258 -3.24357e-09 0.00477054 0 777 14434 -2.95874e-15 1.05196e-05 -4.35293e-15 5.24825e-10 1.04417e-07 
0 0 0 0.011013 -4.42151e-12 0.00335346 0 777 700 3.936e-19 1.05196e-05 6.01685e-19 5.24825e-10 1.04417e-07 
0 0 0 0.00157988 -0.000475784 -0.00262391 0 775 6076 9.17628e-08 9.58855e-06 -1.15486e-06 4.98238e-10 9.91275e-08 
0 0 0 0.00169144 0.000282246 0.0014663 0 775 1541 -4.05148e-09 9.74787e-06 -1.1861e-06 5.0236e-10 9.99476e-08 
0 0 0 -0.0165173 -0.000255807 -0.003818 0 775 3998 5.13635e-06 1.20772e-05 6.46603e-07 6.60585e-10 1.3143e-07 
0 0 0 -0.00391066 -0.00431443 -0.00997893 0 775 3491 2.66868e-05 6.56413e-05 5.27891e-06 1.35593e-09 2.69799e-07 
0 0 0 -0.0178792 0.00256565 0.00192372 0 775 11656 0.000113647 -1.21101e-05 -1.73934e-05 1.6906e-10 3.36342e-08 
0 0 0 -0.0144241 -9.6219e-05 0.00135077 0 775 6493 8.532e-05 6.27896e-06 -2.23264e-05 4.42256e-10 8.79888e-08 
0 0 0 0.00748478 -0.00451573 -0.0243275 0 775 1268 1.01065e-10 1.04735e-05 -1.39966e-06 5.3269e-10 1.05982e-07 
0 0 0 -6.86425e-05 -8.77159e-06 7.12942e-05 0 839 2641 2.44456e-06 2.516e-07 -1.1961e-06 1.79443e-10 3.56998e-08 
0 0 0 -8.27688e-05 1.51902e-05 -2.24688e-05 0 832 1200 1.0213e-06 9.24633e-08 -5.02207e-07 8.45425e-11 1.68194e-08 
0 0 0 3.57644e-05 -3.15491e-05 2.10614e-05 0 832 206 3.63191e-07 4.17529e-10 1.81595e-07 6.91827e-11 1.37636e-08 
0 0 0 -6.86425e-05 -8.77159e-06 7.12942e-05 0 774 2641 1.06582e-07 1.20717e-05 1.24557e-06 5.56747e-10 1.10769e-07 
0 0 0 0.000590975 -6.22699e-06 -9.25797e-05 0 774 5113 -1.55617e-07 8.33337e-06 -1.07696e-07 4.47388e-10 8.901e-08 
0 0 0 -0.00050422 -6.40438e-05 -0.000636845 0 774 10425 3.48148e-08 9.8226e-06 -1.01196e-06 5.13849e-10 1.02234e-07 
0 0 0 0.000267666 -6.77769e-05 -0.000370942 0 774 3865 1.58255e-06 1.13331e-05 1.79294e-06 5.34793e-10 1.06401e-07 
0 0 0 0.000221355 -1.89404e-05 -0.000581572 0 774 4325 -8.61946e-07 1.00131e-05 -9.11113e-07 5.26993e-10 1.04849e-07 
0 0 0 -0.000348086 -8.48324e-06 -0.00015482 0 774 3869 -8.0354e-08 9.72927e-06 -1.12115e-06 5.03983e-10 1.00271e-07 
0 0 0 8.675e-05 -3.93856e-05 6.09363e-06 0 774 1165 7.01534e-07 1.05374e-05 1.08072e-06 5.04105e-10 1.00295e-07 
0 0 0 -0.000781402 -4.46555e-05 4.60955e-05 0 774 2858 -3.24233e-07 7.72296e-06 -8.0692e-07 4.15804e-10 8.27259e-08 
0 0 0 0.000703184 -0.000176771 -0.00111791 0 774 9441 -6.66487e-08 9.56343e-06 -1.14708e-06 5.01123e-10 9.97014e-08 
0 0 0 -0.000444967 -0.000206448 -0.000968747 0 774 8682 1.46956e-10 1.00141e-05 -1.30217e-06 5.04765e-10 1.00426e-07 
0 0 0 -0.00107252 -0.000480908 -0.00246807 0 774 4050 -3.86162e-09 1.02644e-05 -1.35599e-06 5.14625e-10 1.02388e-07 
0 0 0 -0.00445493 0.000739539 0.00297492 0 774 3877 5.49529e-06 1.21254e-05 -5.78029e-06 6.41461e-10 1.27625e-07 
0 0 0 0.00149027 -0.000295967 -0.00158328 0 774 2150 -1.76703e-18 1.02659e-05 -1.35713e-06 5.18851e-10 1.03229e-07 
0 0 0 -0.0063444 -0.000584955 -0.00377249 0 774 12874 -1.39827e-06 7.72527e-06 -1.30601e-06 4.58053e-10 9.11319e-08 
0 0 0 0.00379843 -0.000153523 -0.000821274 0 774 8267 8.40348e-19 1.02659e-05 -1.35713e-06 5.18851e-10 1.03229e-07 
0 0 0 -0.00351385 -0.00597551 -0.0321967 0 774 13214 1.71842e-10 9.9135e-06 -1.29085e-06 5.16035e-10 1.02669e-07 
0 0 0 -0.0143782 -0.00174648 -0.0090301 0 774 6057 1.51408e-10 1.05694e-05 -1.41059e-06 5.16697e-10 1.028e-07 
0 0 0 -0.0302542 0.00180979 0.0099699 0 774 6053 1.12955e-05 2.33152e-05 -9.35978e-06 9.15595e-10 1.82173e-07 
0 0 0 -0.0209714 -0.000184211 -0.000986876 0 774 1877 -1.4707e-12 1.02796e-05 -1.35982e-06 5.19374e-10 1.03333e-07 
0 0 0 0.000426815 -0.000728391 -0.00389655 0 774 7315 2.69262e-20 1.02659e-05 -1.35713e-06 5.18851e-10 1.03229e-07 
0 0 0 -0.00140296 -6.92638e-05 -0.000336871 0 774 5016 -3.20583e-08 1.02043e-05 -1.28131e-06 5.15014e-10 1.02465e-07 
0 0 0 -0.00221953 -0.0160717 -0.0859754 0 774 13605 2.81922e-07 1.00698e-05 -2.42177e-06 5.18921e-10 1.03243e-07 
0 0 0 -0.00778607 -0.00578505 -0.0309472 0 774 13272 4.8039e-19 1.02659e-05 -1.35713e-06 5.18851e-10 1.03229e-07 
0 0 0 -0.00151397 -0.000111128 -0.000737049 0 774 13823 -7.06722e-09 1.08245e-05 -1.15886e-06 5.41501e-10 1.07736e-07 
0 0 0 0.0225043 -2.46863e-05 -5.68417e-05 0 774 11158 -6.19633e-10 9.8569e-06 -1.24168e-06 5.01575e-10 9.97914e-08 
0 0 0 0.0126928 -8.71923e-05 -0.00267778 0 774 12205 -4.34307e-08 -8.1787e-07 -2.3185e-07 1.11885e-10 2.22592e-08 
0 0 0 -0.0224907 -0.00506685 -0.0271061 0 774 6026 3.62064e-06 9.49367e-06 -5.53566e-06 5.19177e-10 1.03294e-07 
0 0 0 -0.0470882 -0.00249959 -0.0129814 0 774 13929 5.57685e-05 1.16272e-05 1.6767e-05 4.3374e-10 8.62945e-08 
0 0 0 -0.0554658 0.00179696 0.00961288 0 774 9818 7.16354e-17 1.02659e-05 -1.35713e-06 5.18851e-10 1.03229e-07 
0 0 0 -0.31111 0.11842 0.305688 0 772 14413 4.59519e-06 8.54643e-06 -5.217e-06 5.01657e-10 9.98078e-08 
0 0 0 -0.00265026 0.00536948 0.00992656 0 884 15744 -0.000129459 -0.000260484 0.000387761 6.98293e-09 1.39042e-06 
0 0 0 -6.58003e-20 -4.5087e-20 3.53499e-12 0 884 5230 5.5703e-21 5.25978e-06 -1.62002 1.22522e-06 0.0003 
0 0 0 0.0478209 0.350138 0.209598 0 884 10273 0.0013061 -0.00155514 0.00532501 4.89788e-08 9.8041e-06 
0 0 0 0.0148132 0.00954852 0.0128016 0 884 10711 -0.000127579 0.000307372 0.00115291 1.32642e-08 2.64319e-06 
0 0 0 -0.0173173 -0.0412226 0.0107514 0 884 15085 9.01813e-06 -3.74348e-05 4.29538e-05 3.11472e-09 6.19894e-07 
0 0 0 -0.00356969 -0.0303879 0.000576971 0 884 3289 -5.29024e-05 2.25693e-05 0.00031793 5.15996e-09 1.0272e-06 
0 0 0 -1.04064e-306 7.54256e-20 -1.1814e-12 0 884 3064 9.63547e-307 5.25978e-06 -1.62002 1.22522e-06 0.0003 
0 0 0 0.0533333 -0.0417831 -0.0115269 0 884 9005 -5.65206e-05 -5.63232e-05 0.00189125 1.56384e-08 3.11724e-06 
0 0 0 -0.039807 -0.023137 0.000652749 0 884 630 0.000174206 -9.13358e-05 2.9211e-05 1.15585e-09 2.29982e-07 
0 0 0 1.50882e-278 -3.75636e-20 -5.89797e-12 0 884 871 -5.97832e-281 5.25978e-06 -1.62002 1.22522e-06 0.0003 
0 0 0 9.52749e-51 9.30855e-21 5.89794e-12 0 884 1962 -2.35542e-52 5.25978e-06 -1.62002 1.22522e-06 0.0003 
0 0 0 0.7497 0.902817 0.453297 0 884 14776 -0.00172946 0.00183707 0.006272 6.96871e-08 1.39861e-05 
0 0 0 -0.0200085 -0.0181039 -0.000917361 0 884 2089 3.56412e-05 -0.000174819 0.000753385 8.94412e-09 1.78136e-06 
0 0 0 -0.0392089 -0.0160129 1.10932e-05 0 884 5717 0.000195371 -4.97674e-07 0.000390742 5.84009e-09 1.16269e-06 
0 0 0 -1.88972e-05 -0.027517 0.000252669 0 884 2992 -3.77367e-05 7.46692e-05 0.000167327 3.3527e-09 6.67277e-07 
0 0 0 -0.00979927 -0.00710807 0.000553785 0 884 4734 1.51029e-05 1.49169e-06 3.03528e-05 1.16401e-09 2.31606e-07 
0 0 0 -0.0229913 -0.0720386 2.90156e-05 0 884 7019 2.04317e-06 2.52698e-06 6.49928e-06 3.8752e-10 7.70984e-08 
0 0 0 1.95928e-17 -9.84265e-17 -5.89533e-13 0 884 2565 -0.000406573 -0.00367649 -1.62002 1.22522e-06 0.0003 
0 0 0 -6.29852e-97 -8.48487e-20 5.89794e-12 0 884 2145 7.30417e-99 5.25978e-06 -1.62002 1.22522e-06 0.0003 
0 0 0 -0.0597635 -0.0846685 0.00324146 0 884 16569 0.000286993 0.00025033 2.53413e-05 1.54137e-09 3.06704e-07 
0 0 0 1.19667e-115 -8.4936e-20 -5.89795e-12 0 884 7394 -1.25598e-116 5.25978e-06 -1.62002 1.22522e-06 0.0003 
0 0 0 -0.00402549 -0.0382035 0.00486399 0 884 936 -1.22505e-05 3.01326e-05 6.50552e-05 2.53937e-09 5.05352e-07 
0 0 0 -0.0284113 -0.0419052 0.00552765 0 884 12850 1.74409e-05 4.6588e-05 9.94912e-05 3.165e-09 6.29905e-07 
0 0 0 -1.16184e-302 -4.71165e-20 -1.18147e-12 0 884 3089 -8.24474e-307 5.25978e-06 -1.62002 1.22522e-06 0.0003 
0 0 0 3.20748e-81 -4.70231e-20 -2.3606e-12 0 884 1269 -7.10314e-82 5.25978e-06 -1.62002 1.22522e-06 0.0003 
0 0 0 -1.94306 1.40994 1.64827 0 884 16089 -0.00118185 0.0021931 -0.011956 9.94634e-08 2.00386e-05 
0 0 0 -0.040422 -0.00480716 0.0022632 0 884 9778 0.000488155 2.65474e-05 1.88779e-05 1.21467e-09 2.41687e-07 
0 0 0 -0.0184526 -0.00796949 0.00116036 0 884 10074 8.92993e-06 1.39994e-05 3.321e-05 1.33636e-09 2.65904e-07 
0 0 0 -0.0296377 0.0399641 1.18892e-05 0 884 8636 0.000241311 1.91905e-06 2.39841e-05 9.11341e-10 1.81326e-07 
0 0 0 -0.0139365 0.0340182 0.000851609 0 884 4057 5.47047e-05 -5.36115e-06 1.57758e-05 8.59417e-10 1.70994e-07 
0 0 0 -0.0459972 -0.0311585 -0.0149313 0 884 15365 9.70045e-05 3.47337e-05 0.000206071 1.89407e-09 3.76902e-07 
0 0 0 -0.0367018 0.0283136 -0.0140434 0 884 14638 0.000123575 -0.000201831 0.00161672 1.37228e-08 2.73474e-06 
0 0 0 -0.0413727 0.0103848 -0.00177014 0 884 9257 2.96687e-05 -6.7646e-06 6.08602e-05 1.40577e-09 2.79718e-07 
0 0 0 -2.9826e-302 2.81916e-20 5.89791e-12 0 884 7839 -1.83222e-307 5.25978e-06 -1.62002 1.22522e-06 0.0003 
0 0 0 -0.0908681 -0.10419 0.00169668 0 884 3640 5.52651e-05 6.69593e-05 0.000173641 3.63108e-09 7.22706e-07 
0 0 0 -0.0720947 -0.0444706 -0.00209035 0 884 6377 7.38929e-05 0.000161258 0.000354764 5.22351e-09 1.03986e-06 
0 0 0 -0.0588586 0.0169339 0.00744436 0 884 11976 -0.000143085 0.000445956 0.0014159 1.44703e-08 2.88398e-06 
0 0 0 -0.022209 -0.0416413 -0.00308778 0 884 1828 0.000169333 7.42612e-05 0.000369802 5.25973e-09 1.04707e-06 
0 0 0 -0.0423474 0.0362667 0.0036072 0 884 11619 7.9771e-06 -2.34335e-07 -1.59611e-05 2.80386e-10 5.57829e-08 
0 0 0 -0.0577683 -0.00323836 -0.0102055 0 884 6421 0.000238345 1.66627e-05 0.000800891 8.34726e-09 1.66236e-06 
0 0 0 0.00618055 0.0128654 0.00392605 0 884 65 2.21467e-05 -4.92544e-05 0.000284739 5.21841e-09 1.03884e-06 
0 0 0 -6.68281e-215 7.52979e-20 1.18147e-12 0 884 5274 1.40098e-216 5.25978e-06 -1.62002 1.22522e-06 0.0003 
0 0 0 -0.0254956 -0.0302362 0.00083043 0 884 10526 9.04272e-07 1.06762e-06 2.79823e-06 4.35683e-10 8.6681e-08 
0 0 0 -2.12262e-16 -6.29193e-18 4.1292e-12 0 884 2130 0.055312 0.00299661 -1.6162 1.22374e-06 0.000299528 
0 0 0 0.0869927 0.0334346 -0.0112245 0 884 2820 -0.00028785 -0.000501663 0.00263175 1.9822e-08 3.95322e-06 
0 0 0 -0.00626975 0.0111916 0.0142746 0 884 14297 -2.39712e-06 -2.20531e-05 -7.25137e-05 1.41302e-09 2.81161e-07 
0 0 0 2.74957e-07 0.0227478 -0.0356457 0 884 12435 0.000138916 0.00012614 0.00161917 1.1735e-08 2.33801e-06 
0 0 0 -0.0320798 -0.00436023 -0.00063095 0 884 6198 5.7181e-05 3.01348e-05 0.000129271 2.70417e-09 5.38159e-07 
0 0 0 -0.0513817 -0.00476911 0.00204664 0 884 6257 0.000247941 4.28309e-05 2.34791e-05 1.28115e-09 2.54918e-07 
0 0 0 0.000660978 0.0506389 0.0214495 0 884 8882 -0.000771193 -0.000367381 0.00404473 2.9366e-08 5.86367e-06 
0 0 0 2.59351e-16 1.94843e-17 4.12929e-12 0 884 4708 -0.0640515 -0.00345873 -1.62385 1.2267e-06 0.000300472 
0 0 0 0.0616544 0.118491 0.0197876 0 884 13942 -2.24962e-05 -3.54824e-05 8.40258e-05 5.00847e-09 9.97024e-07 
0 0 0 -6.86982e-15 -3.62266e-17 3.26203e-19 0 863 2723 -1.6184 0.00924856 2.14725e-05 1.22459e-06 0.0002998 
0 0 0 -6.85756e-15 -3.87093e-17 3.20972e-19 0 863 4560 -1.62164 -0.0132331 -2.92544e-05 1.22585e-06 0.0003002 
0 0 0 2.33011e-15 4.62991e-20 -2.06418e-302 0 862 444 -1.62002 5.25978e-06 2.62452e-307 1.22522e-06 0.0003 
0 0 0 -6.87228e-15 2.99475e-21 -2.47604e-20 0 862 927 -1.62002 9.31605e-05 -8.52417e-07 1.22522e-06 0.0003 
0 0 0 1.78523 2.40748 1.20603 0 854 1674 0.067356 -0.00763694 0.0328007 2.60855e-07 5.36976e-05 
0 0 0 0.0147408 -0.0210075 -0.0143539 0 854 12317 -8.30421e-05 1.52081e-05 1.24387e-06 1.12566e-09 2.23975e-07 
0 0 0 0.00606881 -0.0322316 -0.0647246 0 854 3097 0.00019524 9.66289e-05 1.38766e-05 4.48241e-09 8.92244e-07 
0 0 0 -0.00265026 0.00536948 0.00992656 0 854 15744 0.00136759 0.00029612 0.000224662 1.31928e-08 2.62894e-06 
0 0 0 -8.40354e-05 -0.0066774 -0.0150914 0 854 10494 0.00163793 -3.80222e-05 0.000389704 1.51541e-08 3.02051e-06 
0 0 0 -0.00380208 -0.0478165 -0.0141207 0 854 5216 6.88216e-05 3.26433e-05 1.08865e-05 1.23879e-09 2.46487e-07 
0 0 0 0.0540972 -0.050205 0.210242 0 854 6889 -1.21869e-05 3.85245e-06 3.59481e-05 8.57474e-09 1.70771e-06 
0 0 0 0.00335883 -0.0425673 0.0340731 0 854 11259 -2.56087e-07 3.56175e-07 -1.02426e-06 9.34407e-10 1.85916e-07 
0 0 0 0.00315126 -0.0144249 0.0320605 0 854 11665 0.000896029 8.31412e-05 -7.19516e-05 1.04722e-08 2.08611e-06 
0 0 0 -0.00173585 -0.0417645 0.00288422 0 854 10435 0.000135506 6.19563e-05 2.74201e-05 2.63796e-09 5.24978e-07 
0 0 0 -0.00258242 -0.0353529 0.0293763 0 854 11931 0.000272461 0.000134254 2.3121e-05 4.26744e-09 8.49432e-07 
0 0 0 0.00026222 -0.0458634 0.00168521 0 854 9850 2.04597e-05 9.46481e-06 -3.88169e-06 8.68494e-10 1.728e-07 
0 0 0 0.00211286 -0.12206 0.0334919 0 854 15166 6.6699e-05 2.53783e-05 -2.16364e-05 2.13309e-09 4.24478e-07 
0 0 0 0.00011584 -0.0361272 -0.0069692 0 854 1435 1.66845e-07 8.18225e-08 1.62602e-08 8.11498e-11 1.61444e-08 
0 0 0 -0.000674731 -0.0244245 0.0331546 0 854 81 0.000368321 -1.68736e-05 -0.000100372 5.53276e-09 1.10147e-06 
0 0 0 0.00064501 -0.0323448 0.0328804 0 854 14708 9.17022e-05 9.52516e-06 -3.45034e-05 2.31977e-09 4.61636e-07 
0 0 0 0.00820845 0.0567677 0.115426 0 854 11271 5.26903e-06 -1.05532e-06 -2.41391e-06 2.03275e-09 4.04506e-07 
0 0 0 -0.000183827 -0.00567966 0.00319529 0 854 5370 0.000413062 -5.95188e-05 -2.78805e-05 6.03735e-09 1.202e-06 
0 0 0 0.000656345 0.00160999 0.00746559 0 854 6878 8.62677e-05 -2.54972e-05 1.28756e-05 2.23382e-09 4.44527e-07 
0 0 0 0.000113099 -0.0213745 0.0183036 0 854 10976 0.000215536 -6.16277e-05 8.96389e-06 3.94285e-09 7.84791e-07 
0 0 0 -0.00527372 -0.0256047 -0.00017779 0 854 11410 0.000285354 9.75799e-05 5.60436e-05 4.07857e-09 8.11817e-07 
0 0 0 0.000105681 0.00637343 0.0037447 0 854 596 0.00024644 8.90151e-05 1.16847e-05 4.3084e-09 8.57589e-07 
0 0 0 0.00271422 0.102904 0.144073 0 854 14205 0.000128883 -3.15522e-05 -5.61885e-05 3.17473e-09 6.31841e-07 
0 0 0 0.00257102 -0.0057411 -0.000528896 0 854 11395 5.57524e-05 1.62262e-05 6.82731e-07 2.01523e-09 4.01018e-07 
0 0 0 0.00138877 -0.00413565 0.000218505 0 854 3429 4.14981e-05 3.15902e-05 2.11445e-05 1.54887e-09 3.08198e-07 
0 0 0 0.00185323 -0.0188293 0.0159906 0 854 3155 -5.40947e-06 3.68495e-06 -2.67658e-06 2.278e-11 4.53196e-09 
0 0 0 -0.000118381 -0.0176414 0.000889661 0 854 5499 9.02184e-05 1.30556e-05 1.42549e-06 2.18058e-09 4.3393e-07 
0 0 0 0.00116502 -0.00163784 0.00237165 0 854 2163 0.000253187 6.60642e-05 6.27646e-06 4.52113e-09 8.99957e-07 
0 0 0 -0.00304759 -0.0138095 -0.000464827 0 854 12260 0.000400799 9.71707e-06 -0.000173338 5.57943e-09 1.11076e-06 
0 0 0 0.000738507 -0.0192747 -0.00343317 0 854 1338 2.73183e-05 7.40536e-06 1.14775e-05 1.12769e-09 2.24379e-07 
0 0 0 -0.000290683 -0.000435073 0.00833518 0 854 2510 0.000121142 4.64254e-05 3.26053e-05 2.6338e-09 5.2415e-07 
0 0 0 0.00651593 -0.00185272 -0.0142981 0 854 11559 0.000136033 0.000124753 5.09373e-05 3.8068e-09 7.57697e-07 
0 0 0 0.00278305 0.0058881 -0.0291918 0 854 1389 7.9989e-05 -2.58322e-05 1.27832e-05 2.45756e-09 4.89065e-07 
0 0 0 0.0197729 -0.132466 -0.0605524 0 854 3386 2.4023e-06 1.19531e-06 -1.18323e-07 3.92395e-09 7.81025e-07 
0 0 0 0.0130913 0.043402 -0.0654111 0 854 10631 0.00035661 -4.2487e-05 0.000173169 7.06138e-09 1.40605e-06 
0 0 0 0.00572171 -0.0555445 0.0448025 0 854 2384 -2.68905e-05 -4.06855e-06 3.02487e-06 5.10082e-10 1.01484e-07 
0 0 0 0.000731012 -0.0234623 -0.000918503 0 854 7203 9.24207e-06 4.61292e-06 2.73782e-07 6.42391e-10 1.2781e-07 
0 0 0 -0.000735965 -0.000350457 0.0188539 0 854 4354 0.000819468 0.000138738 -0.000171304 9.48509e-09 1.88923e-06 
0 0 0 -0.000422267 -0.0481145 0.0536429 0 854 9118 6.39318e-05 2.9371e-05 -1.26161e-05 1.67992e-09 3.34278e-07 
0 0 0 -6.58003e-20 -4.5087e-20 3.53499e-12 0 850 5230 5.5703e-21 5.25978e-06 1.62002 1.22522e-06 0.0003 
0 0 0 -1.04064e-306 7.54256e-20 -1.1814e-12 0 850 3064 -8.70058e-307 5.25978e-06 1.62002 1.22522e-06 0.0003 
0 0 0 7.48291e-303 -9.34303e-21 5.89794e-12 0 850 478 2.76299e-307 5.25978e-06 1.62002 1.22522e-06 0.0003 
0 0 0 1.50882e-278 -3.75636e-20 -5.89797e-12 0 850 871 -5.97832e-281 5.25978e-06 1.62002 1.22522e-06 0.0003 
0 0 0 9.52749e-51 9.30855e-21 5.89794e-12 0 850 1962 -2.35542e-52 5.25978e-06 1.62002 1.22522e-06 0.0003 
0 0 0 2.06491e-302 -5.6599e-20 2.36061e-12 0 850 283 1.53546e-307 5.25978e-06 1.62002 1.22522e-06 0.0003 
0 0 0 -1.97771e-17 9.26777e-17 -5.8954e-13 0 850 6540 0.000406573 0.00368701 1.62002 1.22522e-06 0.0003 
0 0 0 1.95928e-17 -9.84265e-17 -5.89533e-13 0 850 2565 -0.000407508 -0.00368495 1.62002 1.22522e-06 0.0003 
0 0 0 -6.29852e-97 -8.48487e-20 5.89794e-12 0 850 2145 7.30417e-99 5.25978e-06 1.62002 1.22522e-06 0.0003 
0 0 0 -3.78098e-302 8.47037e-20 -2.36053e-12 0 850 5520 5.03654e-307 5.25978e-06 1.62002 1.22522e-06 0.0003 
0 0 0 -1.30268e-16 -8.82889e-18 1.18119e-12 0 850 10198 0.0106332 0.000687761 1.62165 1.22585e-06 0.000300201 
0 0 0 1.19667e-115 -8.4936e-20 -5.89795e-12 0 850 7394 -1.25598e-116 5.25978e-06 1.62002 1.22522e-06 0.0003 
0 0 0 -3.60951e-302 -5.65093e-20 2.36058e-12 0 850 2321 -9.44667e-308 5.25978e-06 1.62002 1.22522e-06 0.0003 
0 0 0 -4.31084e-302 -1.87291e-20 -3.535e-12 0 850 7581 4.20132e-307 5.25978e-06 1.62002 1.22522e-06 0.0003 
0 0 0 -1.16184e-302 -4.71165e-20 -1.18147e-12 0 850 3089 7.30061e-307 5.25978e-06 1.62002 1.22522e-06 0.0003 
0 0 0 3.20748e-81 -4.70231e-20 -2.3606e-12 0 850 1269 -7.10314e-82 5.25978e-06 1.62002 1.22522e-06 0.0003 
0 0 0 1.40295e-16 8.69005e-18 1.1817e-12 0 850 5323 -0.00670737 -0.000425258 1.61839 1.22459e-06 0.000299799 
0 0 0 -8.72701e-167 -5.64737e-20 4.72347e-12 0 850 392 1.16816e-167 5.25978e-06 1.62002 1.22522e-06 0.0003 