ITEM: TIMESTEP
1600000
ITEM: NUMBER OF ENTRIES
58
ITEM: BOX BOUNDS ff ff ff
-0.01 0.45
-0.15 0.15
-0.08 0.1
ITEM: ENTRIES c_pwc[1] c_pwc[2] c_pwc[3] 
0 914 33 
0 798 33 
0 850 41 
0 885 41 
0 854 72 
0 852 102 
0 854 6 
0 854 102 
1 1881 146 
1 1857 146 
1 1864 146 
1 1880 146 
1 1879 146 
0 952 172 
0 951 163 
0 958 56 
0 885 48 
0 885 79 
0 885 39 
0 850 48 
0 850 79 
0 851 39 
0 931 151 
0 941 194 
0 961 40 
0 753 40 
0 890 189 
0 891 103 
0 393 111 
0 389 129 
0 371 97 
0 399 51 
0 397 136 
0 397 27 
0 429 112 
0 425 32 
0 415 164 
0 415 158 
0 376 71 
0 385 75 
0 381 11 
0 379 86 
0 373 2 
0 367 183 
0 402 67 
0 400 31 
0 401 25 
0 533 85 
0 394 19 
0 364 135 
0 402 49 
0 394 53 
0 430 65 
0 416 28 
0 416 124 
0 519 57 
0 555 99 
0 572 88 
