ITEM: TIMESTEP
14600000
ITEM: NUMBER OF ENTRIES
410
ITEM: BOX BOUNDS ff ff ff
-0.01 0.45
-0.15 0.15
-0.08 0.1
ITEM: ENTRIES c_pwc[1] c_pwc[2] c_pwc[3] 
0 932 416 
0 850 1707 
0 850 41 
0 850 480 
0 885 1707 
0 885 41 
0 885 480 
0 894 1250 
0 884 916 
0 854 525 
0 854 1423 
0 854 312 
0 854 1629 
0 854 891 
0 854 116 
0 854 1338 
0 853 343 
0 852 1096 
0 852 1155 
0 852 1511 
0 852 1539 
0 852 129 
0 852 384 
0 894 995 
0 894 895 
0 894 933 
0 894 1472 
0 894 1653 
0 894 1640 
0 894 1399 
0 894 1551 
0 855 1492 
0 855 602 
0 855 730 
0 855 1122 
0 855 895 
0 854 1017 
0 854 1175 
0 854 1424 
0 854 1384 
1 493 146 
1 494 146 
1 491 146 
1 529 417 
1 530 417 
1 1826 417 
1 1842 417 
1 1830 417 
1 1828 417 
1 1831 417 
1 1827 417 
1 526 417 
1 527 417 
1 541 417 
1 1861 417 
1 1874 417 
1 1873 417 
1 1883 417 
1 1889 417 
1 1890 417 
1 1870 417 
1 1871 417 
1 1869 417 
1 1868 417 
1 1892 417 
1 1893 417 
1 1885 417 
1 134 1377 
1 136 1377 
1 123 1377 
1 2650 1377 
1 125 1377 
1 120 1377 
1 2649 1377 
1 126 1377 
1 2647 1377 
1 2707 1377 
1 2672 1377 
1 2674 1377 
1 2644 1377 
1 2673 1377 
1 2705 752 
1 2704 752 
1 2721 1377 
1 2722 752 
1 2722 1377 
1 2706 752 
1 2703 1377 
1 2702 1377 
1 2724 1377 
1 2726 1377 
1 2698 752 
1 2717 752 
0 885 270 
0 885 969 
0 885 48 
0 885 127 
0 885 52 
0 885 908 
0 885 276 
0 885 352 
0 885 6 
0 885 79 
0 885 351 
0 885 45 
0 885 393 
0 885 39 
0 850 270 
0 850 969 
0 850 48 
0 850 127 
0 850 52 
0 850 908 
0 850 276 
0 850 352 
0 850 6 
0 850 79 
0 850 351 
0 850 45 
0 851 393 
0 851 39 
0 895 471 
0 853 481 
0 853 856 
0 853 632 
0 853 1301 
0 853 1664 
0 884 788 
0 850 788 
0 852 1279 
0 894 453 
0 894 1071 
0 894 877 
0 894 1379 
0 894 439 
0 894 486 
0 894 902 
0 852 1502 
0 852 1487 
0 895 526 
0 895 1187 
0 895 1654 
0 895 1278 
0 895 498 
0 895 1406 
0 895 971 
0 895 1553 
0 895 902 
0 933 769 
0 944 1783 
0 923 865 
0 921 1753 
0 961 1029 
0 961 40 
0 753 1029 
0 753 40 
0 907 1813 
0 886 15 
0 885 15 
0 850 15 
0 899 1346 
0 898 1346 
0 893 1166 
0 888 1682 
0 888 764 
0 888 1589 
0 888 386 
0 891 1303 
0 887 728 
0 887 1193 
0 892 1134 
0 895 1669 
0 888 696 
0 888 920 
0 888 1002 
0 385 668 
0 385 1525 
0 383 1480 
0 384 1480 
0 389 1794 
0 387 528 
0 387 25 
0 390 1447 
0 371 44 
0 369 465 
0 369 638 
0 367 1748 
0 366 1748 
0 432 363 
0 403 649 
0 427 180 
0 427 1784 
0 417 1608 
0 415 936 
0 411 537 
0 384 675 
0 378 527 
0 379 1435 
0 394 1550 
0 388 880 
0 374 1741 
0 374 1386 
0 402 418 
0 399 1069 
0 436 148 
0 432 1257 
0 437 321 
0 435 975 
0 435 57 
0 435 208 
0 404 497 
0 430 1790 
0 429 122 
0 419 1749 
0 414 1738 
0 415 585 
0 537 387 
0 527 169 
0 380 740 
0 376 330 
0 394 609 
0 374 513 
0 400 1772 
0 398 546 
0 396 881 
1 1322 78 
0 587 1054 
0 587 1138 
0 517 578 
0 436 370 
0 561 1309 
0 478 834 
0 404 834 
0 404 1171 
0 577 1762 
0 430 174 
0 418 1408 
0 533 1190 
0 531 1102 
0 529 648 
0 543 162 
0 543 1702 
0 541 1681 
0 541 1114 
0 539 68 
0 542 1296 
0 540 1681 
0 521 599 
0 519 1024 
0 524 152 
0 526 1710 
0 553 1587 
0 553 1077 
0 551 1061 
0 551 24 
0 549 177 
0 554 611 
0 552 24 
0 589 1779 
0 589 608 
0 585 1758 
0 517 1182 
0 583 558 
0 559 409 
0 559 158 
0 559 1636 
0 555 1007 
0 555 1087 
0 555 1357 
0 560 1151 
0 581 705 
0 579 643 
0 579 1165 
0 579 1454 
0 577 431 
0 580 948 
0 576 315 
0 569 22 
0 563 1164 
0 566 422 
0 538 412 
0 528 642 
0 531 226 
0 546 1604 
0 542 1648 
0 542 725 
0 540 88 
0 540 11 
0 545 593 
0 524 103 
0 520 556 
0 520 149 
0 554 646 
0 554 853 
0 550 637 
0 550 485 
0 550 1453 
0 586 163 
0 584 1203 
0 589 1535 
0 562 248 
0 560 1397 
0 558 1307 
0 557 1307 
0 582 1090 
0 580 62 
0 578 87 
0 576 1315 
0 576 341 
0 584 521 
0 568 1450 
0 566 1294 
0 566 1308 
0 1071 610 
0 1071 1577 
0 1069 1630 
0 1067 1194 
0 1065 277 
0 1051 1056 
0 1079 665 
0 1073 1325 
0 554 464 
0 1115 509 
0 1113 487 
0 1113 1475 
0 588 99 
0 1109 85 
0 1109 292 
0 1087 1 
0 1087 95 
0 1083 1429 
0 1109 242 
0 1107 109 
0 1107 1067 
0 1099 1010 
0 1097 259 
0 1093 1439 
0 1091 1035 
0 1056 307 
0 1054 219 
0 1069 631 
0 1065 23 
0 1065 907 
0 1050 445 
0 1047 241 
0 1045 847 
0 1045 1248 
0 1077 93 
0 1073 202 
0 1073 1081 
0 1115 476 
0 1114 67 
0 1111 596 
0 1109 683 
0 1088 441 
0 1087 950 
0 1083 255 
0 1081 166 
0 1107 220 
0 1103 97 
0 1102 97 
0 1101 147 
0 1100 430 
0 1094 500 
0 1090 736 
0 1089 279 
0 1283 429 
0 1064 1414 
0 1060 186 
0 1297 210 
0 1072 1095 
0 1072 86 
0 1275 1159 
0 1042 227 
0 1079 191 
0 1074 75 
0 1117 379 
0 1116 687 
0 1043 379 
0 1307 571 
0 1086 32 
0 1108 837 
0 1107 119 
0 1106 530 
0 1104 320 
0 1102 35 
0 1102 1052 
0 1098 1353 
0 1092 335 
0 1092 810 
0 1090 404 
0 1303 424 
0 1341 124 
0 1269 1701 
0 1329 1365 
0 1327 612 
0 1325 478 
0 1282 50 
0 1294 1419 
0 1294 388 
0 99 672 
0 1274 281 
0 1334 1403 
0 131 774 
0 105 282 
0 105 1045 
0 102 171 
0 73 346 
0 98 198 
0 108 19 
