ITEM: TIMESTEP
6750000
ITEM: NUMBER OF ENTRIES
234
ITEM: BOX BOUNDS ff ff ff
-0.01 0.45
-0.15 0.15
-0.08 0.1
ITEM: ENTRIES c_pwc[1] c_pwc[2] c_pwc[3] 
0 950 283 
0 850 41 
0 885 41 
0 884 403 
0 854 381 
0 854 802 
0 854 455 
0 853 20 
0 852 618 
0 894 368 
0 894 652 
0 894 51 
0 894 508 
0 855 689 
0 855 195 
0 854 383 
1 2706 752 
1 2705 752 
1 2704 752 
1 2722 752 
1 2698 752 
1 2717 752 
0 885 270 
0 885 48 
0 885 127 
0 885 52 
0 885 276 
0 885 79 
0 885 351 
0 885 45 
0 885 39 
0 885 393 
0 850 270 
0 850 48 
0 850 127 
0 850 52 
0 850 276 
0 850 79 
0 850 351 
0 850 45 
0 851 39 
0 851 393 
1 1862 839 
1 529 146 
1 1861 146 
1 530 146 
1 1873 146 
1 1874 146 
1 1883 146 
1 1889 146 
1 1828 146 
1 1842 146 
1 1830 146 
1 1827 146 
1 1831 146 
1 526 146 
1 527 146 
1 541 146 
1 1871 146 
1 1869 146 
1 1868 146 
1 1892 146 
1 1893 146 
1 1885 146 
0 853 628 
0 853 183 
0 884 443 
0 894 711 
0 894 315 
0 895 294 
0 936 300 
0 944 688 
0 961 40 
0 753 40 
0 886 15 
0 885 15 
0 850 15 
0 888 548 
0 383 142 
0 381 461 
0 387 251 
0 373 236 
0 366 645 
0 366 18 
0 366 81 
0 399 190 
0 397 107 
0 395 129 
0 437 620 
0 435 822 
0 365 498 
0 407 585 
0 429 176 
0 419 761 
0 417 170 
0 380 477 
0 388 208 
1 2135 208 
0 368 831 
0 373 57 
0 367 228 
0 401 578 
0 399 497 
0 434 605 
0 435 172 
0 427 280 
0 423 412 
0 417 346 
0 535 459 
0 382 376 
0 380 35 
0 376 470 
0 543 609 
0 394 608 
0 519 630 
0 374 664 
0 589 360 
0 587 372 
0 585 266 
0 410 214 
0 430 212 
0 428 86 
0 426 196 
0 432 267 
0 416 614 
0 537 411 
0 535 25 
0 529 398 
0 529 232 
0 532 413 
0 541 691 
0 541 542 
0 539 500 
0 521 98 
0 521 365 
0 524 641 
0 522 256 
0 520 365 
0 553 115 
0 551 151 
0 547 143 
0 589 569 
0 588 569 
0 586 682 
0 584 611 
0 583 611 
0 583 817 
0 555 5 
0 581 220 
0 577 312 
0 577 746 
0 565 153 
0 565 191 
0 565 166 
0 563 780 
0 538 180 
0 534 62 
0 531 444 
0 544 223 
0 544 49 
0 544 422 
0 540 154 
0 539 275 
0 524 520 
0 522 265 
0 516 59 
0 550 279 
0 587 87 
0 562 197 
0 558 421 
0 582 367 
0 572 66 
0 568 177 
0 566 599 
0 566 484 
0 1055 67 
0 1055 476 
0 538 441 
0 530 100 
0 528 302 
0 1071 88 
0 1071 445 
0 1069 330 
0 1067 587 
0 1051 119 
0 1051 683 
0 1049 160 
0 1049 282 
0 1045 169 
0 1077 134 
0 1075 168 
0 1109 327 
0 1105 526 
0 1103 247 
0 1101 36 
0 1101 147 
0 582 568 
0 574 418 
0 1091 518 
0 1050 506 
0 1048 32 
0 1046 155 
0 1079 22 
0 1110 219 
0 1088 725 
0 1107 325 
0 1102 205 
0 1098 558 
0 1095 71 
0 1094 549 
0 1094 80 
0 1093 596 
0 1091 281 
0 1091 174 
0 1060 162 
0 1291 106 
0 1042 158 
0 1341 259 
0 1088 13 
0 1084 7 
0 1206 260 
0 1108 234 
0 1106 374 
0 1106 260 
0 1315 33 
0 1092 83 
0 1285 19 
0 1279 388 
0 1340 78 
0 1336 335 
0 1312 117 
0 1331 201 
0 1323 82 
0 137 304 
