ITEM: TIMESTEP
1050000
ITEM: NUMBER OF ENTRIES
31
ITEM: BOX BOUNDS ff ff ff
-0.01 0.45
-0.15 0.15
-0.08 0.1
ITEM: ENTRIES c_pwc[1] c_pwc[2] c_pwc[3] 
0 914 33 
0 798 33 
0 850 41 
0 885 41 
0 951 20 
0 885 48 
0 885 79 
0 850 48 
0 850 79 
0 961 40 
0 959 15 
0 753 40 
0 386 19 
0 369 81 
0 366 25 
0 431 27 
0 425 30 
0 383 83 
0 387 24 
0 374 85 
0 436 3 
0 432 49 
0 529 88 
0 384 99 
0 374 57 
0 547 7 
0 402 11 
0 430 89 
1 1322 89 
0 533 17 
0 551 124 
