ITEM: TIMESTEP
11050000
ITEM: NUMBER OF ENTRIES
3068
ITEM: BOX BOUNDS ff ff ff
-0.01 0.45
-0.15 0.15
-0.08 0.1
ITEM: ENTRIES c_pwc[1] c_pwc[2] c_pwc[3] c_pwc[4] c_pwc[5] c_pwc[6] c_pwc[7] c_pwc[8] c_pwc[9] c_pwc[10] c_pwc[11] c_pwc[12] c_pwc[13] c_pwc[14] 
0 0 0 -6.11472e-05 1.40815e-06 4.89021e-07 0 776 7649 -1.28883e-08 1.16854e-05 -1.86676e-06 5.63213e-10 1.12056e-07 
0 0 0 -8.73873e-05 -5.56441e-08 6.44204e-08 0 776 7937 4.76625e-09 1.08477e-05 -7.15642e-07 5.3567e-10 1.06575e-07 
0 0 0 -1.84395e-05 7.59837e-07 6.64499e-07 0 776 5540 -1.35635e-09 1.06248e-05 -2.84834e-07 5.28483e-10 1.05145e-07 
0 0 0 2.65221e-06 -1.01247e-06 1.08669e-05 0 776 1200 -9.33044e-07 1.53053e-05 -1.10773e-06 6.73653e-10 1.3403e-07 
0 0 0 6.65848e-06 4.16486e-06 -3.577e-05 0 776 1871 3.5091e-07 9.19144e-06 4.23777e-08 4.8059e-10 9.5616e-08 
0 0 0 -2.56657e-06 -3.68289e-06 -2.27707e-05 0 776 1972 -4.40225e-07 1.12504e-05 3.32316e-06 5.48068e-10 1.09042e-07 
0 0 0 1.50371e-05 2.23687e-06 -5.32548e-06 0 776 733 -8.13122e-08 1.24494e-05 9.5754e-07 5.87662e-10 1.1692e-07 
0 0 0 -4.87856e-05 -8.15071e-07 -1.6163e-06 0 776 10595 -7.1952e-09 1.24319e-05 -8.79547e-07 5.86469e-10 1.16683e-07 
0 0 0 9.61615e-06 -1.08833e-06 -4.48727e-06 0 776 894 1.45191e-08 1.13587e-05 1.81747e-06 5.52141e-10 1.09852e-07 
0 0 0 -2.54564e-06 1.42321e-06 -1.04121e-05 0 776 9680 3.61245e-06 9.33041e-06 1.02672e-06 4.84805e-10 9.64546e-08 
0 0 0 -3.3081e-05 -1.05519e-06 -6.82637e-05 0 776 414 -9.80961e-08 1.10792e-05 1.91758e-08 5.4305e-10 1.08044e-07 
0 0 0 2.13209e-05 -4.99394e-06 4.63117e-05 0 776 206 -4.584e-06 1.20993e-05 2.68576e-06 5.75072e-10 1.14415e-07 
0 0 0 1.51953e-05 -4.88965e-07 -4.29425e-05 0 776 1894 7.50646e-07 5.53007e-06 1.60709e-06 3.4174e-10 6.799e-08 
0 0 0 -0.00011389 -1.39757e-07 1.31012e-06 0 776 4413 -9.77675e-09 1.17211e-05 -3.95464e-06 5.64031e-10 1.12218e-07 
0 0 0 -9.13801e-05 -1.15498e-06 1.09935e-06 0 776 9977 -5.804e-09 1.15923e-05 -2.54622e-06 5.59674e-10 1.11351e-07 
0 0 0 1.98803e-05 -3.1759e-07 -4.60287e-06 0 776 1225 2.44669e-07 1.08267e-05 -9.45344e-07 5.34921e-10 1.06426e-07 
0 0 0 -3.48654e-09 1.15976e-06 -1.16106e-05 0 776 3512 4.06503e-07 6.92167e-06 -5.75552e-08 3.97305e-10 7.90453e-08 
0 0 0 5.09092e-05 1.10707e-06 9.28451e-05 0 776 690 -4.10753e-06 9.69499e-06 2.28839e-06 4.97272e-10 9.89353e-08 
0 0 0 0.000102866 -6.03286e-12 8.02875e-05 0 776 280 -1.71559e-20 1.05196e-05 9.35928e-21 5.24825e-10 1.04417e-07 
0 0 0 -6.93411e-07 4.56294e-07 -1.28351e-05 0 776 2352 -2.24357e-06 1.96993e-05 3.49883e-06 7.97413e-10 1.58656e-07 
0 0 0 -5.29264e-05 -1.44593e-06 -2.82468e-07 0 776 5611 4.13766e-08 1.13169e-05 -2.64343e-07 5.50708e-10 1.09567e-07 
0 0 0 4.54093e-06 5.744e-07 3.43971e-06 0 776 9269 -1.33618e-08 1.01662e-05 2.14347e-07 5.13131e-10 1.02091e-07 
0 0 0 4.9364e-06 -3.23929e-06 1.08601e-05 0 776 6408 -6.20494e-08 1.08043e-05 -3.66954e-07 5.33553e-10 1.06154e-07 
0 0 0 2.20813e-06 1.9514e-06 3.31578e-06 0 776 101 -5.72469e-06 1.3677e-05 2.87957e-06 6.25583e-10 1.24465e-07 
0 0 0 2.89684e-05 3.45116e-07 9.00943e-07 0 776 317 -4.8102e-08 1.14897e-05 3.42465e-06 5.56687e-10 1.10757e-07 
0 0 0 7.42475e-06 -4.15631e-06 -5.27266e-08 0 776 1705 -5.8109e-07 7.82828e-06 1.99687e-06 4.30043e-10 8.55589e-08 
0 0 0 1.23746e-05 -5.14844e-06 -1.70332e-05 0 776 2116 5.52182e-07 1.1569e-05 7.04299e-07 5.58074e-10 1.11033e-07 
0 0 0 -2.10204e-05 -8.15997e-07 -3.02595e-06 0 776 8455 -4.15605e-08 1.1044e-05 1.80415e-06 5.4195e-10 1.07825e-07 
0 0 0 8.8971e-07 1.13602e-06 -1.02263e-05 0 776 11208 4.9307e-07 9.37171e-06 1.11997e-06 4.8617e-10 9.67262e-08 
0 0 0 -1.87889e-06 -6.01398e-07 -1.39467e-05 0 776 553 -2.19456e-07 1.53506e-05 -1.65357e-07 6.75066e-10 1.34311e-07 
0 0 0 0.000242941 2.36874e-06 -4.61666e-06 0 776 585 -7.13599e-08 1.06354e-05 -1.8524e-08 5.29183e-10 1.05285e-07 
0 0 0 0.000253797 6.45707e-06 4.08079e-06 0 776 2069 6.289e-08 1.08887e-05 4.41101e-07 5.3842e-10 1.07122e-07 
0 0 0 -3.86066e-05 -8.30452e-06 3.71018e-05 0 776 531 2.65744e-06 1.42304e-05 1.86594e-06 6.4022e-10 1.27378e-07 
0 0 0 0.000128614 -3.61584e-12 -0.00053773 0 776 10613 1.88837e-20 1.05196e-05 -7.55381e-20 5.24825e-10 1.04417e-07 
0 0 0 8.38302e-06 -5.33338e-07 3.37744e-06 0 776 6702 -6.44735e-07 6.70175e-06 2.69956e-06 3.88457e-10 7.72848e-08 
0 0 0 -0.000378736 -2.36987e-05 5.69628e-06 0 776 1002 -2.00553e-07 7.19804e-06 9.36188e-07 4.02071e-10 7.99935e-08 
0 0 0 -6.43032e-05 3.79589e-06 -4.25956e-05 0 776 1470 -5.73349e-08 8.94056e-06 -3.95792e-06 4.71744e-10 9.3856e-08 
0 0 0 0.000200038 1.18319e-05 -1.99364e-06 0 776 154 -2.38658e-08 1.42972e-05 -1.71457e-06 6.4637e-10 1.28602e-07 
0 0 0 -3.19483e-05 -5.0528e-06 -6.33857e-06 0 776 1045 9.61014e-07 7.43569e-06 2.21736e-06 4.15298e-10 8.26251e-08 
0 0 0 -1.50421e-05 -2.53942e-06 1.56583e-06 0 776 12304 -1.01881e-06 2.86433e-06 3.95716e-07 2.19803e-10 4.37297e-08 
0 0 0 1.43395e-05 -1.43153e-06 4.06357e-06 0 776 4634 -2.52698e-06 1.57706e-05 -2.33781e-06 6.87156e-10 1.36717e-07 
0 0 0 0.00017957 9.13948e-06 -4.38179e-06 0 776 72 -4.71605e-07 9.27309e-06 -3.13046e-06 4.84524e-10 9.63988e-08 
0 0 0 0.000338874 9.07407e-06 -1.73094e-05 0 776 4165 -5.42439e-07 1.59926e-05 1.03637e-06 6.95714e-10 1.3842e-07 
0 0 0 0.000182625 -4.0295e-05 1.70123e-06 0 776 1920 -5.05445e-07 6.30665e-06 2.32174e-06 3.63658e-10 7.23508e-08 
0 0 0 -1.11694e-06 -7.1989e-06 -1.13546e-05 0 776 3087 1.6428e-07 1.59563e-05 2.46158e-06 6.91378e-10 1.37557e-07 
0 0 0 -1.0592e-05 8.23431e-07 6.59418e-06 0 776 12917 -2.66567e-06 1.10229e-05 1.04325e-06 5.4161e-10 1.07757e-07 
0 0 0 -4.87595e-06 -9.44493e-07 -2.39464e-05 0 776 1063 5.25126e-07 1.12329e-05 -2.9861e-08 5.48086e-10 1.09046e-07 
0 0 0 0.000685331 3.15183e-12 -0.000515666 0 776 4185 9.49898e-21 1.05196e-05 7.55355e-20 5.24825e-10 1.04417e-07 
0 0 0 0.000313242 2.69429e-07 0.000181063 0 776 4938 -7.36706e-12 1.0517e-05 2.21552e-13 5.24797e-10 1.04412e-07 
0 0 0 0.00012958 2.11033e-05 8.36249e-05 0 776 18 -6.2792e-07 9.5417e-06 2.19786e-07 4.96419e-10 9.87656e-08 
0 0 0 6.09323e-06 1.98079e-06 4.4781e-06 0 776 10360 6.3551e-07 1.08782e-05 -1.35528e-06 5.37111e-10 1.06862e-07 
0 0 0 -4.34643e-05 -7.4988e-06 2.34887e-06 0 776 9715 1.21399e-07 1.12393e-05 6.26119e-07 5.46891e-10 1.08808e-07 
0 0 0 0.000112401 8.83085e-06 -6.52585e-05 0 776 4095 6.2992e-07 1.2449e-05 3.15002e-06 5.89034e-10 1.17193e-07 
0 0 0 1.44848e-06 -3.69354e-05 -3.75658e-05 0 776 1367 -7.29276e-07 7.52215e-06 2.4619e-06 4.11225e-10 8.18147e-08 
0 0 0 -1.83401e-05 -1.43151e-05 -6.04106e-05 0 776 1036 -1.72948e-06 1.4796e-05 4.25078e-06 6.559e-10 1.30498e-07 
0 0 0 8.95119e-05 8.53574e-06 -3.57068e-05 0 776 6544 -7.52177e-07 1.08187e-05 5.35679e-06 5.36565e-10 1.06753e-07 
0 0 0 -0.000782894 -1.19881e-12 -0.000322705 0 776 12116 -7.55364e-20 1.05196e-05 -3.40143e-20 5.24825e-10 1.04417e-07 
0 0 0 -0.000141202 -5.42445e-06 0.000274758 0 776 12691 -7.23436e-08 1.06007e-05 -4.23547e-08 5.26347e-10 1.0472e-07 
0 0 0 0.000145704 2.66843e-12 -0.000108247 0 776 8603 -1.87203e-20 1.05196e-05 1.87206e-20 5.24825e-10 1.04417e-07 
0 0 0 1.59733e-05 2.31816e-10 -0.000348232 0 776 9639 1.03384e-18 1.05196e-05 -2.25378e-17 5.24825e-10 1.04417e-07 
0 0 0 -3.34946e-05 4.77193e-06 -8.24251e-06 0 776 7185 -7.9962e-07 1.19347e-05 -2.05197e-07 5.71904e-10 1.13785e-07 
0 0 0 8.9363e-05 -3.94875e-06 2.11791e-05 0 776 4532 -7.2001e-07 1.13478e-05 1.54321e-06 5.51177e-10 1.09661e-07 
0 0 0 -0.000452177 4.11859e-12 -9.63468e-05 0 776 14724 7.48822e-20 1.05196e-05 9.35863e-21 5.24825e-10 1.04417e-07 
0 0 0 -0.000326562 -6.63223e-07 -6.98224e-05 0 776 9279 1.54651e-09 1.0522e-05 -3.97094e-09 5.24761e-10 1.04405e-07 
0 0 0 4.82271e-05 -3.2343e-08 -5.96036e-05 0 776 3983 9.80971e-10 1.05208e-05 5.59453e-09 5.24859e-10 1.04424e-07 
0 0 0 -3.30357e-05 -5.0348e-06 -4.83255e-05 0 776 3427 1.20668e-07 1.05753e-05 1.19516e-07 5.25589e-10 1.04569e-07 
0 0 0 -2.36277e-05 -1.16233e-06 -4.04877e-05 0 776 1118 -3.722e-07 1.11482e-05 7.9904e-07 5.45279e-10 1.08487e-07 
0 0 0 -0.00013311 7.18377e-06 -3.04984e-05 0 776 10496 4.2042e-07 1.12237e-05 1.82578e-07 5.49528e-10 1.09333e-07 
0 0 0 -0.000322616 -6.60644e-06 -7.44552e-05 0 776 7286 -3.932e-07 1.05918e-05 6.60371e-07 5.25797e-10 1.04611e-07 
0 0 0 -3.47576e-05 5.7406e-07 -4.73368e-06 0 776 7431 8.2497e-08 9.22701e-06 -4.86156e-07 4.81032e-10 9.57039e-08 
0 0 0 3.0718e-05 3.56002e-06 1.23151e-05 0 776 1366 2.35925e-08 1.20834e-05 -2.67399e-07 5.76377e-10 1.14675e-07 
0 0 0 -7.2063e-05 5.51768e-06 8.82687e-06 0 776 10907 -4.96538e-07 1.16649e-05 1.53768e-06 5.63431e-10 1.12099e-07 
0 0 0 2.092e-05 -1.17037e-05 4.45639e-05 0 776 7764 -8.7811e-08 1.04041e-05 -2.85923e-07 5.18441e-10 1.03147e-07 
0 0 0 -0.000129674 1.81279e-05 1.20848e-05 0 776 9160 5.46967e-08 1.04887e-05 5.08562e-07 5.27723e-10 1.04994e-07 
0 0 0 -0.000341983 -7.4769e-11 -0.000163921 0 776 5560 7.27815e-18 1.05196e-05 3.48984e-18 5.24825e-10 1.04417e-07 
0 0 0 -0.000494545 -5.08766e-06 -0.000156025 0 776 215 2.80077e-09 1.05608e-05 9.82931e-08 5.25094e-10 1.04471e-07 
0 0 0 0.000250223 5.06545e-06 -0.000171663 0 776 1887 -2.42363e-08 1.04786e-05 6.63988e-08 5.24559e-10 1.04364e-07 
0 0 0 -0.000113213 -6.78194e-05 -0.000225398 0 776 4164 7.7479e-07 1.33835e-05 1.84206e-06 6.02103e-10 1.19793e-07 
0 0 0 3.645e-05 -1.47979e-07 3.02431e-05 0 776 700 1.93846e-08 1.05482e-05 -3.55294e-08 5.25745e-10 1.04601e-07 
0 0 0 0.000326274 2.33921e-11 -2.21966e-05 0 776 5953 2.15223e-18 1.05196e-05 -1.46499e-19 5.24825e-10 1.04417e-07 
0 0 0 -0.000860575 3.48327e-06 -0.000244514 0 776 7893 4.11891e-08 9.88126e-06 -2.11767e-07 5.04137e-10 1.00301e-07 
0 0 0 -0.000444073 -2.6199e-06 -0.000105861 0 776 11531 1.50643e-07 1.13835e-05 1.27734e-07 5.52618e-10 1.09947e-07 
0 0 0 0.00054838 -7.55853e-06 3.10654e-05 0 776 12872 -7.18749e-07 1.19165e-05 2.0923e-06 5.6871e-10 1.13149e-07 
0 0 0 -0.000189888 3.72214e-05 -0.000165565 0 776 11571 -4.19997e-07 1.14518e-05 3.94457e-06 5.63331e-10 1.12079e-07 
0 0 0 6.20977e-05 1.75983e-06 1.75647e-05 0 776 14434 6.63116e-08 1.11585e-05 -3.52359e-07 5.46243e-10 1.08679e-07 
0 0 0 -0.000954463 -3.12949e-09 -0.00130244 0 776 634 9.58121e-16 1.05201e-05 1.30738e-15 5.24842e-10 1.04421e-07 
0 0 0 7.64962e-05 -7.89912e-05 -0.000807047 0 776 7313 -1.21993e-06 1.66014e-05 6.44796e-06 6.95537e-10 1.38385e-07 
0 0 0 -0.00027671 0.000165551 -0.00109364 0 776 5950 -3.73637e-07 9.75269e-06 4.86201e-06 5.35275e-10 1.06497e-07 
0 0 0 0.000208562 1.27677e-09 4.59938e-06 0 776 6272 7.25982e-17 1.05196e-05 1.75383e-18 5.24826e-10 1.04418e-07 
0 0 0 0.000397201 -1.58613e-05 -0.000358698 0 776 5167 2.24111e-07 1.08208e-05 2.95663e-07 5.31378e-10 1.05721e-07 
0 0 0 -3.56554e-05 1.62439e-05 -0.000143974 0 776 10156 2.0784e-08 1.07271e-05 7.83955e-07 5.3521e-10 1.06484e-07 
0 0 0 0.000433124 -2.25458e-06 -3.13895e-05 0 776 9271 -6.3666e-07 1.24557e-05 2.78281e-06 5.86912e-10 1.16771e-07 
0 0 0 9.67164e-05 3.68987e-05 -1.33751e-05 0 776 3509 -3.68551e-07 1.05043e-05 4.61691e-06 5.32305e-10 1.05906e-07 
0 0 0 0.000424209 4.27594e-05 -4.66513e-05 0 776 4298 -9.8044e-07 1.39026e-05 5.64267e-06 6.40869e-10 1.27507e-07 
0 0 0 -0.000168459 1.9572e-05 -0.000242331 0 776 14186 4.47755e-07 1.14198e-05 4.86521e-07 5.58532e-10 1.11124e-07 
0 0 0 0.000214145 -7.15469e-07 -0.000529915 0 776 7053 -1.66246e-07 8.11628e-06 3.97133e-08 4.41332e-10 8.78051e-08 
0 0 0 0.000223937 -8.86939e-08 -0.000419466 0 776 209 9.85212e-12 1.05146e-05 1.41741e-11 5.24642e-10 1.04381e-07 
0 0 0 0.000510367 -6.33548e-06 -9.47459e-05 0 776 8382 -1.12925e-07 1.03403e-05 -6.10887e-08 5.17471e-10 1.02954e-07 
0 0 0 7.65824e-05 -2.78302e-05 -0.00015748 0 776 2799 6.01133e-07 1.30537e-05 1.62627e-06 6.00229e-10 1.19421e-07 
0 0 0 0.00117546 -6.32306e-12 -0.00187963 0 776 9615 -1.08195e-18 1.05196e-05 1.68509e-18 5.24825e-10 1.04417e-07 
0 0 0 -0.000431934 6.86861e-08 0.00037756 0 776 7800 -2.26808e-11 1.05204e-05 -2.73614e-11 5.24866e-10 1.04426e-07 
0 0 0 0.00300159 9.02676e-14 -0.000315389 0 776 9721 1.34292e-19 1.05196e-05 3.74368e-20 5.24825e-10 1.04417e-07 
0 0 0 -0.000261988 -6.69137e-12 -0.000144058 0 776 3286 3.65515e-20 1.05196e-05 1.87206e-20 5.24825e-10 1.04417e-07 
0 0 0 0.00030514 -1.88068e-05 -0.000890245 0 776 13004 -9.73578e-07 1.21232e-05 -3.03165e-07 5.72914e-10 1.13986e-07 
0 0 0 -0.000848371 8.33385e-08 -0.000479665 0 776 9809 2.89063e-08 1.06548e-05 1.73033e-07 5.29332e-10 1.05314e-07 
0 0 0 -0.000419233 -2.9433e-06 -0.000521075 0 776 5373 2.45776e-07 1.08341e-05 5.54749e-07 5.34601e-10 1.06363e-07 
0 0 0 -7.62129e-05 8.21168e-06 -0.000556557 0 776 1306 -4.61455e-07 1.07831e-05 2.12895e-07 5.35324e-10 1.06506e-07 
0 0 0 -7.63022e-05 -5.54275e-13 0.000224085 0 776 7072 9.44209e-21 1.05196e-05 -1.99646e-20 5.24825e-10 1.04417e-07 
0 0 0 0.000924384 5.06677e-06 -9.11028e-05 0 776 3631 -2.84514e-07 1.08335e-05 2.67997e-07 5.36305e-10 1.06702e-07 
0 0 0 9.48291e-05 -1.10701e-05 -0.000835604 0 776 7750 2.99661e-08 1.24125e-05 2.31644e-06 5.83699e-10 1.16132e-07 
0 0 0 -0.000330895 -4.83835e-06 -0.00158645 0 776 7121 -3.07811e-08 1.0256e-05 8.63315e-09 5.1497e-10 1.02457e-07 
0 0 0 -0.000263159 -5.13898e-06 -0.000377466 0 776 7846 4.08529e-09 1.05597e-05 4.63859e-09 5.25048e-10 1.04462e-07 
0 0 0 0.000159547 -1.20298e-05 -0.00109667 0 776 6920 1.71913e-06 1.21097e-05 1.75383e-06 5.73917e-10 1.14185e-07 
0 0 0 0.00075161 3.44871e-06 -0.000559268 0 776 9654 -8.00265e-08 1.04714e-05 1.29146e-07 5.23968e-10 1.04247e-07 
0 0 0 -0.00030632 6.93976e-06 -0.00040639 0 776 7763 2.68942e-08 1.05472e-05 1.84317e-09 5.27244e-10 1.04899e-07 
0 0 0 -0.000198699 9.51976e-06 -0.000371502 0 776 4357 4.9502e-08 1.05057e-05 1.7069e-08 5.26423e-10 1.04735e-07 
0 0 0 0.000719723 -1.75171e-05 -0.000590103 0 776 7583 -1.04671e-08 1.10143e-05 6.93139e-07 5.37392e-10 1.06918e-07 
0 0 0 0.00166554 8.68592e-05 -0.0010651 0 776 1352 -1.34611e-06 1.04155e-05 1.57359e-06 5.40186e-10 1.07474e-07 
0 0 0 -0.000279923 -1.52583e-05 -0.00026871 0 776 9156 6.18696e-09 1.06292e-05 1.12149e-08 5.2517e-10 1.04486e-07 
0 0 0 -0.000158371 4.11523e-06 -0.000263664 0 776 6792 9.81416e-08 1.0447e-05 2.21287e-08 5.233e-10 1.04114e-07 
0 0 0 0.000908171 -6.15699e-06 -0.000732731 0 776 1969 7.74394e-08 1.07646e-05 4.87636e-07 5.31615e-10 1.05768e-07 
0 0 0 -1.47952e-05 -8.00881e-06 -0.000917094 0 776 221 1.38136e-07 1.05935e-05 -1.02261e-08 5.25551e-10 1.04562e-07 
0 0 0 8.27006e-05 9.74062e-06 -0.000567528 0 776 3055 6.513e-07 1.13706e-05 1.47907e-07 5.5484e-10 1.10389e-07 
0 0 0 -0.000929857 3.15082e-06 -0.000378921 0 776 570 -3.85751e-08 1.13182e-05 8.13843e-07 5.51736e-10 1.09772e-07 
0 0 0 0.000575698 4.96376e-05 -0.000802565 0 776 6387 -1.7616e-06 9.2884e-06 -6.793e-07 4.94003e-10 9.82848e-08 
0 0 0 -0.000917085 -7.22838e-08 0.00034738 0 776 8712 6.67637e-14 1.05122e-05 1.2008e-13 5.24564e-10 1.04366e-07 
0 0 0 -0.000674762 -0.00017031 -0.000609016 0 776 6055 6.96889e-06 1.4692e-05 3.30746e-06 6.20878e-10 1.23529e-07 
0 0 0 0.000138021 -9.92028e-06 -0.000167343 0 776 8814 3.45526e-07 9.25909e-06 5.55385e-07 4.79825e-10 9.54639e-08 
0 0 0 0.000345873 -6.14123e-06 -0.000556855 0 776 8325 -4.31304e-06 1.42751e-05 9.86152e-07 6.42009e-10 1.27734e-07 
0 0 0 -0.0007296 -3.04398e-05 -0.000688324 0 776 4008 8.87743e-07 1.16871e-05 -6.49396e-07 5.56498e-10 1.10719e-07 
0 0 0 -0.00172012 0.000197729 0.00109058 0 776 2925 -8.63934e-07 7.41146e-06 -1.05587e-06 4.60893e-10 9.1697e-08 
0 0 0 -0.00290448 -7.54162e-05 0.00151478 0 776 7454 -2.03941e-06 1.36146e-05 -3.00112e-06 6.07641e-10 1.20895e-07 
0 0 0 0.000358504 -5.06305e-05 -4.69438e-05 0 776 8088 -1.89279e-07 1.10511e-05 -2.67403e-07 5.31488e-10 1.05743e-07 
0 0 0 -0.00512367 -0.00165074 -0.00357369 0 776 5213 1.86496e-06 3.38669e-05 3.30725e-07 8.51547e-10 1.69428e-07 
0 0 0 -0.00234719 -1.77553e-05 0.000985587 0 776 1376 -7.90232e-08 1.08989e-05 7.4977e-08 5.33544e-10 1.06152e-07 
0 0 0 -0.00109914 1.60497e-08 0.000794058 0 776 6636 -4.72003e-15 1.05203e-05 3.37456e-15 5.24853e-10 1.04423e-07 
0 0 0 0.000622907 -2.20646e-05 -0.000706481 0 776 3905 2.62372e-07 1.23317e-05 1.29636e-06 5.78832e-10 1.15163e-07 
0 0 0 -0.00374452 3.40513e-05 0.00159583 0 776 7120 2.97605e-10 1.04965e-05 -1.5272e-09 5.3143e-10 1.05732e-07 
0 0 0 -0.00313862 0.000451477 0.00119511 0 776 2205 -2.41019e-07 1.28251e-05 2.3968e-07 6.93373e-10 1.37954e-07 
0 0 0 -0.00176318 -1.41547e-05 9.99022e-05 0 776 4654 4.64148e-08 1.07256e-05 7.46549e-08 5.28603e-10 1.05169e-07 
0 0 0 -0.00428148 -0.000345791 -0.00193898 0 776 4821 2.34953e-07 4.33994e-06 -2.50795e-07 2.0467e-10 4.07188e-08 
0 0 0 -0.00105309 -7.68538e-05 0.000489191 0 776 382 -5.14675e-09 1.08434e-05 1.07167e-08 5.1899e-10 1.03256e-07 
0 0 0 -0.00175469 0.000180341 -0.000731549 0 776 4483 -1.45284e-07 1.01561e-05 1.29247e-07 5.51916e-10 1.09808e-07 
0 0 0 -0.00320113 -5.41958e-05 -0.00265464 0 776 758 1.9433e-07 1.05293e-05 -1.82335e-07 5.13421e-10 1.02148e-07 
0 0 0 -0.00288134 8.05934e-05 -0.0030365 0 776 112 2.59883e-07 1.16182e-05 -1.87477e-07 5.77912e-10 1.1498e-07 
0 0 0 -0.000599182 -0.000112871 -0.000125829 0 776 3641 -9.88076e-07 1.10996e-05 -2.11186e-07 5.19735e-10 1.03405e-07 
0 0 0 -0.00741132 3.67809e-05 -0.00614148 0 776 7706 1.74553e-07 7.57449e-06 3.83184e-08 4.30031e-10 8.55565e-08 
0 0 0 -0.00305232 -1.41683e-06 -0.00504596 0 776 7811 7.60315e-12 1.04568e-05 2.0359e-12 5.22429e-10 1.03941e-07 
0 0 0 0.00213018 -0.000208025 -0.00651645 0 776 3393 1.16357e-06 1.05189e-05 3.27006e-07 4.79797e-10 9.54583e-08 
0 0 0 0.00126121 -0.000561245 -0.00680767 0 776 9095 7.03172e-08 9.89944e-06 1.39508e-07 3.81775e-10 7.59554e-08 
0 0 0 -0.00289402 4.97075e-05 -0.00608926 0 776 5889 -1.01893e-07 1.00039e-05 -2.59866e-07 5.18381e-10 1.03135e-07 
0 0 0 -1.00257e-05 7.35187e-07 1.28227e-05 0 778 16349 -1.90239e-09 1.01086e-05 1.82211e-06 5.17203e-10 1.02901e-07 
0 0 0 2.21267e-05 -2.9669e-06 8.30805e-06 0 778 14170 3.87981e-08 9.78512e-06 1.23537e-06 5.01856e-10 9.98474e-08 
0 0 0 -5.64077e-05 -2.19793e-06 1.22056e-07 0 778 12757 4.82611e-08 1.00608e-05 3.70591e-07 5.05496e-10 1.00571e-07 
0 0 0 -4.63353e-06 2.43427e-06 -2.50659e-06 0 778 3129 2.77697e-07 1.07491e-05 -4.63961e-07 5.23953e-10 1.04244e-07 
0 0 0 0.0262356 -0.00102587 0.00547926 0 778 7470 5.0178e-08 9.93739e-06 1.31494e-06 5.07385e-10 1.00947e-07 
0 0 0 1.33135e-06 9.86675e-07 -1.36706e-06 0 778 4719 7.574e-08 1.06381e-05 1.74597e-06 5.33533e-10 1.0615e-07 
0 0 0 -8.35647e-05 -7.35432e-07 -1.0961e-05 0 778 15555 -6.03683e-08 1.02362e-05 2.26448e-06 5.22848e-10 1.04024e-07 
0 0 0 8.02693e-06 7.3735e-06 -3.96211e-06 0 778 7654 6.21017e-07 8.82874e-06 4.93199e-07 4.66313e-10 9.27754e-08 
0 0 0 -7.30314e-05 2.54957e-06 5.528e-07 0 778 8040 1.9552e-08 1.13557e-05 -7.47335e-07 5.42062e-10 1.07847e-07 
0 0 0 -1.42831e-05 1.78271e-06 -5.7003e-06 0 778 14527 -1.72322e-07 1.12424e-05 4.02605e-06 5.66443e-10 1.12698e-07 
0 0 0 1.72998e-05 6.66924e-06 -7.99587e-06 0 778 17336 -3.63456e-07 7.81076e-06 2.90568e-06 4.46094e-10 8.87526e-08 
0 0 0 3.93346e-05 4.59326e-07 8.67372e-07 0 778 14580 3.314e-07 8.73087e-06 -4.17692e-07 4.55633e-10 9.06505e-08 
0 0 0 0.0240531 -0.00269788 0.0144309 0 778 689 -2.12159e-07 1.04213e-05 1.85223e-06 5.26915e-10 1.04833e-07 
0 0 0 0.00225342 -3.21771e-05 9.05558e-05 0 778 5338 3.2239e-08 9.63836e-06 1.16595e-06 4.93519e-10 9.81884e-08 
0 0 0 1.94754e-05 1.03787e-05 3.17289e-06 0 778 15828 -3.23554e-07 1.06395e-05 4.98035e-07 5.28165e-10 1.05082e-07 
0 0 0 -8.34241e-05 -2.1053e-06 2.14836e-06 0 778 14360 1.26063e-07 1.07494e-05 9.32923e-07 5.31697e-10 1.05785e-07 
0 0 0 -0.00038304 5.14705e-06 -3.29675e-05 0 778 11726 1.23746e-08 9.65952e-06 1.15297e-06 4.97218e-10 9.89244e-08 
0 0 0 -0.000130722 5.29004e-07 -1.85126e-06 0 778 988 6.76165e-08 1.07227e-05 1.10696e-06 5.32286e-10 1.05902e-07 
0 0 0 -1.79337e-05 -3.96442e-06 4.53831e-06 0 778 15381 8.04502e-07 1.01571e-05 -7.36907e-08 5.05736e-10 1.00619e-07 
0 0 0 1.64229e-05 -3.24904e-06 -5.05089e-06 0 778 12332 1.79889e-07 1.11239e-05 -9.01139e-07 5.32198e-10 1.05884e-07 
0 0 0 -0.000157242 -1.09891e-05 7.11045e-05 0 778 14539 -8.3584e-09 9.62997e-06 1.14052e-06 4.96863e-10 9.88538e-08 
0 0 0 -2.62703e-05 -8.62574e-06 5.12728e-05 0 778 8467 7.01416e-07 1.02879e-05 1.00444e-06 5.17611e-10 1.02982e-07 
0 0 0 3.11262e-05 1.26175e-06 8.1363e-06 0 778 17589 -2.89543e-08 9.98681e-06 1.62145e-06 5.11868e-10 1.01839e-07 
0 0 0 -5.85319e-05 5.21763e-07 2.72708e-06 0 778 13923 3.25246e-09 1.00405e-05 1.72116e-06 5.13887e-10 1.02241e-07 
0 0 0 -1.77851e-05 1.93882e-07 4.4778e-06 0 778 12335 2.81134e-07 9.86838e-06 5.16497e-07 5.00672e-10 9.96118e-08 
0 0 0 1.91807e-06 -7.92717e-07 5.14281e-06 0 778 752 7.01262e-07 1.44639e-05 3.76153e-06 6.62204e-10 1.31752e-07 
0 0 0 1.13542e-05 -2.8278e-06 8.0878e-06 0 778 16821 2.79587e-09 5.00324e-06 -1.45572e-07 3.14682e-10 6.26064e-08 
0 0 0 -0.0405598 -0.0159238 0.0851845 0 778 18396 1.97344e-18 1.02659e-05 1.35713e-06 5.18851e-10 1.03229e-07 
0 0 0 -8.11003e-06 -7.30409e-06 2.7915e-05 0 778 15203 -1.27594e-08 9.58934e-06 1.48433e-06 4.9671e-10 9.88235e-08 
0 0 0 3.75944e-06 6.92726e-07 4.8924e-06 0 778 2108 3.54656e-07 8.51267e-06 5.29294e-07 4.54405e-10 9.0406e-08 
0 0 0 -9.58191e-06 -7.73743e-07 -1.43462e-05 0 778 15785 7.06799e-07 1.14569e-05 1.24624e-06 5.55924e-10 1.10605e-07 
0 0 0 3.57099e-06 4.99655e-06 4.06189e-06 0 778 13645 -4.83754e-07 1.0343e-05 9.2379e-07 5.19953e-10 1.03448e-07 
0 0 0 -2.14635e-06 4.88115e-07 -6.19806e-07 0 778 7967 -9.20118e-07 8.79291e-06 -3.39727e-07 4.58263e-10 9.11736e-08 
0 0 0 -0.000141658 8.01648e-06 3.1755e-06 0 778 4848 -1.61998e-08 9.66122e-06 1.25545e-06 4.99993e-10 9.94766e-08 
0 0 0 5.53826e-06 -1.41945e-06 1.51879e-08 0 778 11974 -5.73251e-09 9.44957e-06 1.17497e-06 4.90194e-10 9.75269e-08 
0 0 0 1.6722e-05 7.2898e-06 -2.54876e-05 0 778 13872 -1.17698e-07 9.6862e-06 8.77764e-07 4.97149e-10 9.89109e-08 
0 0 0 1.39665e-05 5.19858e-06 7.18232e-06 0 778 18001 -5.61411e-07 1.14452e-05 7.78384e-07 5.54872e-10 1.10396e-07 
0 0 0 -1.2259e-05 1.04654e-06 1.28598e-05 0 778 16369 -1.29138e-06 1.18847e-05 1.35411e-06 5.71499e-10 1.13704e-07 
0 0 0 1.62861e-05 -2.18373e-06 2.26454e-06 0 778 13527 -3.8723e-07 1.0119e-05 8.53081e-07 5.10517e-10 1.01571e-07 
0 0 0 3.80524e-08 2.18338e-07 4.16773e-06 0 778 1637 -1.97983e-07 1.01297e-05 6.20158e-08 5.06552e-10 1.00782e-07 
0 0 0 0.000149597 -1.53591e-05 9.81543e-05 0 778 702 2.44149e-08 9.55155e-06 1.18833e-06 4.94673e-10 9.84181e-08 
0 0 0 4.49649e-05 -6.24583e-06 1.13652e-05 0 778 13193 -1.75893e-07 1.01801e-05 6.5692e-07 5.10819e-10 1.01631e-07 
0 0 0 -9.0912e-07 -1.06998e-06 1.74799e-05 0 778 17147 -2.67144e-07 1.043e-05 5.37467e-08 5.16704e-10 1.02802e-07 
0 0 0 2.28312e-06 -3.02859e-06 6.98605e-06 0 778 13175 9.99463e-08 1.11909e-05 5.28716e-07 5.4351e-10 1.08135e-07 
0 0 0 -9.41747e-05 -8.11932e-05 0.000411621 0 778 17453 -4.9368e-07 9.96977e-06 1.22129e-06 5.07315e-10 1.00933e-07 
0 0 0 0.000293524 1.59238e-06 9.80595e-06 0 778 16168 9.88492e-09 9.68888e-06 1.1928e-06 4.9941e-10 9.93606e-08 
0 0 0 -1.7777e-06 1.60562e-07 -6.87756e-07 0 778 15517 -4.52341e-07 8.84129e-06 -2.07022e-07 4.60745e-10 9.16676e-08 
0 0 0 0.00495946 0.000762969 -0.00408911 0 778 6441 1.76072e-10 1.02407e-05 1.35229e-06 5.17691e-10 1.02998e-07 
0 0 0 0.000179774 -2.75825e-05 0.000110563 0 778 12749 -3.90941e-07 1.01391e-05 6.18318e-07 5.08623e-10 1.01194e-07 
0 0 0 3.59176e-05 -2.24901e-05 9.25706e-05 0 778 10441 -7.00773e-07 1.09703e-05 6.75837e-07 5.36559e-10 1.06752e-07 
0 0 0 -0.00363683 -0.00013025 0.000789587 0 778 3783 8.11785e-08 9.76058e-06 1.22143e-06 5.04987e-10 1.0047e-07 
0 0 0 0.000373053 -0.000128586 0.000804272 0 778 2010 -7.91468e-07 1.00305e-05 5.28876e-07 5.10611e-10 1.01589e-07 
0 0 0 -4.04018e-05 -1.56215e-05 4.99353e-05 0 778 9574 -7.97027e-08 9.89414e-06 1.35815e-06 5.05212e-10 1.00515e-07 
0 0 0 0.00720235 -0.0145855 0.0780257 0 778 17465 4.3012e-19 1.02659e-05 1.35713e-06 5.18851e-10 1.03229e-07 
0 0 0 0.0097988 -0.000842123 0.00441757 0 778 16602 7.7203e-08 9.10124e-06 1.00584e-06 4.74008e-10 9.43065e-08 
0 0 0 -0.000217404 -0.000221721 0.00118483 0 778 7627 -1.19487e-06 1.13932e-05 -7.93353e-07 5.42384e-10 1.07911e-07 
0 0 0 0.0161285 -0.00165269 0.00886055 0 778 5728 -1.51771e-08 9.62827e-06 1.14546e-06 4.97124e-10 9.89059e-08 
0 0 0 0.00846701 -0.00109327 0.00582971 0 778 9644 4.58262e-07 1.04296e-05 6.5671e-07 5.1918e-10 1.03294e-07 
0 0 0 0.00597143 -0.000966754 0.00519495 0 778 17720 5.37097e-09 1.01401e-05 1.32793e-06 5.15459e-10 1.02554e-07 
0 0 0 0.0100757 -0.00139367 0.00745548 0 778 1903 1.26155e-19 1.02659e-05 1.35713e-06 5.18851e-10 1.03229e-07 
0 0 0 0.00648195 -0.00170316 0.00913401 0 778 4132 3.53396e-08 9.93499e-06 1.38133e-06 5.08984e-10 1.01265e-07 
0 0 0 -0.00331969 -0.000948832 0.00507633 0 778 6450 -9.27765e-14 1.02632e-05 1.35662e-06 5.18781e-10 1.03215e-07 
0 0 0 -0.00929278 -0.00107284 0.00450375 0 778 9557 -9.8115e-09 1.3518e-05 1.61277e-06 5.75281e-10 1.14457e-07 
0 0 0 -0.00896349 -0.000927576 0.00496102 0 778 17490 4.92103e-13 1.02669e-05 1.35732e-06 5.18843e-10 1.03227e-07 
0 0 0 0.000259216 -0.00184953 0.00861254 0 778 15810 -1.02948e-11 1.20521e-05 1.69657e-06 5.28283e-10 1.05105e-07 
0 0 0 -0.00772931 -0.00044824 0.00239375 0 778 6537 1.65769e-12 1.02775e-05 1.35935e-06 5.19081e-10 1.03274e-07 
0 0 0 0.00775862 -0.00220049 0.0117731 0 778 18020 1.01838e-12 1.02675e-05 1.35746e-06 5.18965e-10 1.03251e-07 
0 0 0 -0.0083393 -0.000665147 0.00366703 0 778 8211 1.63943e-10 9.80905e-06 1.26941e-06 5.07546e-10 1.00979e-07 
0 0 0 -0.0156699 0.000927319 -0.00496961 0 778 5801 5.07291e-12 1.03534e-05 1.37416e-06 5.21475e-10 1.03751e-07 
0 0 0 0.0085549 -0.000936357 0.0050125 0 778 15694 6.21721e-13 1.0254e-05 1.35484e-06 5.18582e-10 1.03175e-07 
0 0 0 -0.0103163 0.000992111 -0.00557841 0 778 15188 -2.91162e-07 6.25146e-06 4.74181e-07 3.58448e-10 7.13141e-08 
0 0 0 -0.0452442 -0.00624477 0.0334065 0 778 11852 3.54225e-18 1.02659e-05 1.35713e-06 5.18851e-10 1.03229e-07 
0 0 0 0.013049 -0.00109402 0.00585259 0 778 853 7.76821e-14 1.02653e-05 1.35703e-06 5.18837e-10 1.03226e-07 
0 0 0 -0.0404551 0.00420026 -0.0224701 0 778 8602 2.19715e-06 1.01901e-05 1.76802e-06 5.18858e-10 1.0323e-07 
0 0 0 -0.0133266 0.0021983 -0.0116802 0 778 5232 -4.9116e-06 1.00316e-05 -4.08664e-06 4.80068e-10 9.55122e-08 
0 0 0 -0.00830418 0.000997455 -0.00605054 0 778 7503 6.64097e-06 1.30241e-05 2.64547e-06 5.8595e-10 1.1658e-07 
0 0 0 -0.029964 0.00507558 -0.0274113 0 778 16057 3.64424e-06 9.5813e-06 5.59798e-06 5.12076e-10 1.01881e-07 
0 0 0 -0.0115628 0.00217573 -0.0116391 0 778 4160 -2.55572e-14 1.02659e-05 1.35713e-06 5.18852e-10 1.03229e-07 
0 0 0 -0.00775613 0.00163407 -0.0087414 0 778 4777 -4.33659e-14 1.02657e-05 1.3571e-06 5.1885e-10 1.03229e-07 
0 0 0 -0.0232475 0.0100014 -0.0536437 0 778 9184 0.000137644 -1.88089e-05 0.000147739 4.5516e-10 9.05563e-08 
0 0 0 -0.00492284 0.00373338 -0.0199724 0 778 7257 1.49869e-13 1.02643e-05 1.35681e-06 5.18771e-10 1.03213e-07 
0 0 0 -0.0136434 0.0164837 -0.0881733 0 778 924 7.05974e-05 -4.73799e-05 0.000308674 5.12571e-10 1.01979e-07 
0 0 0 -0.0264243 0.0191205 -0.102286 0 778 4489 1.62162e-06 9.26238e-06 6.72586e-06 5.18853e-10 1.03229e-07 
0 0 0 -0.00959057 0.00788755 -0.042788 0 778 13493 -8.17758e-09 3.27951e-07 -2.19725e-07 9.14841e-12 1.82002e-09 
0 0 0 -0.00306991 0.000743292 -0.00197783 0 778 10116 2.60756e-07 1.11031e-05 1.44796e-07 6.17617e-10 1.2288e-07 
0 0 0 -0.135022 0.150797 -0.243756 0 782 16870 4.11266e-09 8.20437e-06 3.2285e-06 4.3677e-10 8.68974e-08 
0 0 0 0.0677626 -0.0846806 0.136764 0 782 11428 1.13258e-17 8.43728e-06 3.363e-06 4.71018e-10 9.37115e-08 
0 0 0 0.189764 -12.0627 6.1871 0 924 18711 -0.00264999 0.0366526 0.0681435 2.76122e-07 3.71983e-05 
0 0 0 -6.39526 -9.37848 13.1751 0 930 4880 0.0295392 0.141099 0.0796599 2.70019e-07 5.56544e-05 
0 0 0 2.22376e-05 -8.42162e-06 -4.6471e-05 0 775 210 1.02425e-07 1.17764e-05 9.06949e-07 5.54066e-10 1.10236e-07 
0 0 0 1.52136e-05 -1.50849e-06 3.013e-06 0 775 6076 -1.04064e-07 1.07518e-05 5.55266e-08 5.2568e-10 1.04587e-07 
0 0 0 -8.90879e-06 -9.32703e-06 -3.69755e-05 0 775 12 -3.58044e-06 1.00699e-05 5.71729e-07 4.99867e-10 9.94516e-08 
0 0 0 1.84078e-05 -1.16898e-05 -9.93374e-05 0 775 4248 9.44028e-08 1.01563e-05 -1.42018e-06 5.171e-10 1.0288e-07 
0 0 0 6.57144e-06 5.01875e-06 -9.492e-06 0 775 3998 1.36925e-06 3.01509e-06 -1.51911e-09 2.27358e-10 4.52328e-08 
0 0 0 3.04253e-05 8.75667e-06 -9.20081e-06 0 775 9210 -1.41814e-06 1.20503e-05 2.60253e-07 5.68689e-10 1.13145e-07 
0 0 0 2.5933e-05 2.75523e-05 9.16087e-05 0 775 5900 -1.27569e-06 8.52846e-06 -5.34174e-07 4.56937e-10 9.09098e-08 
0 0 0 0.000168679 3.48858e-06 8.73798e-07 0 775 1890 -4.37638e-07 1.02752e-05 -1.6705e-06 5.21789e-10 1.03813e-07 
0 0 0 0.000129597 -1.37106e-05 9.67795e-05 0 775 6574 -3.19107e-06 9.22163e-06 -2.81402e-07 4.70122e-10 9.35333e-08 
0 0 0 0.000118012 1.03157e-05 -0.000220807 0 775 1749 -1.90692e-06 1.10902e-05 5.15642e-07 5.45254e-10 1.08482e-07 
0 0 0 0.000202413 -0.000178249 -0.000254733 0 775 3630 2.23297e-06 1.55081e-05 3.01236e-06 6.29408e-10 1.25227e-07 
0 0 0 -0.000431642 -6.45382e-05 -0.000553757 0 775 11044 -1.01544e-06 1.23488e-05 3.45149e-06 5.65253e-10 1.12461e-07 
0 0 0 -0.00079139 -0.00042563 -0.00139992 0 775 8128 -2.24969e-06 1.03403e-05 3.82782e-06 4.53508e-10 9.02276e-08 
0 0 0 -0.000228059 -0.000317895 -0.00118617 0 775 7844 -2.95811e-06 1.29223e-05 1.43887e-05 4.88762e-10 9.7242e-08 
0 0 0 0.000228343 2.04682e-05 -9.95209e-05 0 775 1039 -3.05135e-06 1.0126e-05 4.91815e-06 4.83254e-10 9.61461e-08 
0 0 0 -0.00112061 -3.41493e-05 -0.00118611 0 775 10606 -2.04137e-06 5.02289e-06 -1.00135e-06 3.69755e-10 7.35637e-08 
0 0 0 0.000346095 -6.48988e-05 -0.000224575 0 775 5313 -8.65987e-08 1.08013e-05 -1.99502e-07 5.24423e-10 1.04337e-07 
0 0 0 0.000245986 -5.08269e-05 -0.000281543 0 775 8439 6.80798e-08 1.06497e-05 -1.4214e-06 5.32166e-10 1.05878e-07 
0 0 0 0.000195796 -6.00487e-05 -0.000253718 0 775 6782 8.62447e-07 9.44925e-06 -1.03543e-06 4.86875e-10 9.68666e-08 