ITEM: TIMESTEP
19750000
ITEM: NUMBER OF ENTRIES
559
ITEM: BOX BOUNDS ff ff ff
-0.01 0.45
-0.15 0.15
-0.08 0.1
ITEM: ENTRIES c_pwc[1] c_pwc[2] c_pwc[3] 
0 940 2147 
0 938 2421 
0 918 1271 
0 796 1271 
0 794 1271 
0 850 1707 
0 850 41 
0 850 480 
0 850 286 
0 885 1707 
0 885 41 
0 885 480 
0 884 1119 
0 884 286 
0 855 1982 
0 884 784 
0 884 635 
0 884 134 
0 884 1620 
0 884 1473 
0 884 2431 
0 884 1382 
0 884 1459 
0 854 1510 
0 854 264 
0 854 2077 
0 854 1564 
0 854 2412 
0 854 78 
0 854 2048 
0 854 497 
0 854 501 
0 854 745 
0 854 143 
0 854 814 
0 854 1172 
0 854 240 
0 854 190 
0 854 1733 
0 854 161 
0 853 784 
0 853 1090 
0 853 1918 
0 853 266 
0 852 2255 
0 852 1899 
0 852 2385 
0 852 1595 
0 852 609 
0 894 2036 
0 894 802 
0 894 1093 
0 894 314 
0 894 357 
0 894 218 
0 894 1261 
0 894 1813 
0 894 1984 
0 894 895 
0 894 801 
0 894 1338 
0 894 111 
0 894 1432 
0 852 14 
0 852 55 
0 852 1260 
0 855 1952 
0 855 1259 
0 855 1540 
0 855 903 
0 855 1449 
0 855 991 
0 855 1064 
0 855 2279 
0 855 717 
0 855 573 
0 854 1916 
0 854 2172 
0 854 2350 
0 854 2226 
0 854 14 
0 854 55 
0 938 2263 
0 942 2124 
1 479 146 
1 487 146 
1 491 146 
1 485 146 
1 486 146 
1 488 146 
1 2707 1377 
1 137 1377 
1 134 1377 
1 2722 1377 
1 2721 1377 
1 138 1377 
1 136 1377 
1 120 1377 
1 123 1377 
1 2650 1377 
1 125 1377 
1 124 1377 
1 2649 1377 
1 126 1377 
1 2647 1377 
1 92 2045 
1 2644 1377 
1 91 2045 
1 2703 1377 
1 2672 1377 
1 2702 1377 
1 2673 1377 
1 2674 1377 
1 2724 1377 
1 63 2045 
1 86 2045 
1 85 2045 
1 2726 1377 
0 885 270 
0 885 969 
0 885 48 
0 885 127 
0 885 52 
0 885 908 
0 885 276 
0 885 352 
0 885 6 
0 885 351 
0 885 1737 
0 885 45 
0 885 39 
0 850 270 
0 850 969 
0 850 48 
0 850 127 
0 850 52 
0 850 908 
0 850 276 
0 850 352 
0 850 6 
0 850 351 
0 850 45 
0 851 39 
1 1857 1536 
1 1864 417 
1 1863 417 
1 1880 417 
1 535 417 
1 1897 483 
1 536 417 
1 533 417 
1 534 417 
1 1842 417 
1 528 417 
1 529 417 
1 530 417 
1 1820 417 
1 1861 417 
1 1874 417 
1 1846 417 
1 1845 417 
1 1883 417 
1 1889 417 
1 1827 417 
1 1824 417 
1 1890 417 
1 1847 417 
1 1848 417 
1 1825 417 
1 1892 417 
0 895 1359 
0 853 1306 
0 853 2272 
0 853 2155 
0 853 738 
0 853 2305 
0 853 162 
0 853 1354 
0 853 2287 
0 853 1446 
0 853 887 
0 853 1381 
0 853 2084 
0 853 1806 
0 853 2099 
0 853 1722 
0 853 2056 
0 853 999 
0 853 454 
0 853 1621 
0 884 788 
0 884 960 
0 884 1945 
0 884 1931 
0 884 1806 
0 885 231 
0 885 831 
0 885 493 
0 850 788 
0 852 4 
0 852 824 
0 894 2197 
0 894 1512 
0 894 658 
0 894 1235 
0 894 951 
0 894 1515 
0 894 1559 
0 894 1552 
0 894 675 
0 894 145 
0 894 1596 
0 894 482 
0 852 985 
0 895 2163 
0 895 456 
0 895 274 
0 895 1954 
0 895 2268 
0 895 482 
0 895 2145 
0 935 1215 
0 929 2313 
0 941 1115 
1 2262 2438 
1 2301 2438 
0 949 2413 
1 504 1851 
1 566 2070 
1 558 2070 
1 557 2070 
1 1687 2070 
1 502 1851 
1 499 1851 
1 505 1851 
1 503 1851 
1 1855 1851 
1 1854 1851 
1 500 1851 
1 1859 1851 
1 1876 1851 
0 961 1029 
0 961 1087 
0 961 40 
0 961 1357 
0 959 2465 
0 957 2095 
0 955 1221 
0 759 1221 
0 753 1029 
0 753 1087 
0 753 40 
0 906 993 
0 904 907 
0 900 554 
0 890 1526 
0 886 15 
0 425 993 
0 419 554 
0 885 15 
0 850 15 
0 965 2429 
0 889 365 
0 889 1245 
0 889 1661 
0 888 1418 
0 888 818 
0 888 787 
0 888 1197 
0 888 311 
0 888 737 
0 888 2064 
0 888 377 
0 888 395 
0 888 203 
0 888 503 
0 853 1661 
0 853 136 
0 853 1226 
0 851 1661 
0 890 1009 
0 890 2408 
0 890 1903 
0 886 2377 
0 886 1441 
0 885 1441 
0 885 1903 
0 891 2274 
0 887 1158 
0 892 1079 
0 895 1440 
0 888 206 
0 888 1820 
0 888 604 
0 385 948 
0 383 1414 
0 383 1156 
0 384 1414 
0 367 2134 
0 401 1757 
0 395 1056 
0 405 47 
0 405 1560 
0 405 1403 
0 403 1635 
0 423 1501 
0 423 772 
0 417 1968 
0 413 2456 
0 413 1946 
0 384 544 
0 374 2439 
0 383 544 
0 381 2127 
0 381 280 
0 379 1586 
0 379 855 
0 390 632 
0 393 430 
0 372 1139 
0 367 1164 
0 402 836 
0 396 1344 
0 397 1519 
0 439 835 
0 438 1163 
0 437 199 
0 433 953 
0 365 1550 
0 408 1243 
0 404 1990 
0 422 166 
0 422 998 
0 422 2295 
0 420 2392 
0 429 1231 
0 423 103 
0 421 166 
0 421 998 
0 421 2295 
0 416 235 
0 417 235 
0 419 649 
0 533 1695 
0 533 2400 
0 527 307 
0 380 1752 
0 545 1439 
0 539 1998 
0 539 2269 
0 539 1864 
0 390 1179 
0 390 1749 
0 390 294 
0 537 1438 
0 370 1131 
0 547 1315 
0 402 2394 
0 585 140 
0 517 593 
0 448 414 
0 434 414 
0 557 159 
0 478 834 
0 406 106 
0 404 834 
1 2546 174 
0 579 733 
0 571 2154 
0 569 408 
0 563 1462 
0 571 1848 
0 537 1336 
0 533 1434 
0 531 1655 
0 531 378 
0 527 2318 
0 527 1328 
0 543 23 
0 543 80 
0 541 54 
0 539 1880 
0 539 1970 
0 540 297 
0 523 580 
0 523 94 
0 521 2244 
0 519 115 
0 519 1693 
0 519 366 
0 519 1562 
0 519 1095 
0 553 2433 
0 551 1277 
0 549 2369 
0 547 2135 
0 554 119 
0 589 2303 
0 585 840 
0 561 1920 
0 557 2232 
0 557 363 
0 557 671 
0 555 1171 
0 562 2186 
0 558 671 
0 583 153 
0 581 34 
0 581 773 
0 579 657 
0 579 1061 
0 577 1994 
0 567 327 
0 538 1109 
0 534 2373 
0 532 713 
0 530 1269 
0 527 1528 
0 546 852 
0 546 381 
0 544 2224 
0 524 1964 
0 522 760 
0 523 1981 
0 518 67 
0 526 553 
0 554 120 
0 552 163 
0 548 736 
0 586 506 
0 584 1325 
0 517 160 
0 559 98 
0 580 347 
0 580 66 
0 578 646 
0 568 1397 
0 566 2175 
0 563 1976 
0 1063 109 
0 1061 864 
0 1061 1803 
0 1059 1812 
0 1057 1500 
0 1057 435 
0 536 1022 
0 528 2324 
0 1071 189 
0 1069 122 
0 1069 847 
0 1067 1843 
0 1067 1461 
0 1065 1793 
0 1049 1521 
0 1044 661 
0 516 1599 
0 526 1067 
0 1079 1676 
0 1079 1996 
0 1077 424 
0 1077 412 
0 1077 255 
0 1075 1035 
0 554 1151 
0 1043 1453 
0 1043 282 
0 591 1453 
0 1081 2146 
0 1081 367 
0 1109 2311 
0 1107 1656 
0 1107 1962 
0 1105 269 
0 1103 169 
0 1101 251 
0 574 1368 
0 1091 982 
0 1059 785 
0 1057 2061 
0 1057 428 
0 1057 198 
0 1053 85 
0 1050 817 
0 1049 488 
0 1046 1316 
0 1045 986 
0 1078 1738 
0 1073 927 
0 1113 1240 
0 1112 1375 
0 1043 705 
0 1084 19 
0 1089 1644 
0 1108 1587 
0 1103 517 
0 1098 147 
0 1098 419 
0 1097 697 
0 1060 1194 
0 1058 725 
0 1056 2202 
0 1293 263 
0 1072 532 
0 1070 900 
0 1068 1203 
0 1067 687 
0 1275 443 
0 1271 191 
0 1050 1769 
0 1047 943 
0 1046 622 
0 1045 983 
0 1042 31 
0 1042 1002 
0 1078 301 
0 1116 1007 
0 1116 370 
0 1309 68 
0 1088 404 
0 1088 1341 
0 1087 330 
0 1084 124 
0 1082 1940 
0 1082 1362 
0 1331 624 
0 1109 896 
0 1108 556 
0 1106 8 
0 1100 2020 
0 1098 221 
0 1321 2035 
0 1096 93 
0 1094 1378 
0 1092 431 
0 1092 2001 
0 1098 1460 
0 1285 706 
0 1281 1294 
0 1277 46 
0 1271 1209 
0 1305 2021 
0 1305 1772 
0 1305 613 
0 1304 11 
0 1303 1373 
0 1309 1592 
0 1327 973 
0 1317 279 
0 1289 1639 
0 153 712 
0 111 1784 
0 143 1431 
0 1310 372 
0 1308 358 
0 1334 838 
0 1321 1422 
0 94 1777 
0 145 1001 
0 120 35 
