ITEM: TIMESTEP
1550000
ITEM: NUMBER OF ENTRIES
54
ITEM: BOX BOUNDS ff ff ff
-0.01 0.45
-0.15 0.15
-0.08 0.1
ITEM: ENTRIES c_pwc[1] c_pwc[2] c_pwc[3] 
0 938 96 
0 948 68 
0 914 33 
0 798 33 
0 850 41 
0 885 41 
0 855 58 
0 852 6 
1 1881 146 
1 1857 146 
1 1864 146 
1 1880 146 
1 1875 146 
0 956 151 
0 885 48 
0 885 79 
0 885 39 
0 850 48 
0 850 79 
0 851 39 
0 884 170 
0 884 36 
0 885 16 
0 942 163 
0 925 111 
0 914 147 
0 961 40 
0 753 40 
0 893 98 
0 391 183 
0 371 129 
0 369 30 
0 367 97 
0 397 158 
0 365 142 
0 427 22 
0 427 164 
0 423 83 
0 391 106 
0 371 119 
0 374 117 
0 438 113 
0 434 31 
0 541 66 
0 549 99 
0 585 53 
0 559 11 
0 426 75 
0 422 17 
0 420 13 
0 523 24 
0 553 88 
0 574 57 
0 565 85 
