ITEM: TIMESTEP
6150000
ITEM: NUMBER OF ENTRIES
234
ITEM: BOX BOUNDS ff ff ff
-0.01 0.45
-0.15 0.15
-0.08 0.1
ITEM: ENTRIES c_pwc[1] c_pwc[2] c_pwc[3] 
0 934 16 
0 850 41 
0 885 41 
0 855 308 
0 894 704 
0 894 391 
0 894 253 
0 894 118 
0 894 386 
0 852 433 
0 852 502 
0 855 704 
0 854 705 
1 1861 146 
1 1874 146 
1 1873 146 
1 1883 146 
1 1889 146 
1 529 146 
1 530 146 
1 1831 146 
1 1842 146 
1 1828 146 
1 1827 146 
1 1830 146 
1 526 146 
1 527 146 
1 541 146 
1 1885 146 
1 1871 146 
1 1869 146 
1 1868 146 
1 1893 146 
1 1892 146 
0 922 717 
1 2725 752 
1 2698 752 
1 2717 752 
1 2685 752 
1 2703 752 
1 2723 752 
1 2724 752 
0 960 4 
0 885 270 
0 885 48 
0 885 127 
0 885 52 
0 885 276 
0 885 79 
0 885 351 
0 885 45 
0 885 393 
0 885 39 
0 850 270 
0 850 48 
0 850 127 
0 850 52 
0 850 276 
0 850 79 
0 850 351 
0 850 45 
0 851 393 
0 851 39 
0 895 589 
0 894 254 
0 894 240 
0 894 495 
0 895 556 
0 895 529 
0 895 425 
0 924 553 
0 949 762 
0 961 40 
0 753 40 
0 905 759 
0 902 217 
0 886 15 
0 885 15 
0 850 15 
0 899 402 
0 891 185 
0 383 429 
0 381 142 
0 366 509 
0 397 565 
0 402 528 
0 437 69 
0 433 296 
0 425 459 
0 423 616 
0 421 640 
0 415 706 
0 385 76 
0 372 24 
0 370 494 
0 374 124 
0 396 733 
0 397 477 
0 395 323 
0 438 637 
0 433 264 
0 405 328 
0 430 445 
0 424 238 
0 422 599 
0 420 737 
0 431 412 
0 416 275 
0 416 227 
0 413 411 
0 419 698 
0 535 609 
0 529 170 
0 529 228 
0 384 609 
0 380 134 
0 378 497 
0 376 25 
0 543 156 
0 541 667 
0 394 642 
0 392 202 
0 390 478 
0 525 208 
0 523 132 
0 523 691 
0 519 147 
0 372 473 
0 368 89 
0 374 682 
0 547 326 
0 547 252 
0 400 120 
0 439 59 
0 436 64 
0 434 223 
0 559 365 
0 406 107 
0 581 101 
0 428 148 
0 426 484 
0 424 630 
0 567 645 
0 535 143 
0 533 353 
0 531 255 
0 527 191 
0 527 154 
0 530 49 
0 541 605 
0 539 614 
0 525 697 
0 518 518 
0 520 136 
0 549 526 
0 549 413 
0 548 413 
0 587 280 
0 587 85 
0 586 470 
0 561 166 
0 563 376 
0 581 292 
0 579 520 
0 575 66 
0 574 88 
0 569 279 
0 565 346 
0 538 302 
0 528 135 
0 533 670 
0 544 78 
0 518 506 
0 552 220 
0 552 330 
0 550 360 
0 550 98 
0 548 363 
0 551 319 
0 551 220 
0 586 214 
0 587 421 
0 580 418 
0 576 281 
0 573 530 
0 1057 298 
0 1057 67 
0 1055 256 
0 536 94 
0 1069 100 
0 1051 374 
0 1050 571 
0 1049 168 
0 1047 596 
0 1047 115 
0 1079 46 
0 1079 379 
0 1075 226 
0 1075 558 
0 554 476 
0 1087 180 
0 1087 153 
0 1081 209 
0 562 35 
0 1101 487 
0 582 83 
0 1093 422 
0 1089 80 
0 1089 33 
0 1097 335 
0 1063 260 
0 1072 285 
0 1071 30 
0 1067 205 
0 1051 47 
0 1045 3 
0 1082 219 
0 1107 11 
0 1094 265 
0 1094 341 
0 1091 201 
0 1283 160 
0 1060 320 
0 1058 198 
0 1068 109 
0 1046 37 
0 1074 10 
0 1337 248 
0 1116 117 
0 1313 82 
0 1311 36 
0 1082 19 
0 1323 23 
0 1106 349 
