ITEM: TIMESTEP
14200000
ITEM: NUMBER OF ENTRIES
403
ITEM: BOX BOUNDS ff ff ff
-0.01 0.45
-0.15 0.15
-0.08 0.1
ITEM: ENTRIES c_pwc[1] c_pwc[2] c_pwc[3] 
0 922 1225 
0 850 1707 
0 850 41 
0 850 480 
0 885 1707 
0 885 41 
0 885 480 
0 855 1477 
0 855 1243 
0 884 1382 
0 854 1119 
0 854 1574 
0 854 385 
0 854 1175 
0 854 1163 
0 854 557 
0 854 1424 
0 854 1129 
0 854 136 
0 852 1396 
0 852 1201 
0 852 82 
0 894 995 
0 894 1366 
0 894 1399 
0 894 1358 
0 894 1239 
0 894 1312 
0 894 641 
0 894 470 
0 852 1560 
0 855 1049 
0 855 1244 
0 855 525 
0 855 888 
0 855 680 
0 855 303 
0 855 1647 
0 855 895 
0 854 730 
0 854 550 
0 854 1683 
0 854 167 
1 2698 752 
1 2717 752 
1 2707 1377 
1 2721 1377 
1 2722 1377 
1 2702 1377 
1 2703 1377 
1 2724 1377 
1 134 1377 
1 136 1377 
1 120 1377 
1 2726 1377 
1 123 1377 
1 2650 1377 
1 2644 1377 
1 125 1377 
1 2647 1377 
1 2649 1377 
1 126 1377 
1 2672 1377 
1 2674 1377 
1 2673 1377 
1 491 146 
1 494 146 
1 493 146 
0 960 1189 
0 959 970 
1 1861 417 
1 1873 417 
1 1874 417 
1 1883 417 
1 529 417 
1 1890 417 
1 1889 417 
1 530 417 
1 526 417 
1 541 417 
1 527 417 
1 1827 417 
1 1831 417 
1 1842 417 
1 1828 417 
1 1830 417 
1 1826 417 
1 1893 417 
1 1870 417 
1 1871 417 
1 1869 417 
1 1868 417 
1 1885 417 
1 1892 417 
0 885 270 
0 885 969 
0 885 48 
0 885 127 
0 885 52 
0 885 908 
0 885 276 
0 885 352 
0 885 6 
0 885 79 
0 885 351 
0 885 45 
0 885 393 
0 885 39 
0 850 270 
0 850 969 
0 850 48 
0 850 127 
0 850 52 
0 850 908 
0 850 276 
0 850 352 
0 850 6 
0 850 79 
0 850 351 
0 850 45 
0 851 393 
0 851 39 
0 895 310 
0 895 314 
0 895 1603 
0 895 216 
0 853 1223 
0 884 788 
0 884 820 
0 884 1058 
0 885 1144 
0 850 788 
0 852 926 
0 852 266 
0 894 1071 
0 894 200 
0 894 1379 
0 894 808 
0 894 877 
0 894 623 
0 894 620 
0 894 300 
0 895 165 
0 895 473 
0 895 964 
0 895 1334 
0 895 887 
0 895 1504 
0 895 328 
0 935 1388 
0 929 1753 
0 919 1443 
0 961 1029 
0 961 40 
0 959 1499 
0 753 1029 
0 753 40 
0 407 1499 
0 886 15 
0 885 15 
0 850 15 
0 895 1569 
0 888 618 
0 888 1079 
0 888 920 
0 888 1441 
0 891 1559 
0 891 824 
0 887 1672 
0 887 1583 
0 892 981 
0 892 900 
0 888 209 
0 888 1667 
0 377 770 
0 375 57 
0 364 804 
0 365 804 
0 435 1741 
0 365 527 
0 417 180 
0 411 1556 
0 382 153 
0 376 169 
0 379 163 
0 393 78 
0 387 291 
0 373 1681 
0 374 797 
0 396 523 
0 397 1257 
0 395 1480 
0 439 675 
0 438 675 
0 434 1012 
0 432 414 
0 432 74 
0 433 668 
0 404 528 
0 430 596 
0 422 1216 
0 429 549 
0 421 1216 
0 416 1362 
0 415 437 
0 533 1391 
0 527 1608 
0 384 1418 
0 384 1730 
0 378 1315 
0 374 1738 
0 545 801 
0 543 578 
0 539 413 
0 392 537 
0 390 1535 
0 390 976 
0 523 948 
0 519 1408 
0 372 948 
0 368 521 
0 553 1357 
0 400 25 
0 396 1001 
0 436 1702 
0 432 881 
0 557 408 
0 478 834 
0 408 646 
0 408 1451 
0 404 834 
0 577 1240 
0 424 201 
0 422 648 
0 567 580 
0 571 22 
0 537 1151 
0 533 1665 
0 529 465 
0 534 1296 
0 543 1191 
0 543 1203 
0 541 1630 
0 541 168 
0 523 599 
0 521 608 
0 521 418 
0 519 66 
0 519 422 
0 551 315 
0 549 1648 
0 554 177 
0 589 1310 
0 585 609 
0 583 10 
0 555 1562 
0 558 160 
0 556 226 
0 581 611 
0 579 235 
0 579 316 
0 573 1386 
0 571 387 
0 571 1501 
0 582 441 
0 566 1636 
0 566 1177 
0 536 1077 
0 534 1024 
0 537 162 
0 546 1277 
0 546 994 
0 544 737 
0 544 1164 
0 540 445 
0 525 700 
0 526 907 
0 554 358 
0 591 593 
0 590 1061 
0 586 1246 
0 562 1007 
0 560 610 
0 557 412 
0 563 950 
0 582 722 
0 574 1299 
0 579 858 
0 575 876 
0 570 1022 
0 568 1447 
0 564 1114 
0 1059 125 
0 1057 1217 
0 1057 396 
0 1055 1453 
0 1053 1157 
1 2570 605 
0 1069 1045 
0 1051 1307 
0 1051 500 
0 1049 838 
0 1047 670 
0 1047 724 
0 1044 852 
0 1044 1425 
0 524 847 
0 1079 1056 
0 1079 330 
0 1077 65 
0 1073 246 
0 1073 212 
1 1791 95 
1 1790 95 
0 1113 87 
0 1113 707 
0 1043 236 
0 1082 1422 
0 562 1353 
0 1099 571 
0 1093 122 
0 1091 85 
0 1089 637 
0 568 1052 
0 1063 444 
0 1059 1519 
0 1059 115 
0 1057 75 
0 1071 1248 
0 1070 320 
0 1067 366 
0 1066 135 
0 1051 429 
0 1049 190 
0 1047 1643 
0 1046 440 
0 1079 1325 
0 1078 217 
0 1077 109 
0 1073 853 
0 1114 1419 
0 1114 227 
0 1105 1159 
0 1103 47 
0 1101 242 
0 1097 11 
0 1095 67 
0 1094 67 
0 1093 1067 
0 1283 614 
0 1279 86 
0 1064 50 
0 1062 32 
0 1058 687 
0 1056 454 
0 1054 279 
0 1066 506 
0 1050 837 
0 1048 372 
0 1080 520 
0 1080 530 
0 1074 173 
1 1816 530 
1 1817 530 
0 1269 198 
0 1117 269 
0 1116 374 
0 1116 117 
0 1110 219 
0 1043 269 
0 1042 269 
0 1086 1365 
0 1082 810 
0 1104 672 
0 1102 34 
0 1100 1402 
0 1321 791 
0 1321 1179 
0 1096 1503 
0 1096 282 
0 1095 210 
0 1092 97 
0 1287 147 
0 1287 19 
0 1284 1403 
0 1297 430 
0 1297 1035 
0 1291 346 
0 1277 1167 
0 1273 615 
0 1306 220 
0 1301 281 
0 1339 424 
0 1269 631 
0 1333 241 
0 1319 388 
0 1315 958 
0 78 124 
0 1272 1010 
0 99 404 
0 151 1429 
0 109 946 
0 123 379 
