ITEM: TIMESTEP
15350000
ITEM: NUMBER OF ENTRIES
435
ITEM: BOX BOUNDS ff ff ff
-0.01 0.45
-0.15 0.15
-0.08 0.1
ITEM: ENTRIES c_pwc[1] c_pwc[2] c_pwc[3] 
0 878 1470 
0 952 1762 
0 850 1707 
0 850 41 
0 850 480 
0 885 1707 
0 885 41 
0 885 480 
0 855 1509 
0 962 1917 
0 884 128 
0 854 947 
0 854 1704 
0 854 1233 
0 854 1259 
0 854 1464 
0 854 789 
0 854 1478 
0 854 945 
0 854 875 
0 854 1143 
0 853 698 
0 853 826 
0 852 258 
0 852 1755 
0 852 1409 
0 852 309 
0 894 136 
0 894 1396 
0 894 793 
0 894 1150 
0 894 118 
0 894 391 
0 894 711 
0 894 951 
0 894 1058 
0 894 1494 
0 894 1075 
0 852 1601 
0 855 1003 
0 855 557 
0 855 1497 
0 855 100 
0 855 245 
0 854 525 
0 854 1444 
0 854 749 
0 854 230 
1 2685 752 
1 2698 752 
1 2717 752 
1 2686 752 
1 2721 1377 
1 2722 1377 
1 2725 752 
1 2703 1377 
1 2703 752 
1 2702 1377 
1 2723 752 
1 2724 1377 
1 2724 752 
1 120 1377 
1 134 1377 
1 136 1377 
1 2726 1377 
1 123 1377 
1 2650 1377 
1 2644 1377 
1 125 1377 
1 2647 1377 
1 2649 1377 
1 126 1377 
1 2672 1377 
1 2674 1377 
1 2673 1377 
1 2707 1377 
0 921 1911 
0 952 1919 
1 1861 417 
1 1874 417 
1 1873 417 
1 1883 417 
1 530 417 
1 529 417 
1 1890 417 
1 1889 417 
1 1842 417 
1 1826 417 
1 1828 417 
1 1831 417 
1 1827 417 
1 1830 417 
1 491 146 
1 493 146 
1 494 146 
1 526 417 
1 541 417 
1 527 417 
1 1870 417 
1 1871 417 
1 1869 417 
1 1868 417 
1 1892 417 
1 1893 417 
1 1885 417 
0 885 270 
0 885 969 
0 885 48 
0 885 127 
0 885 52 
0 885 908 
0 885 276 
0 885 352 
0 885 6 
0 885 79 
0 885 351 
0 885 45 
0 885 393 
0 885 39 
0 850 270 
0 850 969 
0 850 48 
0 850 127 
0 850 52 
0 850 908 
0 850 276 
0 850 352 
0 850 6 
0 850 79 
0 850 351 
0 850 45 
0 851 393 
0 851 39 
0 895 1132 
0 853 1222 
0 853 1860 
0 853 25 
0 853 553 
0 853 21 
0 853 1898 
0 853 1739 
0 884 788 
0 884 1654 
0 884 678 
0 885 1717 
0 850 788 
0 852 200 
0 852 450 
0 894 1013 
0 894 278 
0 894 349 
0 894 856 
0 894 1098 
0 894 1008 
0 894 1613 
0 895 1340 
0 895 1098 
0 895 624 
0 895 262 
0 895 1144 
0 941 1922 
0 927 894 
0 961 1029 
0 961 40 
0 955 1221 
0 759 1221 
0 753 1029 
0 753 40 
0 886 15 
0 885 15 
0 850 15 
0 888 1563 
0 888 554 
0 888 1641 
0 888 618 
0 888 150 
0 888 622 
0 888 1896 
0 888 72 
0 890 1210 
0 886 188 
0 885 501 
0 885 1645 
0 887 1215 
0 887 1725 
0 893 679 
0 888 1188 
0 888 1073 
0 888 751 
0 888 1837 
0 888 1729 
0 383 1391 
0 375 815 
0 393 1346 
0 391 499 
0 367 1246 
0 399 73 
0 395 1356 
0 437 1269 
0 409 817 
0 427 643 
0 421 1240 
0 415 1855 
0 413 975 
0 413 1087 
0 411 363 
0 412 1790 
0 384 1550 
0 382 1463 
0 380 168 
0 380 431 
0 385 1177 
0 375 1475 
0 390 599 
0 369 1753 
0 369 1277 
0 367 840 
0 367 876 
0 402 169 
0 400 605 
0 400 1758 
0 398 106 
0 396 705 
0 401 67 
0 399 605 
0 397 1138 
0 437 1556 
0 435 504 
0 404 1437 
0 409 1204 
0 407 537 
0 403 10 
0 403 1849 
0 430 855 
0 430 74 
0 424 1024 
0 415 502 
0 529 921 
0 527 1001 
0 388 948 
0 370 226 
0 364 1784 
0 364 147 
0 553 1741 
0 549 409 
0 402 315 
0 398 485 
0 448 414 
0 436 1842 
0 434 414 
0 434 1454 
0 561 689 
0 557 153 
0 478 834 
0 408 1461 
0 408 57 
0 404 834 
0 404 1171 
0 583 291 
0 577 1408 
0 567 1453 
0 567 259 
0 414 1296 
0 535 1812 
0 535 1035 
0 529 1872 
0 538 1450 
0 532 1570 
1 2622 1450 
1 2618 1450 
0 525 454 
0 523 428 
0 521 85 
0 521 295 
0 518 374 
0 520 46 
0 549 1648 
0 589 838 
0 587 1116 
0 587 370 
0 587 202 
0 585 316 
0 585 1749 
0 586 915 
0 584 497 
0 559 669 
0 557 1693 
0 557 1184 
0 560 1772 
0 560 217 
0 577 109 
0 573 900 
0 578 858 
0 578 637 
0 576 1503 
0 574 1728 
0 567 528 
0 565 139 
0 565 733 
0 563 163 
0 566 881 
0 532 694 
0 531 24 
0 546 1738 
0 544 1562 
0 544 62 
0 542 1537 
0 516 1307 
0 516 487 
0 516 896 
0 519 847 
0 550 665 
0 548 1288 
0 590 958 
0 586 724 
0 586 982 
0 562 420 
0 560 1587 
0 558 1880 
0 558 1159 
0 556 1830 
0 557 1880 
0 555 422 
0 555 1665 
0 580 527 
0 578 307 
0 578 445 
0 572 1061 
0 583 1403 
0 579 946 
0 577 1777 
0 573 90 
0 568 1165 
0 566 424 
0 1059 152 
0 1071 430 
0 1069 1085 
0 1069 1724 
0 1067 1095 
0 1051 166 
0 1051 683 
0 1045 1843 
0 1044 812 
0 1044 1491 
0 1077 37 
0 1077 241 
0 1075 404 
0 1073 1598 
0 554 851 
0 550 509 
0 1111 22 
0 1043 1299 
0 1043 412 
0 588 593 
0 586 223 
0 1087 98 
0 1085 1800 
0 1081 177 
0 560 269 
0 556 246 
0 1107 279 
0 1105 1114 
0 1099 631 
0 1097 614 
0 578 925 
0 1095 520 
0 1095 122 
0 1091 191 
0 570 500 
0 568 1022 
0 1062 173 
0 1061 66 
0 1053 464 
0 1070 1067 
0 1068 174 
0 1050 50 
0 1042 1090 
0 1080 785 
0 1077 1048 
0 1077 725 
0 1116 1422 
0 1115 301 
0 1112 706 
0 1112 864 
0 1088 608 
0 1084 939 
0 1083 219 
0 1083 736 
0 1081 1112 
0 1106 1365 
0 1101 1056 
0 1099 80 
0 1094 68 
0 1091 1538 
0 1285 1528 
0 1064 686 
0 1064 32 
0 1062 476 
0 1080 700 
0 1076 506 
0 1074 1203 
0 1339 596 
0 1116 837 
0 1116 190 
0 1114 579 
0 1114 532 
0 1088 341 
0 1082 281 
0 1108 320 
0 1107 31 
0 1106 1439 
0 1100 335 
0 1100 722 
0 1098 120 
0 1094 372 
0 1090 93 
0 1098 822 
0 1289 119 
0 1285 994 
0 1297 210 
0 1295 810 
0 1270 379 
0 1335 571 
0 1311 444 
0 1309 429 
0 1329 220 
0 1323 672 
0 1318 388 
0 1317 518 
0 99 461 
0 139 612 
0 1309 282 
0 125 1425 
0 131 478 
0 102 1037 
