ITEM: TIMESTEP
7350000
ITEM: NUMBER OF ENTRIES
2332
ITEM: BOX BOUNDS ff ff ff
-0.01 0.45
-0.15 0.15
-0.08 0.1
ITEM: ENTRIES c_pwc[1] c_pwc[2] c_pwc[3] c_pwc[4] c_pwc[5] c_pwc[6] c_pwc[7] c_pwc[8] c_pwc[9] c_pwc[10] c_pwc[11] c_pwc[12] c_pwc[13] c_pwc[14] 
0 0 0 3.51109 0.532329 8.86499 0 936 679 -0.00145846 0.00678862 0.000958873 7.67211e-08 1.54116e-05 
0 0 0 -0.00191085 -0.135547 0.0844489 0 788 4848 7.13658e-09 1.56397e-07 -9.48824e-05 3.87144e-10 7.70235e-08 
0 0 0 -0.146061 -0.33195 0.536266 0 782 13175 -3.64444e-09 9.92336e-06 4.36483e-06 5.48625e-10 1.09153e-07 
0 0 0 7.0513e-05 0.000200874 0.00485106 0 778 7649 -5.92985e-06 1.87405e-05 -3.26337e-06 9.60921e-10 1.91192e-07 
0 0 0 -1.14086e-05 -0.00102889 0.00554589 0 778 12800 1.12038e-06 9.75141e-06 3.36246e-06 5.15923e-10 1.02646e-07 
0 0 0 0.0382903 -0.0068775 0.0367913 0 778 2015 -4.60692e-14 1.02659e-05 1.35713e-06 5.18849e-10 1.03228e-07 
0 0 0 0.00190715 0.000370073 0.00409369 0 778 4413 -2.10259e-05 1.87561e-05 -1.60887e-05 9.04477e-10 1.7996e-07 
0 0 0 -0.0158321 0.00133819 -0.00715876 0 778 12450 6.27123e-14 1.0266e-05 1.35715e-06 5.18851e-10 1.03229e-07 
0 0 0 -0.0697271 -0.00886612 0.0474295 0 778 3837 4.77778e-19 1.02659e-05 1.35713e-06 5.18851e-10 1.03229e-07 
0 0 0 -0.0642582 0.0029238 -0.015641 0 778 5399 -5.13101e-06 1.00476e-05 2.52482e-06 5.18851e-10 1.03229e-07 
0 0 0 0.0036538 -0.00155861 0.00628114 0 778 2611 -5.79111e-06 1.36779e-05 -2.01035e-06 5.27916e-10 1.05032e-07 
0 0 0 0.135304 -0.0248261 0.132808 0 778 215 -1.75706e-17 1.02659e-05 1.35713e-06 5.18851e-10 1.03229e-07 
0 0 0 0.00320615 -0.00132126 0.00704776 0 778 12304 -2.28754e-10 1.03251e-05 1.36792e-06 5.20052e-10 1.03468e-07 
0 0 0 -0.0187348 0.000861245 -0.00460733 0 778 12332 7.60101e-14 1.02665e-05 1.35726e-06 5.1887e-10 1.03233e-07 
0 0 0 -0.00559841 -0.0296515 -0.0028831 0 778 10496 -0.00036681 0.000584931 -6.54957e-05 4.19781e-09 8.35565e-07 
0 0 0 0.156489 -0.00801365 0.0428694 0 778 10952 1.54314e-12 1.02662e-05 1.3572e-06 5.18868e-10 1.03232e-07 
0 0 0 -0.195472 0.00835335 -0.0449044 0 778 7654 5.32673e-06 1.11292e-05 4.65561e-06 5.57933e-10 1.11005e-07 
0 0 0 0.000596865 -0.00029993 0.00529898 0 776 7937 8.36876e-06 1.95522e-05 -5.05328e-06 7.34829e-10 1.46203e-07 
0 0 0 0.000785382 5.87714e-06 0.0018243 0 776 5540 1.49581e-12 1.0543e-05 1.20501e-12 5.26875e-10 1.04825e-07 
0 0 0 -0.000466906 -5.07049e-06 0.00312655 0 776 1200 6.78636e-13 1.052e-05 -2.92661e-12 5.23742e-10 1.04202e-07 
0 0 0 3.62473e-06 -2.81016e-12 0.00257313 0 776 1871 3.83816e-22 1.05196e-05 -2.99527e-19 5.24825e-10 1.04417e-07 
0 0 0 2.52747e-05 -5.71059e-12 0.00212803 0 776 206 -4.54015e-22 1.05196e-05 -2.87999e-20 5.24825e-10 1.04417e-07 
0 0 0 -0.00477803 -4.2991e-05 0.0112387 0 776 733 3.66572e-06 2.6106e-05 -1.25277e-05 9.53954e-10 1.89806e-07 
0 0 0 -0.00219894 -6.10584e-06 0.00489606 0 776 894 2.52332e-12 1.05661e-05 -7.59051e-12 5.2505e-10 1.04462e-07 
0 0 0 -0.00384582 -0.000175998 0.00197589 0 776 9680 4.87168e-06 1.11797e-05 2.74105e-06 5.08861e-10 1.01241e-07 
0 0 0 0.001148 -7.15407e-13 0.00103888 0 776 414 1.42257e-19 1.05196e-05 -1.51077e-19 5.24825e-10 1.04417e-07 
0 0 0 0.000390591 6.05226e-12 0.00190184 0 776 690 1.11959e-20 1.05196e-05 -3.00828e-19 5.24825e-10 1.04417e-07 
0 0 0 0.000505022 -0.000145007 0.00506084 0 776 280 1.35171e-05 1.71673e-05 8.14997e-08 6.98536e-10 1.38981e-07 
0 0 0 0.000558646 0.000450236 0.0143312 0 776 1894 7.82045e-07 1.23642e-05 -6.13244e-06 6.79248e-10 1.35144e-07 
0 0 0 0.00268194 0.000160592 0.00477048 0 776 9977 -7.241e-06 1.6965e-05 -4.41821e-06 7.5382e-10 1.49982e-07 
0 0 0 -0.00267806 1.13861e-07 0.00259575 0 776 1225 -8.3893e-14 1.05211e-05 8.13173e-14 5.24902e-10 1.04433e-07 
0 0 0 0.000897454 1.06052e-05 -0.000438079 0 776 3512 -7.0323e-06 9.06089e-06 -5.0185e-06 4.77468e-10 9.4995e-08 
0 0 0 -0.00958762 -7.63163e-06 -0.000631793 0 776 101 2.66824e-07 9.91117e-06 -7.02902e-08 5.02722e-10 1.0002e-07 
0 0 0 -0.00415079 -4.37045e-06 0.0025543 0 776 1705 -3.51004e-08 1.18988e-05 1.53202e-08 5.68821e-10 1.13171e-07 
0 0 0 0.00144718 -6.18992e-05 0.00437085 0 776 2352 -7.17754e-08 1.16308e-05 -2.22768e-07 5.47987e-10 1.09026e-07 
0 0 0 0.00117177 4.99213e-07 0.00522677 0 776 9269 1.7321e-13 1.05078e-05 7.96373e-13 5.24541e-10 1.04361e-07 
0 0 0 -0.000103366 -7.1186e-08 -0.0016643 0 776 6408 3.01778e-15 1.05195e-05 3.34967e-14 5.24808e-10 1.04414e-07 
0 0 0 -0.000738322 9.4689e-05 -0.000633762 0 776 553 5.69976e-07 1.35648e-05 5.19733e-07 6.41397e-10 1.27612e-07 
0 0 0 -0.00428598 0.00013832 -0.0133994 0 776 585 -8.36441e-06 2.25085e-05 7.52963e-06 8.97791e-10 1.7863e-07 
0 0 0 -3.67263e-05 3.82439e-07 -0.00133823 0 776 2069 6.12766e-15 1.05122e-05 -1.50388e-13 5.24662e-10 1.04385e-07 
0 0 0 -0.00284486 6.7938e-06 -0.00445773 0 776 531 6.92947e-07 1.02259e-05 -1.4672e-06 5.16491e-10 1.02759e-07 
0 0 0 -0.000536502 -4.47631e-07 0.00161323 0 776 8455 6.89962e-14 1.05218e-05 -2.0065e-13 5.24803e-10 1.04413e-07 
0 0 0 0.00016137 4.91007e-07 0.00205301 0 776 11208 2.08142e-14 1.05154e-05 2.94702e-13 5.24794e-10 1.04411e-07 
0 0 0 8.74118e-05 7.33059e-08 -0.00149088 0 776 6702 1.06961e-15 1.05196e-05 -3.0781e-14 5.24841e-10 1.04421e-07 
0 0 0 -0.000542925 -1.07801e-08 -0.000249793 0 776 1470 4.48857e-15 1.05292e-05 -1.12242e-13 5.25141e-10 1.0448e-07 
0 0 0 0.000828713 -6.59407e-06 0.000275917 0 776 154 -9.65403e-07 1.08076e-05 1.67262e-06 5.32939e-10 1.06032e-07 
0 0 0 0.000948336 0.000158309 -0.00352047 0 776 1045 3.59803e-09 1.11077e-05 1.19191e-06 5.78154e-10 1.15028e-07 
0 0 0 0.00280749 -8.14385e-12 0.00384975 0 776 10360 -5.2531e-18 1.05196e-05 -7.19487e-18 5.24825e-10 1.04417e-07 
0 0 0 0.00158238 3.86952e-10 0.000442394 0 776 4634 1.48348e-16 1.05196e-05 4.14778e-17 5.24827e-10 1.04418e-07 
0 0 0 0.00148449 4.61671e-05 -0.00321212 0 776 3087 8.84577e-09 1.03337e-05 -5.88489e-09 5.28646e-10 1.05178e-07 
0 0 0 -0.00573915 -2.99891e-06 0.0203298 0 776 4165 -2.6398e-07 1.03638e-05 3.31805e-07 5.18981e-10 1.03255e-07 
0 0 0 0.00101586 -2.81998e-09 -0.00511686 0 776 1920 -7.86907e-16 1.05195e-05 3.96355e-15 5.24823e-10 1.04417e-07 
0 0 0 0.00803349 -2.96981e-12 -0.00475544 0 776 10613 -8.10426e-18 1.05196e-05 4.74279e-18 5.24825e-10 1.04417e-07 
0 0 0 0.0153701 0.00160552 0.00656278 0 776 4185 -8.79052e-05 -1.45308e-06 2.35033e-06 4.61066e-10 9.17315e-08 
0 0 0 -0.000950113 -4.75313e-06 0.0153584 0 776 4095 -2.6019e-07 1.07477e-05 1.52358e-06 5.31358e-10 1.05717e-07 
0 0 0 0.000657715 -1.85422e-11 -0.00682081 0 776 4938 -3.03064e-18 1.05196e-05 3.18598e-17 5.24825e-10 1.04417e-07 
0 0 0 0.00137287 0.000139584 -0.00493426 0 776 18 -3.27952e-07 8.9703e-06 -1.94119e-07 5.0296e-10 1.00067e-07 
0 0 0 0.00293642 1.59835e-08 -0.00426734 0 776 4248 1.31203e-14 1.05195e-05 -1.90671e-14 5.24826e-10 1.04418e-07 
0 0 0 0.0318288 -0.000908955 0.0538752 0 776 8603 -1.89848e-05 6.66617e-05 -2.73957e-05 1.65241e-09 3.28805e-07 
0 0 0 -0.00183794 -7.30375e-12 0.000460529 0 776 1367 2.34265e-18 1.05196e-05 -5.86715e-19 5.24825e-10 1.04417e-07 
0 0 0 -0.000600294 -7.15407e-13 -0.00511173 0 776 1036 7.5536e-20 1.05196e-05 2.60175e-19 5.24825e-10 1.04417e-07 
0 0 0 0.00158392 -0.000260162 -0.00442704 0 776 6544 1.18292e-07 1.73463e-05 4.79917e-06 6.80717e-10 1.35436e-07 
0 0 0 0.00848086 -1.19881e-12 0.0099289 0 776 9639 -7.37575e-19 1.05196e-05 -1.19791e-18 5.24825e-10 1.04417e-07 
0 0 0 0.0177801 -6.12601e-05 0.0147556 0 776 3983 -3.8553e-08 9.81469e-06 -6.45635e-08 4.877e-10 9.70307e-08 
0 0 0 0.00176078 3.31297e-12 -0.00213292 0 776 7185 5.42702e-20 1.05196e-05 -5.90632e-21 5.24825e-10 1.04417e-07 
0 0 0 0.00226801 1.26058e-05 -0.0025686 0 776 4532 4.53817e-10 1.02884e-05 -8.92204e-11 5.19848e-10 1.03427e-07 
0 0 0 -0.0112106 -5.81761e-12 -0.00224444 0 776 9210 -1.20977e-18 1.05196e-05 -3.02848e-19 5.24825e-10 1.04417e-07 
0 0 0 0.0179402 1.54048e-12 0.00276923 0 776 3427 -2.39611e-18 1.05196e-05 -2.99497e-19 5.24825e-10 1.04417e-07 
0 0 0 -0.000943859 -2.60872e-09 -0.00327828 0 776 1118 6.89814e-16 1.05196e-05 2.39589e-15 5.24825e-10 1.04417e-07 
0 0 0 -0.00339575 5.84821e-08 -0.00427222 0 776 1890 2.67675e-08 1.11717e-05 7.14917e-07 5.4631e-10 1.08692e-07 
0 0 0 0.0694496 -4.58265e-12 0.0628558 0 776 9279 9.58423e-18 1.05196e-05 -5.73514e-18 5.24825e-10 1.04417e-07 
0 0 0 0.00931657 4.11864e-12 -0.00620903 0 776 7431 -1.20862e-18 1.05196e-05 5.98979e-19 5.24825e-10 1.04417e-07 
0 0 0 0.00631881 -1.17586e-08 0.0144221 0 776 1366 -2.10461e-14 1.05198e-05 -4.80364e-14 5.24829e-10 1.04418e-07 
0 0 0 -0.00364583 9.58535e-06 0.00771889 0 776 10907 -1.50264e-11 1.0467e-05 2.60838e-11 5.25153e-10 1.04483e-07 
0 0 0 0.00762836 6.91741e-11 0.0218613 0 776 12872 1.47707e-16 1.05196e-05 4.23494e-16 5.24825e-10 1.04417e-07 
0 0 0 0.000985555 -1.27017e-07 0.00675272 0 776 1887 -2.69828e-14 1.04894e-05 -1.84938e-13 5.23793e-10 1.04212e-07 
0 0 0 -0.0039708 -2.79524e-05 0.00603994 0 776 4164 5.59978e-07 1.1075e-05 8.29755e-08 5.3714e-10 1.06868e-07 
0 0 0 0.00180507 -5.15963e-06 0.000648865 0 776 1749 1.31344e-07 1.03918e-05 2.50586e-09 5.19448e-10 1.03348e-07 
0 0 0 0.0150863 -3.37995e-05 0.00413075 0 776 11571 -4.89508e-10 1.05016e-05 -2.48389e-10 5.16909e-10 1.02842e-07 
0 0 0 0.00216954 5.68747e-08 0.00369526 0 776 3630 3.09917e-14 1.05198e-05 5.80495e-14 5.24845e-10 1.04421e-07 
0 0 0 -0.00379356 1.47625e-06 0.00469017 0 776 11044 -1.87488e-08 9.69907e-06 4.2537e-09 4.97493e-10 9.89792e-08 
0 0 0 -0.0130893 -1.46783e-05 0.00840569 0 776 7893 5.24073e-06 1.05589e-05 6.38262e-07 5.22958e-10 1.04046e-07 
0 0 0 0.000938532 0.000718262 0.00600738 0 777 10595 -4.24569e-06 1.0756e-05 -3.30106e-06 6.87013e-10 1.36688e-07 
0 0 0 0.00212968 8.63166e-06 0.00451763 0 777 5611 1.67883e-09 9.92723e-06 -6.99659e-10 5.06821e-10 1.00835e-07 
0 0 0 0.00313913 4.21925e-09 0.00660614 0 777 12691 3.67971e-15 1.05196e-05 7.74323e-15 5.24826e-10 1.04418e-07 
0 0 0 -8.46943e-05 5.39975e-10 0.0213299 0 777 9715 -1.2616e-17 1.05196e-05 3.17754e-15 5.24825e-10 1.04417e-07 
0 0 0 0.0528678 3.31297e-12 -0.0299818 0 777 7286 5.21827e-18 1.05196e-05 4.79221e-18 5.24825e-10 1.04417e-07 
0 0 0 -0.0010145 0.000104193 -0.000641987 0 775 2116 1.04602e-06 3.68552e-06 7.30996e-07 3.08659e-10 6.14082e-08 
0 0 0 0.00272431 -0.000549191 -0.00261798 0 775 12 -1.62197e-10 1.05527e-05 -1.41109e-06 5.15868e-10 1.02635e-07 
0 0 0 0.00413401 -0.000775028 -0.00434121 0 775 3998 7.00918e-07 8.82838e-06 2.65206e-06 4.52283e-10 8.99839e-08 
0 0 0 -0.00894364 -0.000774947 -0.00414554 0 775 5900 1.78907e-07 1.00705e-05 -1.02954e-06 5.10375e-10 1.01542e-07 
0 0 0 -0.00353502 -0.00205211 -0.0109777 0 775 9290 1.73593e-08 1.007e-05 -1.38027e-06 5.12528e-10 1.01971e-07 
0 0 0 0.0048605 0.000601888 0.00321865 0 775 6574 2.89346e-13 1.02654e-05 -1.35704e-06 5.1888e-10 1.03234e-07 
0 0 0 0.00167886 0.000178681 0.000799248 0 775 7843 3.462e-07 9.61267e-06 -1.49774e-06 5.04338e-10 1.00341e-07 
0 0 0 0.0298309 0.00396793 0.0213488 0 775 8439 -5.93602e-06 8.43298e-06 4.38368e-06 4.13109e-10 8.21897e-08 
0 0 0 7.0513e-05 0.000200874 0.00485106 0 838 7649 6.17136e-05 -6.62542e-06 -2.41247e-06 1.71825e-09 3.41908e-07 
0 0 0 0.00171228 0.000260324 0.0107949 0 832 1972 2.44413e-05 1.33056e-07 1.22199e-05 1.24109e-09 2.46945e-07 
0 0 0 -0.0025814 0.000473802 0.00377111 0 774 2641 2.27248e-05 3.62549e-06 -1.58522e-05 3.26577e-10 6.4973e-08 
0 0 0 0.00197207 -0.0057602 -0.0308143 0 774 5113 -3.8821e-20 1.02659e-05 -1.35713e-06 5.18851e-10 1.03229e-07 
0 0 0 0.000775324 0.000560604 0.00433719 0 774 210 -5.78056e-06 1.4102e-05 -7.71819e-06 6.23127e-10 1.23977e-07 
0 0 0 0.0149425 -0.0021936 -0.0104347 0 774 3865 -4.24005e-06 1.19476e-05 -7.30306e-06 5.5721e-10 1.10861e-07 
0 0 0 0.00134267 -0.00596347 -0.0301955 0 774 4325 -7.05531e-06 1.52572e-05 1.62181e-06 5.91823e-10 1.17748e-07 
0 0 0 0.00650247 -0.00257302 -0.0137643 0 774 3869 -2.42981e-14 1.02662e-05 -1.3572e-06 5.18859e-10 1.0323e-07 
0 0 0 0.00420235 -0.0013501 -0.00722011 0 774 1165 -4.61715e-13 1.02397e-05 -1.35199e-06 5.17868e-10 1.03033e-07 
0 0 0 0.00468399 -0.000155038 0.000724582 0 774 9441 -1.83859e-05 1.09918e-05 -2.43358e-05 6.14963e-10 1.22352e-07 
0 0 0 0.0025794 -0.000344208 -0.00234161 0 774 8682 3.08535e-06 1.05804e-05 -5.85553e-06 5.75784e-10 1.14557e-07 
0 0 0 0.00214375 -0.000812303 -0.00305062 0 774 6076 -6.43287e-06 1.25334e-05 -4.16717e-07 5.35445e-10 1.0653e-07 
0 0 0 -0.0330128 -0.00171892 -0.0091954 0 774 3081 -2.26201e-18 1.02659e-05 -1.35713e-06 5.18851e-10 1.03229e-07 
0 0 0 -0.0275245 -0.000754088 -0.00403401 0 774 3877 3.93467e-18 1.02659e-05 -1.35713e-06 5.18851e-10 1.03229e-07 
0 0 0 -0.00664886 -0.00233998 -0.0125178 0 774 8267 -1.96165e-19 1.02659e-05 -1.35713e-06 5.18851e-10 1.03229e-07 
0 0 0 -0.0169055 -0.00573448 -0.0306767 0 774 1541 6.23792e-19 1.02659e-05 -1.35713e-06 5.18851e-10 1.03229e-07 
0 0 0 -0.00444266 0.00048993 0.00252486 0 774 9650 -4.71617e-07 8.92902e-06 -3.95044e-06 4.94326e-10 9.83491e-08 
0 0 0 0.000502899 -0.00618197 -0.0345833 0 839 10425 1.02763e-05 5.02775e-05 -1.55066e-05 6.25759e-10 1.24501e-07 
0 0 0 -0.588158 5.46371 1.30011 0 950 4683 0.00781031 -0.00399887 -0.0319405 1.17005e-07 2.36262e-05 
0 0 0 0.0158416 0.0134098 0.0717512 0 774 11158 -0.000320016 -2.26814e-05 -0.000177364 5.16744e-10 1.0281e-07 
0 0 0 -0.0308496 0.00114383 0.00625239 0 774 5016 -2.36894e-06 1.00061e-05 -4.94833e-06 5.27005e-10 1.04851e-07 
0 0 0 -0.215845 0.0145477 0.0778232 0 774 13186 4.71158e-17 1.02659e-05 -1.35713e-06 5.18851e-10 1.03229e-07 
0 0 0 -0.0345441 0.00285688 0.015283 0 774 5875 -3.91383e-18 1.02659e-05 -1.35713e-06 5.18851e-10 1.03229e-07 
0 0 0 0.117541 -0.00609363 -0.0325978 0 774 12874 -1.51748e-12 1.02661e-05 -1.35718e-06 5.18849e-10 1.03228e-07 
0 0 0 -0.0185663 0.00465309 0.0248918 0 774 9818 2.75156e-17 1.02659e-05 -1.35713e-06 5.18851e-10 1.03229e-07 
0 0 0 0.0571951 0.000275026 0.00147126 0 774 4373 -4.17439e-18 1.02659e-05 -1.35713e-06 5.18851e-10 1.03229e-07 
0 0 0 -0.0686105 0.0116371 0.0050828 0 884 1435 0.000707814 -3.26144e-05 0.000126826 3.48263e-09 6.93147e-07 
0 0 0 3.03166e-302 5.73964e-20 -2.21433e-15 0 884 5230 9.34547e-308 5.25978e-06 -1.62002 1.22522e-06 0.0003 
0 0 0 -0.0421792 0.119576 -0.0368791 0 884 8862 7.41938e-05 -0.000287809 0.000594437 3.7592e-09 7.4822e-07 
0 0 0 0.0116927 -0.0046694 0.00533762 0 884 5089 -0.000165751 0.000300063 9.29014e-05 3.04105e-09 6.05227e-07 
0 0 0 -0.00338164 -0.00522986 -0.00636057 0 884 10179 -0.000104089 -0.000112999 0.0007069 7.98474e-09 1.59009e-06 
0 0 0 0.118339 -0.00607191 0.0499685 0 884 630 -0.000191498 -5.50175e-05 -0.000130219 6.74903e-09 1.34381e-06 
0 0 0 0.0133573 -0.0140393 0.00194888 0 884 148 -0.000120063 2.48416e-05 0.000306562 5.20745e-09 1.03666e-06 
0 0 0 -3.77701e-183 -8.49225e-20 -3.53506e-12 0 884 3064 3.10345e-184 5.25978e-06 -1.62002 1.22522e-06 0.0003 
0 0 0 1.02718e-306 8.48981e-20 3.53499e-12 0 884 871 -5.21197e-307 5.25978e-06 -1.62002 1.22522e-06 0.0003 
0 0 0 -3.78607e-302 8.47851e-20 5.89791e-12 0 884 1962 5.33549e-307 5.25978e-06 -1.62002 1.22522e-06 0.0003 
0 0 0 -1.35017e-17 4.99247e-17 -2.36056e-12 0 884 2565 -0.00048722 -0.00444222 -1.61989 1.22517e-06 0.000299984 
0 0 0 3.66914e-303 5.65019e-20 3.53506e-12 0 884 2145 1.43509e-307 5.25978e-06 -1.62002 1.22522e-06 0.0003 
0 0 0 0.105006 0.0484615 0.0199221 0 884 3737 0.000157044 0.000161364 0.000450339 8.70798e-09 1.73428e-06 
0 0 0 0.0136076 -0.0237073 0.00121236 0 884 3704 -1.75436e-05 -3.25349e-05 9.85069e-05 2.5117e-09 4.99843e-07 
0 0 0 2.2437e-302 3.77209e-20 4.72345e-12 0 884 7394 -4.16876e-307 5.25978e-06 -1.62002 1.22522e-06 0.0003 
0 0 0 -1.67632e-46 3.77232e-20 3.53501e-12 0 884 3089 -6.59781e-47 5.25978e-06 -1.62002 1.22522e-06 0.0003 
0 0 0 -2.2148e-110 -9.41314e-21 3.53498e-12 0 884 1269 -4.06333e-112 5.25978e-06 -1.62002 1.22522e-06 0.0003 
0 0 0 0.0423547 0.0422985 0.000775359 0 884 1651 -0.000517233 -0.000642913 0.00165029 1.53099e-08 3.05164e-06 
0 0 0 -8.04575e-303 -6.60426e-20 5.89789e-12 0 884 7839 3.88993e-307 5.25978e-06 -1.62002 1.22522e-06 0.0003 
0 0 0 -3.55781 11.1174 10.7862 0 884 4627 0.217525 0.0186417 0.334016 8.25678e-07 0.000185851 
0 0 0 0.0373415 2.0468e-05 0.0180704 0 884 6876 -2.70589e-05 8.64403e-06 0.000527143 9.15399e-09 1.82321e-06 
0 0 0 0.0213105 0.0222849 -0.00467115 0 884 6770 3.78563e-05 -0.000835482 0.00240824 1.91868e-08 3.82625e-06 
0 0 0 1.21901e-67 2.80761e-24 -5.89787e-12 0 884 5274 -2.42824e-69 5.25978e-06 -1.62002 1.22522e-06 0.0003 
0 0 0 0.0528268 -0.0337182 0.0251542 0 884 10526 0.00013297 3.30701e-05 2.54603e-05 5.04429e-09 1.00416e-06 
0 0 0 3.5028e-16 2.12703e-17 4.71677e-12 0 884 2130 0.0645874 0.0035438 -1.62438 1.22691e-06 0.000300538 
0 0 0 0.0028969 0.0384502 0.0395133 0 884 8434 0.000244168 0.000488386 0.00381924 2.98002e-08 5.95069e-06 
0 0 0 -4.23326e-16 -2.11827e-17 4.71666e-12 0 884 4708 -0.0546258 -0.00298752 -1.61566 1.22353e-06 0.000299462 
0 0 0 9.08479e-14 -8.48272e-20 -4.0039e-302 0 863 2723 -1.62002 5.25978e-06 6.04175e-307 1.22522e-06 0.0003 
0 0 0 3.49197e-14 8.4202e-20 -3.12349e-302 0 862 444 -1.62002 5.25978e-06 -6.97361e-307 1.22522e-06 0.0003 
0 0 0 1.63201e-14 -5.65377e-20 -2.59486e-302 0 862 927 -1.62002 5.25978e-06 0 1.22522e-06 0.0003 
0 0 0 -3.88834 4.74409 5.67761 0 854 4083 0.249556 -0.124764 0.00185745 2.68313e-07 5.52897e-05 
0 0 0 -0.00642529 0.35929 0.188171 0 854 3686 0.000189343 -0.00289965 -0.00150899 2.74797e-09 5.46879e-07 
0 0 0 -0.276776 0.322844 -0.0110211 0 854 11099 0.0232277 -0.00210218 0.011422 7.17805e-08 1.44101e-05 
0 0 0 -0.641739 1.86876 -2.33963 0 854 9816 0.0632137 -0.0297523 0.0106674 1.38505e-07 2.80462e-05 
0 0 0 -0.111063 0.290342 -0.0301218 0 854 4558 0.0016407 -0.000818446 5.5841e-05 5.39081e-09 1.07319e-06 
0 0 0 0.0688687 0.140735 0.111344 0 854 8604 0.00245643 0.000615865 0.000381471 2.58051e-08 5.15035e-06 
0 0 0 -0.157527 0.894848 0.086551 0 854 13785 0.013039 -0.0065093 -0.000364249 4.98653e-08 9.98267e-06 
0 0 0 0.00325908 -0.00637265 0.0138386 0 854 1389 0.00107215 -3.25507e-05 -0.000535085 1.17611e-08 2.34323e-06 
0 0 0 -0.00322797 -0.0425971 -0.00818606 0 854 2510 0.00119596 0.000132668 0.000583079 1.19822e-08 2.38734e-06 
0 0 0 -0.114629 -0.0718014 0.00153032 0 854 3008 0.00346311 -0.00162968 -0.000588192 1.56568e-08 3.12091e-06 
0 0 0 0.0018693 -0.0115571 -0.0010016 0 854 2873 9.96215e-05 -2.08514e-05 1.49266e-05 2.62648e-09 5.22693e-07 
0 0 0 -0.0159024 0.0596761 -0.0141422 0 854 10704 0.000185778 -0.00076173 -0.00011272 1.50519e-09 2.99505e-07 
0 0 0 -0.00527189 0.110506 -0.0632798 0 854 2514 2.88523e-05 -0.00034949 -0.000253992 1.89056e-10 3.76124e-08 
0 0 0 0.00353103 -0.00179794 0.0209813 0 854 5499 0.000533047 0.000216381 1.21568e-05 7.57723e-09 1.50886e-06 
0 0 0 -0.00406539 -0.00446964 -0.0247948 0 854 5203 9.581e-05 -3.00566e-05 0.000356913 1.68273e-09 3.34838e-07 
0 0 0 0.0292426 -0.0204259 -0.00514632 0 854 6086 0.000162471 7.47079e-05 3.19055e-05 7.13491e-09 1.42071e-06 
0 0 0 -0.00285657 -0.0495911 0.153081 0 854 6771 0.000150744 1.997e-05 -7.26782e-05 2.69923e-09 5.37176e-07 
0 0 0 0.00590245 -0.0053435 -0.000792758 0 854 4354 0.0016684 -0.000208241 0.000243244 1.58959e-08 3.16867e-06 
0 0 0 0.00878398 0.0481421 -0.0669246 0 854 1369 -1.66085e-05 -6.53439e-06 5.12464e-06 1.67039e-09 3.32383e-07 
0 0 0 0.00341142 0.0389995 0.00566752 0 854 9205 0.000328292 -0.000132109 -9.74218e-05 5.61467e-09 1.11778e-06 
0 0 0 0.00375095 0.0637619 0.0436493 0 854 8658 8.03242e-05 -3.88543e-05 -1.01654e-05 2.61108e-09 5.19626e-07 
0 0 0 3.03166e-302 5.73964e-20 -2.21433e-15 0 850 5230 0 5.25978e-06 1.62002 1.22522e-06 0.0003 
0 0 0 -3.77701e-183 -8.49225e-20 -3.53506e-12 0 850 3064 3.10345e-184 5.25978e-06 1.62002 1.22522e-06 0.0003 
0 0 0 4.37125e-302 -9.65306e-21 -1.18146e-12 0 850 478 4.63775e-307 5.25978e-06 1.62002 1.22522e-06 0.0003 
0 0 0 1.02718e-306 8.48981e-20 3.53499e-12 0 850 871 4.28918e-307 5.25978e-06 1.62002 1.22522e-06 0.0003 
0 0 0 -3.78607e-302 8.47851e-20 5.89791e-12 0 850 1962 -6.28059e-307 5.25978e-06 1.62002 1.22522e-06 0.0003 
0 0 0 -5.03849e-71 -6.59e-20 1.1814e-12 0 850 283 7.7535e-72 5.25978e-06 1.62002 1.22522e-06 0.0003 
0 0 0 1.33015e-17 -4.96407e-17 -2.36056e-12 0 850 6540 0.00048722 0.00445274 1.61989 1.22517e-06 0.000299984 
0 0 0 -1.35017e-17 4.99247e-17 -2.36056e-12 0 850 2565 -0.000520944 -0.00475007 1.62015 1.22527e-06 0.000300016 
0 0 0 3.66914e-303 5.65019e-20 3.53506e-12 0 850 2145 -5.19576e-308 5.25978e-06 1.62002 1.22522e-06 0.0003 
0 0 0 -2.35528e-302 5.66969e-20 -2.36053e-12 0 850 5520 9.42733e-308 5.25978e-06 1.62002 1.22522e-06 0.0003 
0 0 0 2.2437e-302 3.77209e-20 4.72345e-12 0 850 7394 3.23865e-307 5.25978e-06 1.62002 1.22522e-06 0.0003 
0 0 0 9.81748e-206 8.49183e-20 5.89792e-12 0 850 2321 -4.69646e-207 5.25978e-06 1.62002 1.22522e-06 0.0003 
0 0 0 3.19771e-302 3.76451e-20 -3.53504e-12 0 850 7581 -3.84411e-308 5.25978e-06 1.62002 1.22522e-06 0.0003 
0 0 0 -2.43102e-18 1.34016e-17 2.94778e-12 0 850 10198 0.00900432 0.000584509 1.62005 1.22523e-06 0.000300004 
0 0 0 -1.67632e-46 3.77232e-20 3.53501e-12 0 850 3089 -6.59781e-47 5.25978e-06 1.62002 1.22522e-06 0.0003 
0 0 0 -2.2148e-110 -9.41314e-21 3.53498e-12 0 850 1269 -4.06333e-112 5.25978e-06 1.62002 1.22522e-06 0.0003 
0 0 0 -1.67582e-17 -1.36661e-17 2.94777e-12 0 850 5323 -0.00893327 -0.000569419 1.61999 1.22521e-06 0.000299996 
0 0 0 2.99121e-105 4.72595e-20 2.3606e-12 0 850 392 -5.88406e-106 5.25978e-06 1.62002 1.22522e-06 0.0003 
0 0 0 -1.5585e-302 -5.65374e-20 -1.18147e-12 0 850 13677 -1.73829e-307 5.25978e-06 1.62002 1.22522e-06 0.0003 
0 0 0 -8.04575e-303 -6.60426e-20 5.89789e-12 0 850 7839 -2.97512e-307 5.25978e-06 1.62002 1.22522e-06 0.0003 
0 0 0 1.50391e-16 -5.17409e-17 -1.18143e-12 0 850 9691 0.0109074 0.00192498 1.61931 1.22494e-06 0.000299912 
0 0 0 -7.56503e-303 -5.66595e-20 -1.18143e-12 0 850 1583 2.3349e-307 5.25978e-06 1.62002 1.22522e-06 0.0003 
0 0 0 -1.7365e-16 5.179e-17 -1.18152e-12 0 850 10506 -0.0125978 -0.00221198 1.62073 1.2255e-06 0.000300088 
0 0 0 2.56054e-302 -7.55172e-20 5.89795e-12 0 850 8195 -5.28681e-307 5.25978e-06 1.62002 1.22522e-06 0.0003 
0 0 0 1.21901e-67 2.80761e-24 -5.89787e-12 0 850 5274 -2.42824e-69 5.25978e-06 1.62002 1.22522e-06 0.0003 
0 0 0 -3.51225e-37 -5.64799e-20 4.72349e-12 0 850 10333 -7.00611e-38 5.25978e-06 1.62002 1.22522e-06 0.0003 
0 0 0 3.5028e-16 2.12703e-17 4.71677e-12 0 850 2130 0.0546258 0.00299803 1.61566 1.22353e-06 0.000299462 
0 0 0 -4.23326e-16 -2.11827e-17 4.71666e-12 0 850 4708 -0.0645874 -0.00353328 1.62438 1.22691e-06 0.000300538 
0 0 0 3.49197e-14 8.4202e-20 -3.12349e-302 0 822 444 1.62002 5.25978e-06 7.89383e-307 1.22522e-06 0.0003 
0 0 0 1.63201e-14 -5.65377e-20 -2.59486e-302 0 821 927 1.62002 5.25978e-06 -8.43645e-308 1.22522e-06 0.0003 
0 0 0 9.08479e-14 -8.48272e-20 -4.0039e-302 0 821 2723 1.62002 5.25978e-06 -5.10644e-307 1.22522e-06 0.0003 
0 0 0 -0.0671425 -0.25776 -0.128349 0 914 13527 3.88102e-06 0.000235945 0.000112248 3.06252e-10 6.09292e-08 
0 0 0 4.37125e-302 -9.65306e-21 -1.18146e-12 0 885 478 -3.72117e-307 5.25978e-06 -1.62002 1.22522e-06 0.0003 
0 0 0 -5.03849e-71 -6.59e-20 1.1814e-12 0 885 283 7.7535e-72 5.25978e-06 -1.62002 1.22522e-06 0.0003 
0 0 0 1.33015e-17 -4.96407e-17 -2.36056e-12 0 885 6540 0.000520944 0.00476059 -1.62015 1.22527e-06 0.000300016 
0 0 0 -2.35528e-302 5.66969e-20 -2.36053e-12 0 885 5520 0 5.25978e-06 -1.62002 1.22522e-06 0.0003 
0 0 0 9.81748e-206 8.49183e-20 5.89792e-12 0 885 2321 -4.69646e-207 5.25978e-06 -1.62002 1.22522e-06 0.0003 
0 0 0 3.19771e-302 3.76451e-20 -3.53504e-12 0 885 7581 1.30056e-307 5.25978e-06 -1.62002 1.22522e-06 0.0003 
0 0 0 -2.43102e-18 1.34016e-17 2.94778e-12 0 885 10198 0.00893327 0.000579938 -1.61999 1.22521e-06 0.000299996 
0 0 0 -1.67582e-17 -1.36661e-17 2.94777e-12 0 885 5323 -0.00900432 -0.000573989 -1.62005 1.22523e-06 0.000300004 
0 0 0 2.99121e-105 4.72595e-20 2.3606e-12 0 885 392 -5.88406e-106 5.25978e-06 -1.62002 1.22522e-06 0.0003 
0 0 0 -1.5585e-302 -5.65374e-20 -1.18147e-12 0 885 13677 7.90781e-308 5.25978e-06 -1.62002 1.22522e-06 0.0003 
0 0 0 1.50391e-16 -5.17409e-17 -1.18143e-12 0 885 9691 0.0125978 0.0022225 -1.62073 1.2255e-06 0.000300088 
0 0 0 -7.56503e-303 -5.66595e-20 -1.18143e-12 0 885 1583 -3.2524e-307 5.25978e-06 -1.62002 1.22522e-06 0.0003 
0 0 0 -1.7365e-16 5.179e-17 -1.18152e-12 0 885 10506 -0.0109074 -0.00191446 -1.61931 1.22494e-06 0.000299912 
0 0 0 2.56054e-302 -7.55172e-20 5.89795e-12 0 885 8195 6.23438e-307 5.25978e-06 -1.62002 1.22522e-06 0.0003 
0 0 0 -3.51225e-37 -5.64799e-20 4.72349e-12 0 885 10333 -7.00611e-38 5.25978e-06 -1.62002 1.22522e-06 0.0003 
0 0 0 0.0116312 -0.000865306 0.00656491 0 853 9245 -0.000368382 -0.0013698 2.1713e-05 1.35442e-08 2.69909e-06 
0 0 0 0.000136739 -0.00300534 -0.0891378 0 853 2014 -6.21585e-05 -0.000545462 0.000265553 7.62787e-09 1.51896e-06 
0 0 0 0.0105574 0.00931928 -0.0410811 0 853 9298 1.11182e-05 -0.00115999 0.000109147 1.1133e-08 2.2179e-06 
0 0 0 0.136877 -0.00356539 -0.021571 0 853 3255 -0.00252857 -0.0021707 0.000746386 1.86021e-08 3.70937e-06 
0 0 0 -0.00469591 -0.0120068 -0.00642157 0 853 5055 -0.000577765 -0.00164972 3.48125e-05 1.63489e-08 3.25915e-06 
0 0 0 0.0374996 0.00827003 0.0169897 0 853 2485 -0.000177626 -0.00193951 0.000313836 1.62191e-08 3.23323e-06 
0 0 0 -0.0110844 0.00674088 0.0166523 0 853 5823 0.000666269 -0.000269473 0.000156227 3.71126e-09 7.38673e-07 
0 0 0 -0.01188 0.000638064 0.0229731 0 853 6262 -0.000709283 -0.000382562 -0.000598816 5.68129e-09 1.13106e-06 
0 0 0 0.100487 -0.0112708 -0.00181583 0 853 916 -5.68377e-05 -0.00018479 7.28443e-05 5.04693e-09 1.00469e-06 
0 0 0 0.0262794 -0.0162737 -0.0143372 0 853 4014 -0.000661062 -0.00206101 0.000461724 1.91206e-08 3.813e-06 
0 0 0 0.107315 0.015119 -0.060493 0 853 1292 -0.000246743 -0.0025273 -7.98767e-07 1.89268e-08 3.77426e-06 
0 0 0 0.0277914 -0.00349094 0.0405187 0 853 8689 -3.35092e-05 -0.000318374 -9.33269e-05 5.52136e-09 1.09919e-06 
0 0 0 0.128874 0.0619799 0.0454825 0 853 5612 -0.000304624 -0.000900168 -0.000331331 4.06754e-09 8.0962e-07 
0 0 0 0.102104 -0.000803071 0.0983606 0 853 882 9.29616e-06 -0.00032773 -0.000163601 5.29113e-09 1.05333e-06 
0 0 0 0.162159 0.00621964 -0.0131119 0 853 6685 8.74241e-05 -0.0009215 -0.000117733 9.70197e-09 1.93248e-06 
0 0 0 0.0944488 0.0308824 0.0803517 0 853 2820 -0.000200577 -0.000452714 0.000104912 2.9807e-09 5.9321e-07 
0 0 0 0.116377 -0.0972311 -0.014149 0 853 7268 -0.000461637 -0.00479062 -0.00172373 3.84508e-08 7.68647e-06 
0 0 0 0.0713414 -0.0866769 0.0837334 0 853 9458 0.00129574 -0.0115904 -0.00139002 6.13495e-08 1.22996e-05 
0 0 0 -0.00113356 0.00446938 0.0852676 0 853 4704 3.96915e-05 -0.00033931 -0.000164947 4.77359e-09 9.50239e-07 
0 0 0 -0.0212577 0.0963603 0.114665 0 853 12386 6.17143e-05 -0.00225429 -0.00112545 1.04071e-08 2.07312e-06 
0 0 0 -0.0226632 -0.0268044 0.129981 0 853 9020 0.000169135 -0.00058161 -0.000485338 1.05594e-08 2.10349e-06 
0 0 0 -0.0101595 0.012376 -0.0664233 0 852 8859 -7.0083e-06 -0.000196938 9.82192e-05 2.08375e-09 4.14656e-07 
0 0 0 0.0169753 0.0109509 0.0421856 0 852 6811 -4.95985e-05 -0.000132515 -0.000223728 1.33239e-09 2.65114e-07 
0 0 0 0.0142573 0.0678953 0.0144438 0 852 1853 -2.85514e-05 -0.00082136 0.00141454 2.95578e-09 5.8825e-07 
0 0 0 -0.0486862 0.028501 0.189165 0 852 11588 -8.10722e-06 -0.00182787 -0.0009139 1.37124e-08 2.73266e-06 
0 0 0 -0.0278715 -0.00975162 -0.00821009 0 852 2265 2.09801e-05 -1.03911e-05 -2.35505e-05 2.40527e-09 4.78657e-07 
0 0 0 0.0819004 -0.0115313 -0.134386 0 852 1278 -0.000147055 -0.000787742 0.000294005 1.05257e-08 2.09676e-06 
0 0 0 -0.0499623 -0.0559429 0.0984891 0 852 9710 -0.000118004 -0.00075039 0.000194089 1.48694e-08 2.96366e-06 
0 0 0 0.117436 -0.0144244 -0.148223 0 852 3912 -0.000201186 -0.000627187 -7.83351e-05 9.57577e-09 1.90731e-06 
0 0 0 -0.0102489 -0.0189621 -0.0248011 0 852 2343 2.53247e-05 -0.00100405 2.15007e-05 1.28585e-08 2.56223e-06 
0 0 0 0.0207408 -0.0400991 -0.0320431 0 852 8390 8.80578e-06 0.000180143 8.96402e-05 4.53352e-09 9.02423e-07 
0 0 0 -0.0834186 -0.0615208 0.0943903 0 852 772 0.000100148 8.94887e-05 -0.000205418 8.7747e-09 1.74758e-06 
0 0 0 0.113703 -0.012778 -0.181486 0 852 7726 -0.000498883 -0.000180766 0.00206465 5.19941e-09 1.03506e-06 
0 0 0 0.0220491 -0.0269364 0.060781 0 852 12849 -2.39415e-05 5.21096e-05 -1.0279e-05 4.26521e-09 8.48987e-07 
0 0 0 -0.206392 0.0843476 0.158757 0 852 7715 0.00189329 -0.00378658 -3.47967e-07 1.96961e-08 3.92806e-06 
0 0 0 0.102489 0.00404891 -0.0478385 0 852 10236 0.000148515 -0.00168899 0.000385423 1.51003e-08 3.00977e-06 
0 0 0 0.160001 -0.0166147 -0.0106307 0 852 7252 -7.65954e-07 -4.58977e-05 -2.29361e-05 4.05646e-09 8.07415e-07 
0 0 0 0.161684 0.0142464 -0.0274786 0 852 4784 -0.000555434 -0.00453153 -0.000438078 2.87117e-08 5.73254e-06 
0 0 0 0.273947 -0.00893207 0.0206756 0 852 7904 0.000200371 -0.000127006 -0.000459555 4.0273e-09 8.01608e-07 
0 0 0 0.0556395 -0.0142374 0.0286536 0 852 2351 0.00027736 5.52455e-06 -0.000532806 2.89722e-09 5.76591e-07 
0 0 0 0.0378285 -0.0143537 -0.0286135 0 852 7277 -0.000143707 7.57531e-05 -0.000232812 1.31663e-09 2.61977e-07 
0 0 0 0.0933111 -0.0789213 0.197881 0 852 1893 -0.000282266 -0.00114128 -0.00015002 1.96133e-08 3.9115e-06 
0 0 0 0.0998212 -0.0119769 0.0193386 0 852 9506 1.19089e-05 -0.000343829 -8.50841e-06 6.80525e-09 1.35501e-06 
0 0 0 0.0620562 -0.0357898 0.175202 0 852 6018 1.37449e-05 0.000171305 3.23515e-05 3.90077e-09 7.7641e-07 
0 0 0 0.0695691 0.00821501 0.11217 0 852 2209 0.00058585 -0.00721103 -0.0035576 4.00048e-08 7.99868e-06 
0 0 0 0.156607 -0.00786928 0.086356 0 852 2831 -8.81315e-05 -0.000176475 4.32773e-06 4.49764e-09 8.95278e-07 
0 0 0 0.0715702 0.0104775 0.0650653 0 852 8268 8.89858e-05 -0.00213554 -0.000455236 1.71572e-08 3.42064e-06 
0 0 0 0.193779 -0.0717702 0.0117646 0 852 497 7.84104e-05 -0.00072056 0.000124761 1.62835e-08 3.24609e-06 
0 0 0 0.0918514 0.00436462 0.103233 0 852 5337 -0.000321706 -7.10245e-05 -0.000236955 1.19473e-09 2.3772e-07 