ITEM: TIMESTEP
12200000
ITEM: NUMBER OF ENTRIES
3142
ITEM: BOX BOUNDS ff ff ff
-0.01 0.45
-0.15 0.15
-0.08 0.1
ITEM: ENTRIES c_pwc[1] c_pwc[2] c_pwc[3] c_pwc[4] c_pwc[5] c_pwc[6] c_pwc[7] c_pwc[8] c_pwc[9] c_pwc[10] c_pwc[11] c_pwc[12] c_pwc[13] c_pwc[14] 
0 0 0 -1.21807e-06 -3.04023e-08 1.15945e-06 0 776 7649 2.45327e-08 9.09541e-06 -9.98807e-08 4.76315e-10 9.47654e-08 
0 0 0 4.02929e-08 -5.0774e-08 4.86799e-07 0 776 7937 -2.98076e-08 1.33386e-05 1.03434e-06 6.14813e-10 1.22323e-07 
0 0 0 9.10925e-07 -7.8121e-08 4.91237e-07 0 776 5540 -5.08881e-09 1.08028e-05 4.13132e-06 5.34186e-10 1.0628e-07 
0 0 0 -7.88333e-07 -2.50763e-08 2.34115e-07 0 776 1200 -9.14021e-09 1.04846e-05 4.37782e-06 5.23657e-10 1.04185e-07 
0 0 0 -1.35976e-07 -6.33452e-08 4.531e-07 0 776 1871 1.86967e-06 1.0434e-05 3.99665e-06 5.21962e-10 1.03848e-07 
0 0 0 -7.43418e-07 -4.04275e-08 1.3735e-07 0 776 1972 -1.98139e-09 1.39591e-05 5.57262e-06 6.33736e-10 1.26088e-07 
0 0 0 -2.08009e-07 1.48453e-08 2.52532e-07 0 776 733 -4.72011e-07 4.03703e-06 1.34023e-06 2.77168e-10 5.51427e-08 
0 0 0 -2.09401e-06 2.09213e-07 -2.43219e-07 0 776 10595 2.4169e-08 1.08619e-05 -9.12525e-07 5.36195e-10 1.0668e-07 
0 0 0 4.65266e-05 -8.16719e-08 -7.88205e-07 0 776 894 -4.31414e-09 1.07651e-05 -3.15568e-07 5.32943e-10 1.06033e-07 
0 0 0 6.96641e-06 1.30564e-07 -1.64911e-07 0 776 9680 -1.07914e-09 1.05987e-05 4.91656e-08 5.27483e-10 1.04946e-07 
0 0 0 -9.67649e-08 2.27761e-08 7.45405e-07 0 776 414 3.91186e-09 1.05991e-05 1.88329e-07 5.27472e-10 1.04944e-07 
0 0 0 -6.984e-07 -1.23511e-07 9.17504e-07 0 776 206 4.62844e-06 1.25843e-05 2.67516e-06 5.91398e-10 1.17664e-07 
0 0 0 7.19576e-06 6.85793e-12 -2.04216e-05 0 776 1894 7.61198e-22 1.05196e-05 1.48332e-21 5.24825e-10 1.04417e-07 
0 0 0 -4.42081e-06 3.22524e-07 7.55595e-06 0 776 210 8.97449e-07 1.25893e-05 4.84524e-07 5.91647e-10 1.17713e-07 
0 0 0 -0.000141203 3.54032e-07 -4.86988e-06 0 776 4413 3.45189e-07 1.14663e-05 -8.76943e-07 5.55933e-10 1.10607e-07 
0 0 0 -7.85959e-06 -6.16083e-07 3.0801e-06 0 776 9977 9.90021e-09 1.04279e-05 -2.81142e-07 5.21637e-10 1.03783e-07 
0 0 0 3.98109e-05 2.14795e-07 3.09483e-06 0 776 1225 -3.95871e-08 1.06433e-05 -2.69844e-07 5.2898e-10 1.05244e-07 
0 0 0 -7.61649e-05 4.60492e-07 2.67184e-06 0 776 3512 -1.25468e-08 1.05749e-05 -8.21472e-08 5.26763e-10 1.04803e-07 
0 0 0 -3.09743e-06 -3.54375e-07 2.64276e-06 0 776 690 3.73714e-08 1.05448e-05 7.89481e-09 5.25589e-10 1.04569e-07 
0 0 0 1.18666e-06 3.20563e-07 -2.0896e-06 0 776 280 5.0475e-08 3.06266e-06 -5.40168e-08 2.30635e-10 4.58846e-08 
0 0 0 -3.06625e-06 -6.83853e-12 1.23986e-06 0 776 2352 1.96163e-22 1.05196e-05 -1.46251e-22 5.24825e-10 1.04417e-07 
0 0 0 -0.000146326 1.16262e-07 8.24616e-07 0 776 5611 1.78391e-07 1.06686e-05 -2.89349e-07 5.29796e-10 1.05406e-07 
0 0 0 -0.000171564 2.44813e-07 4.28816e-08 0 776 9269 -2.48597e-09 1.07267e-05 -2.69644e-08 5.31742e-10 1.05794e-07 
0 0 0 2.60572e-05 -1.94911e-07 2.46154e-06 0 776 6408 -1.87503e-08 1.04052e-05 3.81774e-08 5.20971e-10 1.03651e-07 
0 0 0 1.53724e-05 -3.48266e-07 2.05136e-07 0 776 101 -1.28276e-08 1.06081e-05 5.87639e-09 5.27691e-10 1.04988e-07 
0 0 0 1.77244e-07 -3.47722e-07 -8.99113e-07 0 776 317 2.38169e-08 1.07138e-05 3.35484e-07 5.3119e-10 1.05684e-07 
0 0 0 2.26203e-06 5.50041e-08 -2.96853e-06 0 776 1705 -3.00264e-06 1.42252e-05 -1.45257e-06 6.41786e-10 1.27689e-07 
0 0 0 2.69817e-06 7.17367e-07 -1.91084e-05 0 776 2116 -4.48735e-07 1.10775e-05 3.23548e-07 5.43373e-10 1.08108e-07 
0 0 0 -0.000160154 -4.63933e-08 2.16442e-05 0 776 8455 1.71389e-07 1.09579e-05 5.17174e-08 5.39294e-10 1.07296e-07 
0 0 0 -8.04313e-06 7.99798e-08 2.09796e-06 0 776 11208 -1.33608e-08 1.05018e-05 4.91819e-07 5.24251e-10 1.04303e-07 
0 0 0 -0.000129 -2.53143e-06 -8.76845e-06 0 776 553 -2.41024e-08 1.0001e-05 2.68885e-11 5.06881e-10 1.00847e-07 
0 0 0 1.53425e-05 8.97099e-07 -1.60071e-06 0 776 585 -3.89317e-09 1.06032e-05 -4.38736e-07 5.27796e-10 1.05009e-07 
0 0 0 0.0001518 2.99023e-07 -2.76259e-06 0 776 2069 -2.09218e-08 1.09531e-05 7.44744e-08 5.39209e-10 1.07279e-07 
0 0 0 3.89342e-06 -9.04487e-07 -6.65213e-06 0 776 531 -2.28213e-06 9.41972e-06 8.4088e-07 4.87378e-10 9.69666e-08 
0 0 0 -0.00270836 -5.71059e-12 0.00162327 0 776 10613 -7.25672e-20 1.05196e-05 -7.69041e-20 5.24825e-10 1.04417e-07 
0 0 0 -0.000241553 1.1473e-06 0.000332043 0 776 6702 -3.32639e-08 1.04707e-05 -9.72152e-08 5.23445e-10 1.04143e-07 
0 0 0 -8.46534e-05 -2.15943e-07 0.000271877 0 776 1002 -4.9579e-08 1.0575e-05 -9.20532e-08 5.2662e-10 1.04775e-07 
0 0 0 -9.1138e-05 -4.83329e-12 0.000259304 0 776 1470 5.43445e-20 1.05196e-05 -1.59016e-19 5.24825e-10 1.04417e-07 
0 0 0 -8.9127e-06 -5.97103e-10 0.00029915 0 776 154 8.44833e-17 1.05196e-05 -1.54244e-16 5.24825e-10 1.04417e-07 
0 0 0 2.76484e-06 -5.20559e-07 -5.56708e-06 0 776 1045 -4.74355e-06 1.17088e-05 -2.68898e-06 5.63556e-10 1.12124e-07 
0 0 0 -0.00184032 -2.56608e-07 0.00166402 0 776 12304 6.29564e-08 1.08314e-05 -4.17785e-07 5.35089e-10 1.0646e-07 
0 0 0 0.000825516 -5.71905e-07 0.00232828 0 776 4634 3.2983e-08 1.06032e-05 -1.03569e-07 5.27478e-10 1.04945e-07 
0 0 0 0.000200636 5.21401e-08 -0.000291225 0 776 4165 -1.807e-08 1.05473e-05 -2.35956e-08 5.25758e-10 1.04603e-07 
0 0 0 0.000197959 -1.03768e-12 -0.000318098 0 776 1920 -1.87203e-20 1.05196e-05 3.74373e-20 5.24825e-10 1.04417e-07 
0 0 0 0.000243509 4.4521e-10 -0.000419392 0 776 3087 2.88674e-17 1.05196e-05 -5.39582e-17 5.24825e-10 1.04417e-07 
0 0 0 -0.00198316 6.6968e-12 0.00374493 0 776 12917 3.02147e-19 1.05196e-05 4.99854e-19 5.24825e-10 1.04417e-07 
0 0 0 -0.00176972 -2.75174e-07 0.00158325 0 776 1063 1.90714e-08 1.04391e-05 -3.03001e-09 5.22085e-10 1.03872e-07 
0 0 0 -0.000390962 5.08545e-12 0.00337654 0 776 72 1.01569e-20 1.05196e-05 -1.6679e-19 5.24825e-10 1.04417e-07 
0 0 0 0.00284385 5.72999e-12 0.000167367 0 776 4185 -1.03008e-20 1.05196e-05 -1.88842e-20 5.24825e-10 1.04417e-07 
0 0 0 -3.19472e-06 3.67659e-08 6.1446e-06 0 776 4938 1.68819e-08 1.0539e-05 -5.677e-09 5.25479e-10 1.04547e-07 
0 0 0 -0.000118364 2.51403e-13 -4.68482e-05 0 776 18 1.88006e-20 1.05196e-05 4.67938e-21 5.24825e-10 1.04417e-07 
0 0 0 -5.78753e-07 5.68422e-07 -5.46392e-06 0 776 4248 -1.92583e-06 1.30603e-05 1.0451e-06 6.06363e-10 1.20641e-07 
0 0 0 -0.0017699 5.48286e-08 0.00158682 0 776 10360 1.27806e-09 1.04985e-05 -2.83018e-09 5.24136e-10 1.0428e-07 
0 0 0 -0.000854927 -4.42102e-07 0.000901951 0 776 9715 2.80837e-10 1.06e-05 -1.9354e-08 5.274e-10 1.0493e-07 
0 0 0 -4.39254e-06 -8.11915e-07 -1.21753e-06 0 776 4095 2.46281e-08 1.05414e-05 6.02292e-08 5.25373e-10 1.04527e-07 
0 0 0 -3.13742e-06 -2.65135e-07 -1.97222e-06 0 776 1367 1.33884e-08 1.06127e-05 1.45048e-07 5.27861e-10 1.05021e-07 
0 0 0 2.2143e-05 7.53476e-07 3.03452e-06 0 776 1036 -1.0013e-07 1.07719e-05 4.87654e-07 5.33348e-10 1.06113e-07 
0 0 0 2.24526e-06 -1.16739e-06 1.41911e-06 0 776 6544 -1.86744e-07 1.08e-05 8.53625e-07 5.3386e-10 1.06215e-07 
0 0 0 -0.00163826 -6.03286e-12 0.00290185 0 776 12116 1.04233e-19 1.05196e-05 2.99527e-19 5.24825e-10 1.04417e-07 
0 0 0 -0.000958954 1.00691e-11 0.00100996 0 776 12691 -2.87096e-18 1.05196e-05 3.05111e-18 5.24825e-10 1.04417e-07 
0 0 0 2.31775e-06 -2.8781e-06 3.50768e-05 0 776 8603 1.64612e-07 1.06769e-05 -4.59845e-08 5.29424e-10 1.05332e-07 
0 0 0 -7.76745e-06 2.49089e-07 -2.12137e-05 0 776 9639 1.61192e-07 1.06143e-05 -5.12212e-08 5.28025e-10 1.05054e-07 
0 0 0 -0.000135378 4.12538e-13 -6.48876e-05 0 776 7185 -1.87188e-20 1.05196e-05 -9.35987e-21 5.24825e-10 1.04417e-07 
0 0 0 -6.15671e-06 -1.02063e-06 -9.92182e-06 0 776 4532 1.17393e-06 1.26636e-05 3.01797e-07 5.9369e-10 1.18119e-07 
0 0 0 0.000372145 5.08545e-12 0.00180613 0 776 14724 1.30402e-20 1.05196e-05 -3.00837e-19 5.24825e-10 1.04417e-07 
0 0 0 -3.6371e-05 3.97094e-06 -1.25471e-05 0 776 9279 -4.95183e-07 9.89694e-06 2.8447e-06 5.04776e-10 1.00428e-07 
0 0 0 1.05291e-06 3.37973e-06 -6.61191e-07 0 776 3983 -1.32948e-07 1.02166e-05 1.98936e-06 5.15436e-10 1.02549e-07 
0 0 0 1.14282e-05 1.52416e-06 3.4961e-06 0 776 3427 4.47827e-07 8.81524e-06 -4.41575e-07 4.66829e-10 9.28781e-08 
0 0 0 3.42027e-07 5.10691e-08 1.25136e-07 0 776 1118 8.08014e-07 1.34749e-05 1.42185e-06 6.19015e-10 1.23159e-07 
0 0 0 2.54862e-05 1.75079e-06 2.27195e-06 0 776 10496 -3.24835e-07 1.2989e-05 9.01594e-07 6.044e-10 1.20251e-07 
0 0 0 1.50123e-05 -1.26686e-06 6.53062e-06 0 776 7286 -2.90868e-07 1.14856e-05 1.90141e-06 5.56211e-10 1.10662e-07 
0 0 0 -7.1818e-07 -3.78482e-07 -1.73012e-06 0 776 7431 2.61762e-06 1.08357e-05 4.11085e-07 5.35205e-10 1.06483e-07 
0 0 0 2.99778e-06 -5.15877e-08 3.94598e-06 0 776 1366 -1.95877e-07 1.31389e-05 1.61171e-06 6.08662e-10 1.21099e-07 
0 0 0 1.81522e-07 -1.07536e-06 -1.0402e-06 0 776 10907 -7.34636e-07 1.04323e-05 2.18309e-06 5.21685e-10 1.03793e-07 
0 0 0 -0.00025148 -1.80738e-07 -5.75544e-05 0 776 7764 3.10094e-07 1.00044e-05 -1.20148e-06 5.0751e-10 1.00972e-07 
0 0 0 -0.000185649 2.14221e-07 -4.17121e-05 0 776 9160 1.19485e-07 1.17323e-05 -5.04962e-07 5.64467e-10 1.12305e-07 
0 0 0 -1.42282e-05 -2.73516e-07 -3.34741e-06 0 776 5560 -5.17291e-07 8.44158e-06 2.05926e-06 4.53152e-10 9.01567e-08 
0 0 0 2.67139e-06 -3.74506e-07 1.00872e-06 0 776 215 4.14389e-06 1.30083e-05 3.25253e-06 6.04556e-10 1.20282e-07 
0 0 0 1.21783e-06 -1.69374e-07 -1.494e-06 0 776 1887 7.94857e-08 1.13719e-05 5.10052e-06 5.52767e-10 1.09977e-07 
0 0 0 -1.20931e-06 -6.62359e-07 1.95314e-06 0 776 4164 -2.57008e-07 9.61807e-06 1.92566e-06 4.94252e-10 9.83343e-08 
0 0 0 -6.2311e-05 -9.14275e-07 -1.28069e-05 0 776 5953 -8.48837e-07 1.0801e-05 3.88102e-06 5.33947e-10 1.06233e-07 
0 0 0 0.00011064 -3.13243e-12 3.43663e-05 0 776 7893 -3.88895e-21 1.05196e-05 4.72084e-21 5.24825e-10 1.04417e-07 
0 0 0 0.000166927 -2.41548e-11 -3.1332e-06 0 776 11531 -1.15787e-18 1.05196e-05 2.1741e-20 5.24825e-10 1.04417e-07 
0 0 0 3.82215e-06 3.60739e-06 -1.3745e-05 0 776 12872 1.51476e-06 6.81985e-06 1.20839e-06 3.93972e-10 7.83821e-08 
0 0 0 -3.35771e-06 1.71864e-07 1.14907e-06 0 776 11571 2.32804e-06 1.08893e-05 -1.03505e-07 5.37087e-10 1.06857e-07 
0 0 0 6.19071e-05 3.84695e-09 0.000181663 0 776 14434 6.58235e-17 1.05196e-05 1.93914e-16 5.24826e-10 1.04418e-07 
0 0 0 1.70109e-05 4.30326e-06 -8.92084e-05 0 776 634 -1.90978e-08 1.04375e-05 3.92267e-08 5.23025e-10 1.04059e-07 
0 0 0 3.63431e-05 -5.88431e-06 1.49727e-06 0 776 7313 2.00227e-07 1.05672e-05 -1.03814e-08 5.25134e-10 1.04479e-07 
0 0 0 1.55792e-06 5.81257e-06 -7.3496e-06 0 776 5950 2.53914e-06 1.18409e-05 -1.29986e-06 5.69131e-10 1.13233e-07 
0 0 0 -6.69172e-07 -1.50826e-07 1.97278e-06 0 776 7844 -2.02872e-07 1.05206e-05 -1.19858e-07 5.24826e-10 1.04418e-07 
0 0 0 0.000270215 3.57635e-08 9.69433e-06 0 776 5167 2.03223e-15 1.05188e-05 2.78308e-15 5.24807e-10 1.04414e-07 
0 0 0 -0.000204233 2.14162e-06 -5.31033e-05 0 776 10156 -6.97506e-07 1.13506e-05 3.84863e-06 5.52568e-10 1.09937e-07 
0 0 0 -9.71917e-06 -3.63572e-06 -6.12096e-06 0 776 9271 -1.24443e-06 1.0361e-05 4.68097e-06 5.18751e-10 1.03209e-07 
0 0 0 2.00767e-05 -6.6589e-07 9.15315e-06 0 776 3509 5.29668e-07 5.82172e-06 1.99715e-06 3.53615e-10 7.03526e-08 
0 0 0 7.71572e-06 1.22146e-06 -7.69756e-06 0 776 4298 -2.62579e-06 8.92829e-06 -1.09308e-06 4.70741e-10 9.36564e-08 
0 0 0 7.12915e-05 -1.29345e-05 -1.50216e-05 0 776 14186 -1.04802e-06 1.0606e-05 2.87173e-06 5.249e-10 1.04432e-07 
0 0 0 -0.000284835 1.94727e-07 0.00158747 0 776 7053 -1.52901e-14 1.0522e-05 8.5162e-14 5.24948e-10 1.04442e-07 
0 0 0 -0.00208993 4.28758e-12 0.00150556 0 776 209 2.99526e-19 1.05196e-05 -1.51068e-19 5.24825e-10 1.04417e-07 
0 0 0 -7.08546e-05 2.46467e-06 7.63466e-05 0 776 8382 -2.39886e-08 1.14052e-05 9.54972e-08 5.54408e-10 1.10304e-07 
0 0 0 -4.57322e-05 -8.20286e-07 6.47199e-05 0 776 2799 -1.3503e-06 9.77694e-06 -1.2592e-06 4.99646e-10 9.94077e-08 
0 0 0 -5.8037e-05 3.39856e-06 7.67839e-05 0 776 7390 -5.44838e-07 1.27385e-05 -5.04315e-07 5.96957e-10 1.1877e-07 
0 0 0 -0.00141615 2.77563e-07 0.00100678 0 776 13004 2.36183e-13 1.05136e-05 4.39117e-13 5.24687e-10 1.0439e-07 
0 0 0 4.2305e-05 -1.29226e-09 -0.000145563 0 776 7800 1.54315e-14 1.05194e-05 -1.09957e-14 5.24817e-10 1.04416e-07 
0 0 0 -3.50004e-05 2.1789e-06 4.57035e-05 0 776 9721 1.05621e-06 1.09972e-05 8.94894e-07 5.41062e-10 1.07648e-07 
0 0 0 -0.00358534 -6.0488e-08 0.00266141 0 776 3286 1.36759e-08 1.05354e-05 1.56491e-08 5.25337e-10 1.04519e-07 
0 0 0 -0.00282208 -2.54683e-07 0.00190107 0 776 1306 2.88388e-08 1.05305e-05 3.04749e-08 5.25133e-10 1.04479e-07 
0 0 0 -8.61992e-05 -1.84908e-07 -5.02791e-05 0 776 9809 2.91991e-12 1.05249e-05 3.17698e-12 5.24963e-10 1.04445e-07 
0 0 0 -4.85171e-05 -1.04625e-07 0.000104367 0 776 5373 6.73191e-14 1.05206e-05 8.14684e-14 5.24836e-10 1.0442e-07 
0 0 0 3.4645e-05 -1.51509e-05 -1.94142e-05 0 776 163 -1.52014e-06 9.74117e-06 2.56036e-06 4.95285e-10 9.85399e-08 
0 0 0 -0.000332875 5.4974e-06 -0.000225663 0 776 7072 3.84719e-08 1.09184e-05 3.30163e-07 5.39188e-10 1.07275e-07 
0 0 0 -0.0003463 1.83092e-06 -0.000211094 0 776 3631 -3.47439e-07 1.13028e-05 1.38938e-06 5.50952e-10 1.09616e-07 
0 0 0 3.43693e-05 -1.56026e-05 -9.28921e-05 0 776 7750 -1.18304e-06 1.37121e-05 2.86161e-06 6.23017e-10 1.23955e-07 
0 0 0 -0.00290361 -1.75462e-12 -0.000113945 0 776 7121 -6.65377e-20 1.05196e-05 -9.15189e-21 5.24825e-10 1.04417e-07 
0 0 0 -0.000260557 -1.09714e-05 -0.000189576 0 776 7763 2.2676e-07 1.04831e-05 2.82553e-07 5.21236e-10 1.03703e-07 
0 0 0 1.00508e-05 -6.04608e-12 -0.000152157 0 776 7846 1.16989e-21 1.05196e-05 -1.65858e-20 5.24825e-10 1.04417e-07 
0 0 0 0.000269636 6.54778e-12 -6.06077e-05 0 776 9654 3.54245e-20 1.05196e-05 -9.12279e-21 5.24825e-10 1.04417e-07 
0 0 0 4.15586e-05 -1.88391e-05 -7.63553e-05 0 776 6920 1.5112e-06 1.17974e-05 2.35854e-06 5.62506e-10 1.11915e-07 
0 0 0 0.000346175 1.0363e-05 0.000192449 0 776 7804 -1.61368e-07 1.1148e-05 -4.06886e-07 5.47744e-10 1.08978e-07 
0 0 0 3.30209e-05 -2.44524e-06 -0.000519813 0 776 4357 4.60427e-07 1.09112e-05 6.42875e-07 5.37244e-10 1.06888e-07 
0 0 0 -6.42986e-05 7.19955e-06 -0.00046608 0 776 7583 5.80119e-07 1.09816e-05 1.37714e-06 5.41627e-10 1.07761e-07 
0 0 0 1.80763e-05 -4.05362e-05 0.000272817 0 776 2843 -1.35402e-07 1.09052e-05 1.63595e-08 5.28854e-10 1.05219e-07 
0 0 0 0.000583034 1.8591e-10 0.000262029 0 776 9156 2.96592e-17 1.05196e-05 1.33289e-17 5.24825e-10 1.04417e-07 
0 0 0 -0.000100538 2.13318e-05 -0.000377101 0 776 6792 -1.12e-07 9.39585e-06 1.5029e-07 4.91457e-10 9.77783e-08 
0 0 0 0.000282942 -6.64366e-06 0.000527174 0 776 1969 1.72691e-07 1.07215e-05 -3.79849e-07 5.30085e-10 1.05464e-07 
0 0 0 -0.000226403 3.95775e-05 -0.000340681 0 776 1352 2.62339e-06 1.25198e-05 2.25638e-06 5.97722e-10 1.18922e-07 
0 0 0 0.000616879 -5.47714e-05 0.000175012 0 776 221 -6.96755e-07 1.13712e-05 1.0857e-06 5.41079e-10 1.07652e-07 
0 0 0 -0.000255125 9.69228e-06 9.81101e-05 0 776 3055 1.25318e-06 1.12314e-05 2.01285e-07 5.50315e-10 1.09489e-07 
0 0 0 -0.000964161 -6.91729e-05 -0.00115181 0 776 570 6.6449e-09 1.05699e-05 -9.64365e-10 5.11538e-10 1.01774e-07 
0 0 0 -0.000124638 2.90909e-05 0.000177008 0 776 6387 3.31178e-06 6.7757e-06 4.86151e-07 3.9821e-10 7.92252e-08 
0 0 0 0.000375833 -1.41828e-05 0.000453647 0 776 6055 2.41252e-07 1.10675e-05 -2.96585e-07 5.3985e-10 1.07407e-07 
0 0 0 0.000342958 -4.12883e-05 0.000308974 0 776 4008 -4.67546e-08 9.47939e-06 5.72077e-08 4.80541e-10 9.56064e-08 
0 0 0 0.000107407 2.37568e-05 -0.00102852 0 776 8814 -2.91077e-08 9.55169e-06 1.82008e-07 4.97345e-10 9.89498e-08 
0 0 0 0.000167532 0.00019888 -9.68237e-05 0 776 8325 -3.85949e-06 1.20194e-05 2.91911e-06 6.15677e-10 1.22494e-07 
0 0 0 -9.25588e-05 -3.54049e-05 -0.000818507 0 776 8088 -5.11768e-07 1.52628e-05 2.90969e-06 6.65411e-10 1.3239e-07 
0 0 0 0.000801926 5.40772e-12 -0.00219337 0 776 5213 -3.51138e-20 1.05196e-05 3.02159e-19 5.24825e-10 1.04417e-07 
0 0 0 -0.00552836 1.1332e-11 -0.00631648 0 776 2925 -1.84146e-17 1.05196e-05 -2.10498e-17 5.24825e-10 1.04417e-07 
0 0 0 -0.00235112 -1.59132e-07 -0.00186049 0 776 7454 -9.58736e-11 1.05176e-05 1.09567e-10 5.24724e-10 1.04397e-07 
0 0 0 -0.00521597 -3.29068e-06 -0.00458806 0 776 1376 -1.81954e-10 1.05474e-05 2.09894e-10 5.25037e-10 1.0446e-07 
0 0 0 -0.00185373 -0.000218453 -0.00252921 0 776 6636 -3.23028e-06 1.31239e-05 5.71176e-06 5.62655e-10 1.11945e-07 
0 0 0 5.63891e-05 -0.0010032 -0.000816275 0 776 3905 4.02881e-07 6.06147e-06 3.00384e-06 1.36675e-10 2.71911e-08 
0 0 0 -0.00267779 5.93941e-06 -0.00262073 0 776 7120 -6.44432e-11 1.05113e-05 6.92316e-11 5.25834e-10 1.04618e-07 
0 0 0 -0.00273503 0.000114151 -0.00332419 0 776 2205 -2.26841e-06 9.59561e-06 2.86794e-06 5.18711e-10 1.03201e-07 
0 0 0 -0.0020961 -0.000235751 -0.00219392 0 776 382 -7.81827e-06 1.35049e-05 6.4083e-06 5.70999e-10 1.13605e-07 
0 0 0 -0.000260508 0.00019619 -0.00325901 0 776 4654 -3.26426e-06 8.86143e-06 7.5628e-08 5.11792e-10 1.01824e-07 
0 0 0 -0.00130454 -7.9e-05 -0.00145322 0 776 4821 -1.79472e-06 1.32644e-05 1.88769e-06 5.96094e-10 1.18598e-07 
0 0 0 -0.00335947 -2.22797e-06 -0.00249527 0 776 4483 4.65819e-12 1.05711e-05 -8.11259e-14 5.26056e-10 1.04662e-07 
0 0 0 5.46559e-05 -5.79849e-05 -0.00177542 0 776 6601 1.07061e-06 1.2458e-05 3.4838e-07 5.75259e-10 1.14452e-07 
0 0 0 -0.00267122 1.79421e-07 -0.00300693 0 776 3641 3.90244e-14 1.04944e-05 -3.3236e-13 5.24027e-10 1.04259e-07 
0 0 0 -0.000705614 1.26917e-05 -0.000914723 0 776 758 2.04201e-10 1.03581e-05 2.93198e-12 5.22196e-10 1.03894e-07 
0 0 0 -0.00185682 -2.07567e-07 -0.0036324 0 776 112 1.17611e-14 1.05387e-05 3.21644e-13 5.25415e-10 1.04535e-07 
0 0 0 -0.000627982 -4.29096e-05 -0.00016056 0 776 7706 1.44457e-06 1.12224e-05 9.66196e-07 5.38761e-10 1.0719e-07 
0 0 0 -0.00102923 -7.90105e-08 -0.0031334 0 776 7811 8.70314e-09 1.0582e-05 -6.14055e-09 5.26883e-10 1.04827e-07 
0 0 0 -0.00642698 -3.51941e-06 -0.00757818 0 776 3393 -1.37313e-06 1.16732e-05 1.15509e-06 5.61775e-10 1.11769e-07 
0 0 0 -0.000385365 3.4081e-05 -0.00332473 0 776 39 -3.64261e-07 9.95872e-06 -6.76713e-07 5.13446e-10 1.02153e-07 
0 0 0 0.000105087 -0.00017486 -0.00270607 0 776 5889 8.23251e-09 1.08863e-05 -6.83325e-09 4.99333e-10 9.93453e-08 
0 0 0 -0.00474692 9.14687e-05 -0.00554053 0 776 9095 3.97165e-05 9.5647e-06 3.63715e-05 5.12678e-10 1.02001e-07 
0 0 0 7.63756e-05 -0.00100524 -0.0124578 0 776 6964 -2.74035e-08 2.84181e-05 2.31616e-08 8.33979e-10 1.65932e-07 
0 0 0 -0.0041159 -3.23106e-05 -0.00203459 0 776 9394 3.14565e-06 1.53518e-05 6.17619e-07 6.68656e-10 1.33036e-07 
0 0 0 6.46155e-07 -4.09459e-06 2.53457e-05 0 778 4719 -3.02006e-07 9.80097e-06 5.68928e-07 4.98659e-10 9.92111e-08 
0 0 0 -5.21695e-07 -4.29635e-06 2.28454e-05 0 778 14170 -6.46783e-07 1.03486e-05 1.77509e-07 5.14304e-10 1.02324e-07 
0 0 0 1.69728e-05 -3.93724e-06 1.97123e-05 0 778 12757 1.49501e-07 1.01966e-05 3.01156e-07 5.09991e-10 1.01466e-07 
0 0 0 -1.28793e-05 -5.53449e-07 2.09854e-06 0 778 3129 2.4378e-07 1.21425e-05 2.26125e-06 5.84067e-10 1.16205e-07 
0 0 0 1.10525e-06 -2.72193e-06 1.11151e-05 0 778 11726 -2.11477e-07 8.64513e-06 7.34661e-07 4.59894e-10 9.14982e-08 
0 0 0 7.2861e-06 -2.87495e-06 1.29257e-05 0 778 14539 -1.06764e-06 1.04983e-05 8.13917e-07 5.23047e-10 1.04064e-07 
0 0 0 2.85791e-05 -1.42582e-07 8.8999e-06 0 778 14527 -3.14565e-07 1.0314e-05 3.39778e-07 5.14496e-10 1.02362e-07 
0 0 0 5.75506e-06 -2.86166e-06 7.87884e-06 0 778 15555 -4.38126e-07 1.06385e-05 -9.83181e-08 5.21857e-10 1.03827e-07 
0 0 0 3.74085e-05 -7.42867e-07 7.55154e-06 0 778 7654 -8.70325e-08 1.10359e-05 6.53132e-07 5.39776e-10 1.07392e-07 
0 0 0 0.0173276 -0.003205 0.0171404 0 778 16349 -4.94935e-08 1.01762e-05 1.54382e-06 5.16858e-10 1.02832e-07 
0 0 0 0.000813929 -7.65153e-06 4.55237e-05 0 778 689 -5.3028e-09 9.66222e-06 1.15285e-06 4.97712e-10 9.90227e-08 
0 0 0 0.00022044 -1.06119e-05 5.53607e-05 0 778 5338 -1.68777e-08 1.02293e-05 4.03194e-07 5.11706e-10 1.01807e-07 
0 0 0 -8.31482e-06 -7.6283e-06 4.83612e-05 0 778 17336 -3.39095e-07 1.0505e-05 9.98087e-08 5.19286e-10 1.03315e-07 
0 0 0 1.15937e-05 -1.02084e-05 5.02086e-05 0 778 14580 3.08285e-08 1.05301e-05 2.16104e-07 5.20347e-10 1.03526e-07 
0 0 0 0.0218709 -0.00601062 0.0321539 0 778 16870 4.83949e-19 1.02659e-05 1.35713e-06 5.18851e-10 1.03229e-07 
0 0 0 0.00113561 -1.22051e-05 6.9262e-05 0 778 13923 -3.61942e-09 9.74136e-06 1.17815e-06 5.00498e-10 9.95772e-08 
0 0 0 8.6267e-05 -1.17257e-05 6.18874e-05 0 778 988 1.94194e-08 1.01798e-05 4.95174e-07 5.10657e-10 1.01598e-07 
0 0 0 -1.57348e-05 -1.14305e-05 5.6561e-05 0 778 15828 -2.54922e-07 1.07114e-05 2.88719e-07 5.2672e-10 1.04794e-07 
0 0 0 -0.00163458 -0.0237741 0.12718 0 778 17363 -7.73595e-20 1.02659e-05 1.35713e-06 5.18851e-10 1.03229e-07 
0 0 0 0.000208252 -9.12695e-06 6.20202e-05 0 778 8467 -6.25777e-10 9.66608e-06 1.15357e-06 4.98193e-10 9.91184e-08 
0 0 0 0.000148018 -9.21013e-06 4.50824e-05 0 778 15381 3.9257e-08 1.02203e-05 4.02504e-07 5.11291e-10 1.01725e-07 
0 0 0 5.386e-06 -7.3022e-06 3.02621e-05 0 778 12332 -9.61002e-08 1.01047e-05 -1.63046e-07 5.03749e-10 1.00224e-07 
0 0 0 0.00280669 -7.9367e-05 0.000445822 0 778 8496 1.08023e-08 9.72776e-06 1.1754e-06 5.00721e-10 9.96215e-08 
0 0 0 0.000138572 -3.84314e-05 0.000198802 0 778 752 6.0091e-08 1.02163e-05 5.00138e-07 5.1166e-10 1.01798e-07 
0 0 0 -6.11507e-05 -3.20208e-05 0.000177439 0 778 17589 2.10087e-07 1.0559e-05 7.66029e-08 5.2086e-10 1.03629e-07 
0 0 0 0.0107455 -0.0254914 0.136367 0 778 10209 6.00298e-19 1.02659e-05 1.35713e-06 5.18851e-10 1.03229e-07 
0 0 0 0.00216868 -0.000343616 0.00185944 0 778 12335 -2.37818e-09 9.7495e-06 1.18064e-06 5.01482e-10 9.97729e-08 
0 0 0 0.000769384 -0.000334175 0.00179244 0 778 2108 7.85078e-07 1.07884e-05 3.5054e-07 5.29975e-10 1.05442e-07 
0 0 0 -0.000435077 -0.00032878 0.00174161 0 778 16821 7.47706e-07 1.10974e-05 1.39967e-07 5.37844e-10 1.07008e-07 
0 0 0 -0.00258731 -9.74282e-05 0.000528226 0 778 11974 1.28005e-07 1.00885e-05 1.18982e-06 5.12249e-10 1.01915e-07 
0 0 0 0.000186477 -0.000129996 0.000711599 0 778 15203 8.07637e-08 9.44848e-06 5.95459e-07 4.87449e-10 9.69808e-08 
0 0 0 -0.000591031 -0.000252319 0.00133966 0 778 15785 6.95473e-07 9.84583e-06 9.58457e-07 5.02052e-10 9.98864e-08 
0 0 0 -0.00136009 -0.000493041 0.00263744 0 778 7470 -2.00267e-08 9.86616e-06 1.25894e-06 5.05008e-10 1.00474e-07 
0 0 0 -0.000385896 -0.000296273 0.00159641 0 778 7967 -9.94354e-07 9.31493e-06 6.32602e-07 4.82953e-10 9.60862e-08 
0 0 0 -0.00097333 -0.000360815 0.00189228 0 778 4848 9.04853e-07 1.04086e-05 1.44076e-08 5.13769e-10 1.02218e-07 
0 0 0 -0.00071643 -0.000341051 0.00184533 0 778 13645 -3.27331e-07 1.00819e-05 9.8148e-07 5.11293e-10 1.01725e-07 
0 0 0 -0.00184384 -0.000388308 0.00198178 0 778 18001 1.45422e-06 1.1258e-05 1.02455e-06 5.4524e-10 1.08479e-07 
0 0 0 -0.000842837 -0.000403562 0.0021132 0 778 16369 3.47793e-07 1.11281e-05 -2.66408e-07 5.35256e-10 1.06493e-07 
0 0 0 -0.00106433 -0.000463515 0.00266562 0 778 13193 1.31573e-09 1.06239e-05 1.4376e-06 5.38423e-10 1.07123e-07 
0 0 0 -0.00235772 -0.00056618 0.00299936 0 778 13527 3.76066e-08 8.43548e-06 1.62941e-06 4.57343e-10 9.09907e-08 
0 0 0 7.4921e-05 8.91301e-06 -0.000157146 0 778 1637 1.54663e-07 1.05856e-05 1.83117e-06 5.27854e-10 1.0502e-07 
0 0 0 -0.00168548 -0.000148966 0.000586556 0 778 16168 1.14378e-06 1.16104e-05 -2.43945e-08 5.45725e-10 1.08576e-07 
0 0 0 0.000107571 -3.45034e-05 2.91057e-05 0 778 17147 1.63087e-07 1.00135e-05 -1.59376e-07 4.94825e-10 9.84483e-08 
0 0 0 3.86378e-05 1.1757e-05 -1.78244e-05 0 778 13175 -8.67685e-07 1.02384e-05 -9.00239e-07 5.05776e-10 1.00627e-07 
0 0 0 -0.00326939 0.000259069 -0.000191869 0 778 13872 -7.44921e-07 4.00448e-06 2.58417e-07 3.30452e-10 6.57441e-08 
0 0 0 -0.00177412 -0.000223694 0.000898934 0 778 12749 2.06674e-06 1.34314e-05 -1.11803e-06 5.92862e-10 1.17955e-07 
0 0 0 -5.94309e-05 1.49941e-05 -5.43448e-05 0 778 15517 -1.49458e-07 1.26773e-05 3.08584e-06 6.0625e-10 1.20619e-07 
0 0 0 -0.000197012 -2.85358e-06 1.50573e-05 0 778 5399 -1.34606e-08 1.0161e-05 1.51871e-06 5.16385e-10 1.02738e-07 
0 0 0 -0.00165338 -0.000540002 0.00288869 0 778 874 4.92508e-15 1.02661e-05 1.35717e-06 5.18855e-10 1.0323e-07 
0 0 0 -2.48622e-06 4.10836e-05 -3.44272e-05 0 778 10441 -3.8486e-08 1.10186e-05 1.42105e-06 5.51003e-10 1.09626e-07 
0 0 0 -4.8739e-05 -1.00112e-05 -6.86675e-06 0 778 15806 1.4823e-06 1.29287e-05 3.68351e-06 6.13953e-10 1.22151e-07 
0 0 0 -0.00282047 -0.000168048 0.000191982 0 778 1903 8.1283e-06 1.59698e-05 2.19614e-06 6.70839e-10 1.3347e-07 
0 0 0 0.000202948 0.000105392 0.000100363 0 778 2010 -2.10926e-06 4.84902e-06 -1.84621e-07 3.38308e-10 6.7307e-08 
0 0 0 -0.000116533 6.72086e-05 4.9793e-05 0 778 9574 3.84111e-07 9.826e-06 1.09702e-06 5.19116e-10 1.03282e-07 
0 0 0 -0.00337022 0.000175829 0.00100255 0 778 8602 4.9107e-06 9.63439e-06 2.6145e-06 5.83645e-10 1.16121e-07 
0 0 0 0.000329939 -5.53694e-05 0.00019201 0 778 18020 -1.60522e-06 1.0622e-05 3.34817e-06 5.3842e-10 1.07122e-07 
0 0 0 -0.000131727 -0.000128298 0.00109944 0 778 3783 -4.01697e-06 1.10051e-05 -3.70682e-07 5.48817e-10 1.09191e-07 
0 0 0 -0.000306528 -0.000382982 0.0020492 0 778 7627 7.16558e-07 1.01516e-05 9.35548e-07 5.12501e-10 1.01965e-07 
0 0 0 -0.00697903 -0.00290391 0.0154831 0 778 10781 -1.49625e-05 6.52161e-06 2.96364e-06 3.96124e-10 7.88103e-08 
0 0 0 -0.00089081 -0.000439338 0.00228339 0 778 702 -1.81304e-06 1.06935e-05 7.6113e-07 5.26542e-10 1.04759e-07 
0 0 0 -0.000233376 -0.000315335 0.00169815 0 778 6441 -8.31105e-07 1.05526e-05 3.88114e-07 5.22765e-10 1.04008e-07 
0 0 0 -0.000516024 -0.000284158 0.00130209 0 778 16602 -2.18555e-06 1.18251e-05 -1.49357e-06 5.4351e-10 1.08135e-07 
0 0 0 0.000220123 -9.66719e-05 0.000472413 0 778 9644 -8.26585e-07 1.18801e-05 -4.48532e-07 5.58269e-10 1.11072e-07 
0 0 0 6.20594e-05 -0.000376042 0.00198404 0 778 6537 -9.30693e-08 9.67069e-06 1.25773e-06 4.97357e-10 9.89521e-08 
0 0 0 0.000582609 -0.000171775 0.000896739 0 778 5728 -2.39192e-07 1.025e-05 6.34315e-07 5.12986e-10 1.02062e-07 
0 0 0 0.000857338 -0.000225363 0.00120821 0 778 11852 2.59067e-07 1.04695e-05 7.15712e-08 5.17749e-10 1.0301e-07 
0 0 0 0.000462639 -0.000228982 0.00124178 0 778 17490 -4.17388e-07 1.1477e-05 -8.75967e-07 5.45293e-10 1.0849e-07 
0 0 0 4.85147e-05 -6.83267e-05 0.00037852 0 778 6436 1.26976e-08 9.20802e-06 1.0156e-06 4.8181e-10 9.58587e-08 
0 0 0 -0.000124155 -0.00010818 0.000568663 0 778 8211 8.52687e-07 9.81366e-06 1.68159e-06 5.05492e-10 1.00571e-07 
0 0 0 0.00162631 -0.0006421 0.00342333 0 778 4132 1.3701e-08 9.81144e-06 1.21162e-06 5.02425e-10 9.99606e-08 
0 0 0 -0.012105 -8.01111e-05 0.000459778 0 778 338 2.93193e-08 1.01606e-05 1.74197e-06 5.19002e-10 1.03259e-07 
0 0 0 0.000189418 -2.12953e-05 2.28116e-05 0 778 15810 -7.29452e-07 9.8508e-06 5.57801e-07 4.96453e-10 9.87723e-08 
0 0 0 -8.83903e-05 -8.09067e-06 0.000144 0 778 18396 -3.43224e-07 1.05456e-05 -5.20286e-08 5.23403e-10 1.04134e-07 
0 0 0 -0.0273827 -0.000708145 0.00381819 0 778 17917 2.91424e-10 1.03613e-05 1.37919e-06 5.2331e-10 1.04116e-07 
0 0 0 -0.00779897 -0.00324713 0.0173706 0 778 17465 6.82004e-17 1.02659e-05 1.35713e-06 5.18851e-10 1.03229e-07 
0 0 0 0.00101801 -3.59681e-05 0.000499834 0 778 9557 -5.52046e-07 9.22642e-06 1.20726e-06 4.95612e-10 9.86049e-08 
0 0 0 -0.0101573 -0.00467886 0.0250296 0 778 15419 1.37469e-17 1.02659e-05 1.35713e-06 5.18851e-10 1.03229e-07 
0 0 0 0.00155326 -0.000371674 0.00199949 0 778 6450 -2.86793e-08 9.66146e-06 1.17112e-06 4.98068e-10 9.90936e-08 
0 0 0 -0.0159826 -0.00665317 0.0355913 0 778 14062 9.26326e-19 1.02659e-05 1.35713e-06 5.18851e-10 1.03229e-07 
0 0 0 0.0103811 -0.000217503 0.00116606 0 778 3551 1.42884e-12 1.02329e-05 1.35072e-06 5.17827e-10 1.03025e-07 
0 0 0 -0.00824777 -0.000335638 0.00202302 0 778 8100 1.99662e-10 1.03841e-05 1.42947e-06 5.32228e-10 1.0589e-07 
0 0 0 0.00904276 -0.00568892 0.030433 0 778 924 3.25728e-20 1.02659e-05 1.35713e-06 5.18851e-10 1.03229e-07 
0 0 0 0.00256067 -0.00512664 0.0275791 0 778 10802 -9.52927e-08 9.7543e-06 1.20762e-06 5.07153e-10 1.00901e-07 
0 0 0 0.0126844 -0.00329177 0.016074 0 778 9184 1.03366e-06 2.0564e-05 -1.13961e-06 7.50695e-10 1.4936e-07 
0 0 0 0.00970401 -0.0025848 0.0144514 0 778 2102 3.79175e-06 4.78057e-06 1.48602e-06 3.46569e-10 6.89507e-08 
0 0 0 0.00647951 -0.000144559 0.00427083 0 778 4160 -2.63251e-07 5.34431e-07 3.1178e-07 2.83063e-10 5.63157e-08 
0 0 0 0.0179529 -0.00371731 0.0198846 0 778 7257 -1.15491e-12 1.02663e-05 1.3572e-06 5.18816e-10 1.03222e-07 
0 0 0 -0.00695779 -0.00252741 0.0130424 0 778 4952 -1.18825e-05 1.3916e-05 -2.30973e-05 4.68745e-10 9.32593e-08 
0 0 0 -0.0305193 -0.00318675 0.0170476 0 778 13493 -7.22321e-14 1.02658e-05 1.35712e-06 5.18851e-10 1.03229e-07 
0 0 0 -0.0128627 0.000393558 -0.00344097 0 778 11962 -3.80885e-08 9.236e-06 1.02739e-06 4.28101e-10 8.51725e-08 
0 0 0 -0.0119312 -0.000466464 0.00249537 0 778 15835 -7.40797e-15 1.02658e-05 1.35713e-06 5.1885e-10 1.03229e-07 
0 0 0 -0.0040304 0.000125767 -0.00178068 0 778 10116 1.31489e-07 9.51367e-06 1.15758e-06 4.47813e-10 8.90945e-08 
0 0 0 -0.00561291 0.00432121 -0.0231164 0 778 15146 6.36316e-19 1.02659e-05 1.35713e-06 5.18851e-10 1.03229e-07 
0 0 0 -0.00349597 0.000138763 -0.000223507 0 778 14048 6.43862e-06 1.65249e-05 -1.68451e-06 7.11439e-10 1.41549e-07 
0 0 0 0.0179822 -0.00153755 0.00822514 0 778 1313 -1.31469e-18 1.02659e-05 1.35713e-06 5.18851e-10 1.03229e-07 
0 0 0 0.0103678 -0.00227517 0.0111895 0 778 14597 -1.38111e-06 9.77896e-06 1.00861e-06 4.61047e-10 9.17277e-08 
0 0 0 -0.0844458 -0.114388 0.29527 0 780 5801 -9.03294e-18 9.53905e-06 2.53098e-06 5.00925e-10 9.96621e-08 
0 0 0 0.161928 0.326688 -0.455921 0 782 8832 2.69486e-05 0.000810995 0.000532021 1.45088e-08 2.89166e-06 
0 0 0 -13.7404 -2.37456 32.6004 0 936 3444 -0.0655136 0.189049 -0.0139764 2.51804e-07 5.17699e-05 
0 0 0 3.84578e-06 -1.17498e-06 -7.60447e-06 0 775 6076 -1.35319e-06 1.19334e-05 1.74595e-06 5.54069e-10 1.10236e-07 
0 0 0 7.62898e-08 -1.18133e-06 -1.52547e-06 0 775 12 -1.8345e-06 1.52212e-05 -4.3581e-07 6.65931e-10 1.32494e-07 