ITEM: TIMESTEP
12250000
ITEM: NUMBER OF ENTRIES
3146
ITEM: BOX BOUNDS ff ff ff
-0.01 0.45
-0.15 0.15
-0.08 0.1
ITEM: ENTRIES c_pwc[1] c_pwc[2] c_pwc[3] c_pwc[4] c_pwc[5] c_pwc[6] c_pwc[7] c_pwc[8] c_pwc[9] c_pwc[10] c_pwc[11] c_pwc[12] c_pwc[13] c_pwc[14] 
0 0 0 -2.09558e-06 -2.26891e-06 -3.26318e-06 0 776 7649 8.12129e-07 9.26379e-06 1.37716e-06 4.8168e-10 9.58329e-08 
0 0 0 -2.60493e-05 2.77019e-07 -1.34562e-06 0 776 7937 -2.9164e-09 1.29246e-05 6.59747e-07 6.02096e-10 1.19792e-07 
0 0 0 1.09505e-05 5.96662e-07 3.03757e-07 0 776 5540 -5.89439e-09 1.11382e-05 3.68347e-06 5.45331e-10 1.08497e-07 
0 0 0 6.74644e-05 1.23041e-06 2.09429e-06 0 776 1200 8.51323e-10 1.03214e-05 4.09941e-06 5.18481e-10 1.03155e-07 
0 0 0 -2.25903e-06 1.4197e-06 7.29993e-06 0 776 1871 1.18005e-06 1.07985e-05 3.41031e-06 5.34366e-10 1.06316e-07 
0 0 0 -7.87682e-06 -6.11385e-07 2.39907e-06 0 776 1972 -3.38891e-09 1.38462e-05 4.87283e-06 6.30199e-10 1.25384e-07 
0 0 0 -1.53336e-07 -1.73029e-07 5.68102e-07 0 776 733 -6.41173e-07 4.50742e-06 1.3582e-06 2.98252e-10 5.93376e-08 
0 0 0 -1.83935e-05 2.17893e-06 1.02436e-05 0 776 10595 1.42683e-06 1.01634e-05 -9.5561e-07 5.13385e-10 1.02141e-07 
0 0 0 -1.54041e-05 -2.41615e-07 5.88318e-06 0 776 894 -1.19741e-09 1.14026e-05 -9.15607e-07 5.53743e-10 1.10171e-07 
0 0 0 1.18844e-05 -6.41306e-07 9.60663e-07 0 776 9680 1.17139e-09 1.03636e-05 -2.34197e-07 5.19485e-10 1.03355e-07 
0 0 0 -4.14713e-05 -2.87318e-06 -3.24426e-06 0 776 414 -5.33777e-09 1.12425e-05 3.27954e-07 5.47987e-10 1.09026e-07 
0 0 0 1.23321e-05 1.34603e-06 -1.91659e-05 0 776 206 2.89862e-06 1.04929e-05 2.12848e-06 5.2423e-10 1.04299e-07 
0 0 0 -3.90386e-05 4.29255e-09 -9.62974e-06 0 776 1894 -5.57747e-17 1.05195e-05 -4.72999e-18 5.24823e-10 1.04417e-07 
0 0 0 -2.42836e-08 8.74831e-07 1.27097e-06 0 776 210 -6.89719e-07 1.18553e-05 -7.59985e-08 5.68544e-10 1.13116e-07 
0 0 0 1.13449e-05 6.30951e-06 -6.15542e-06 0 776 4413 9.90474e-08 1.11018e-05 2.59315e-07 5.45368e-10 1.08505e-07 
0 0 0 -2.9314e-05 3.02025e-06 1.01266e-06 0 776 9977 5.04583e-07 1.17229e-05 2.64338e-06 5.64761e-10 1.12364e-07 
0 0 0 2.25324e-05 -1.12832e-06 -2.13526e-06 0 776 1225 2.50387e-08 7.20294e-06 1.04111e-06 4.0746e-10 8.10657e-08 
0 0 0 -8.21453e-05 -1.69305e-07 -7.27965e-08 0 776 3512 6.4704e-08 1.24759e-05 -2.65731e-07 5.87987e-10 1.16985e-07 
0 0 0 -1.33792e-05 6.34656e-07 1.10497e-06 0 776 690 1.02703e-08 7.65626e-06 -1.16565e-06 4.24796e-10 8.4515e-08 
0 0 0 -5.10259e-06 -9.2891e-07 4.26406e-06 0 776 280 2.26415e-06 9.48278e-06 -2.56809e-06 4.89546e-10 9.7398e-08 
0 0 0 -5.21065e-05 -1.75087e-06 2.37518e-08 0 776 2352 -3.14085e-08 1.17795e-05 -2.67672e-06 5.65559e-10 1.12522e-07 
0 0 0 2.96311e-05 3.41713e-06 -6.09784e-06 0 776 5611 1.32953e-07 1.08062e-05 -6.98962e-07 5.35051e-10 1.06452e-07 
0 0 0 2.60739e-05 5.85595e-06 6.15244e-06 0 776 9269 5.87119e-07 1.12672e-05 -7.63106e-07 5.50655e-10 1.09557e-07 
0 0 0 -0.000560541 -1.97971e-08 4.08779e-06 0 776 6408 1.00159e-09 1.07984e-05 -2.39588e-07 5.34052e-10 1.06253e-07 
0 0 0 -0.000386598 -1.15265e-06 1.77316e-06 0 776 101 8.58279e-08 1.03709e-05 -2.29232e-07 5.19619e-10 1.03381e-07 
0 0 0 -6.85605e-07 1.8683e-06 3.3943e-06 0 776 317 -2.57243e-08 1.11328e-05 1.89459e-07 5.45429e-10 1.08517e-07 
0 0 0 -1.17378e-05 -2.85955e-06 1.45643e-05 0 776 1705 -4.62599e-07 8.1705e-06 9.7237e-08 4.42813e-10 8.80996e-08 
0 0 0 -1.27697e-05 -1.89808e-07 -4.97903e-07 0 776 2116 7.28315e-10 1.05226e-05 2.36308e-10 5.24886e-10 1.0443e-07 
0 0 0 1.56126e-05 -2.33142e-06 2.7367e-06 0 776 8455 2.86743e-07 8.63458e-06 2.89097e-07 4.59573e-10 9.14344e-08 
0 0 0 0.000152717 -7.24171e-06 -8.15508e-06 0 776 11208 -2.10313e-07 1.01034e-05 -7.0505e-07 5.09313e-10 1.01331e-07 
0 0 0 -0.000458855 8.61988e-06 -7.20372e-05 0 776 553 1.3152e-07 1.15933e-05 5.91275e-07 5.61788e-10 1.11772e-07 
0 0 0 -0.000357998 -2.94704e-06 -5.92896e-05 0 776 585 -2.1529e-08 1.20971e-05 3.38304e-06 5.75438e-10 1.14488e-07 
0 0 0 0.000114435 4.43719e-06 -5.01367e-05 0 776 2069 -3.9912e-08 1.12526e-05 5.62618e-06 5.49881e-10 1.09403e-07 
0 0 0 1.467e-05 -7.18403e-06 -3.03088e-05 0 776 531 -8.97981e-07 1.2567e-05 4.82948e-06 5.89372e-10 1.1726e-07 
0 0 0 -0.00155951 -2.32676e-12 0.00257192 0 776 10613 1.5108e-19 1.05196e-05 -3.0216e-19 5.24825e-10 1.04417e-07 
0 0 0 -0.000289731 1.097e-06 0.000572163 0 776 6702 -1.82906e-07 1.09703e-05 -3.30379e-07 5.39946e-10 1.07426e-07 
0 0 0 -0.000230066 -1.09311e-06 0.000527663 0 776 1002 -2.71861e-08 1.05663e-05 -5.82947e-08 5.26142e-10 1.04679e-07 
0 0 0 -0.000500839 -1.00496e-12 0.00039351 0 776 1470 -3.02519e-19 1.05196e-05 2.65183e-19 5.24825e-10 1.04417e-07 
0 0 0 -9.08037e-05 -7.6023e-07 0.000413832 0 776 154 2.82831e-10 1.05302e-05 4.34114e-10 5.25015e-10 1.04455e-07 
0 0 0 -2.04594e-05 -1.15685e-07 2.54965e-05 0 776 1045 -1.70279e-06 9.45576e-06 -1.0275e-06 4.88794e-10 9.72484e-08 
0 0 0 -0.000634648 1.06087e-06 0.00040304 0 776 12304 -5.07857e-10 1.08372e-05 -7.33207e-07 5.35566e-10 1.06554e-07 
0 0 0 -0.00031879 1.94073e-07 0.000490532 0 776 4634 1.2939e-07 1.05554e-05 -2.56114e-07 5.26057e-10 1.04663e-07 
0 0 0 0.000109249 7.69264e-09 -0.000177007 0 776 4165 3.48744e-14 1.05194e-05 9.34316e-14 5.24821e-10 1.04417e-07 
0 0 0 0.000308168 -3.93138e-13 -0.000238194 0 776 1920 -3.74402e-20 1.05196e-05 3.76006e-20 5.24825e-10 1.04417e-07 
0 0 0 2.17954e-05 6.66604e-07 0.000199286 0 776 3087 -4.16142e-09 1.05203e-05 -2.40783e-09 5.24993e-10 1.04451e-07 
0 0 0 -0.00102036 -5.06605e-12 0.00241374 0 776 12917 1.10835e-19 1.05196e-05 3.02149e-19 5.24825e-10 1.04417e-07 
0 0 0 -0.00066615 -1.1602e-06 0.000527256 0 776 1063 -1.68111e-10 1.05341e-05 -9.94816e-11 5.25056e-10 1.04463e-07 
0 0 0 -0.000688077 2.19818e-06 0.000800882 0 776 72 -3.495e-08 1.05559e-05 9.91634e-09 5.26509e-10 1.04752e-07 
0 0 0 3.15679e-06 -1.22273e-06 6.51571e-06 0 776 4185 -3.17974e-08 1.06607e-05 1.5195e-07 5.29243e-10 1.05297e-07 
0 0 0 -5.97839e-06 6.43095e-07 -7.06547e-07 0 776 4938 -9.58486e-08 1.06688e-05 4.64878e-07 5.29917e-10 1.05431e-07 
0 0 0 6.28418e-05 -1.1015e-06 1.75281e-05 0 776 18 -2.51787e-07 1.10317e-05 1.149e-06 5.41487e-10 1.07733e-07 
0 0 0 -1.40085e-05 -1.99575e-06 -6.57135e-06 0 776 4248 1.27029e-06 1.80639e-05 9.78169e-07 7.52171e-10 1.49654e-07 
0 0 0 -0.00130392 2.18502e-12 0.000846495 0 776 10360 -1.49756e-19 1.05196e-05 -1.50417e-19 5.24825e-10 1.04417e-07 
0 0 0 -0.0003403 4.99719e-08 0.000158689 0 776 9715 8.51955e-13 1.05193e-05 -6.49508e-13 5.24828e-10 1.04418e-07 
0 0 0 -4.31668e-05 8.40981e-07 -0.000126256 0 776 4095 -4.94581e-08 1.04311e-05 3.2098e-08 5.22059e-10 1.03867e-07 
0 0 0 -0.000111865 3.33371e-07 -0.000221231 0 776 1367 3.09838e-10 1.0521e-05 -6.62285e-10 5.24944e-10 1.04441e-07 
0 0 0 0.000157058 -8.48279e-07 -0.000136737 0 776 1036 -2.29618e-09 1.05299e-05 -2.84591e-09 5.24985e-10 1.04449e-07 
0 0 0 -3.92186e-05 -4.2542e-06 -0.000102289 0 776 6544 1.93559e-06 4.72934e-06 -1.53533e-07 3.06955e-10 6.10691e-08 
0 0 0 -7.06064e-05 1.05708e-12 0.00186805 0 776 12116 -9.35906e-21 1.05196e-05 -2.1112e-19 5.24825e-10 1.04417e-07 
0 0 0 -0.000151616 5.72999e-12 6.1289e-05 0 776 12691 -2.66291e-21 1.05196e-05 -9.35999e-21 5.24825e-10 1.04417e-07 
0 0 0 -8.51665e-05 -4.72997e-06 -0.000206547 0 776 8603 1.89647e-07 1.08373e-05 -4.91556e-08 5.3432e-10 1.06307e-07 
0 0 0 -7.26923e-05 -5.69591e-10 -0.000109537 0 776 9639 1.15773e-17 1.05196e-05 1.74345e-17 5.24825e-10 1.04417e-07 
0 0 0 -0.000342451 -1.24218e-06 -0.000161859 0 776 7185 -1.30606e-07 1.0561e-05 1.87758e-07 5.25935e-10 1.04638e-07 
0 0 0 -4.45097e-05 1.38782e-06 -0.000114112 0 776 4532 -4.17282e-06 1.15039e-05 2.11458e-06 5.57368e-10 1.10892e-07 
0 0 0 -0.000225719 -1.85438e-11 0.0015153 0 776 14724 1.13134e-18 1.05196e-05 -7.61068e-18 5.24825e-10 1.04417e-07 
0 0 0 -8.83618e-05 -5.10718e-07 -1.68944e-05 0 776 9279 5.30723e-07 9.16451e-06 -1.00874e-06 4.78618e-10 9.52236e-08 
0 0 0 -3.23441e-05 2.33418e-07 -4.85697e-06 0 776 3983 -2.49245e-09 1.25454e-05 -9.30158e-08 5.90253e-10 1.17436e-07 
0 0 0 4.55856e-06 8.80498e-07 1.06847e-06 0 776 3427 3.02385e-08 8.55106e-06 -1.05775e-08 4.5732e-10 9.09861e-08 
0 0 0 1.35452e-06 4.27941e-06 2.25232e-06 0 776 1118 -2.16512e-06 1.00357e-05 -2.70742e-06 5.0954e-10 1.01376e-07 
0 0 0 0.000104223 -1.36386e-05 3.713e-05 0 776 10496 -4.62613e-07 1.01155e-05 4.32896e-07 5.08328e-10 1.01135e-07 
0 0 0 -1.06928e-05 6.75531e-07 -3.06115e-06 0 776 7286 -5.82325e-07 1.07873e-05 2.94874e-06 5.33837e-10 1.06211e-07 
0 0 0 0.000128495 5.03717e-07 2.77958e-05 0 776 7431 -3.48492e-07 8.75652e-06 1.43917e-06 4.64528e-10 9.24203e-08 
0 0 0 1.01793e-05 -4.86043e-07 8.73154e-06 0 776 1366 -1.05308e-06 1.37965e-05 1.73866e-06 6.28714e-10 1.25089e-07 
0 0 0 -4.13658e-06 -2.01681e-08 1.56658e-06 0 776 10907 -6.21293e-07 1.24797e-05 3.22534e-06 5.88138e-10 1.17015e-07 
0 0 0 -0.000115851 5.78041e-06 -4.83669e-05 0 776 7764 -5.22797e-08 1.02161e-05 4.756e-07 5.1594e-10 1.0265e-07 
0 0 0 -0.000203423 2.75112e-06 -5.0775e-05 0 776 9160 -3.2069e-07 1.18317e-05 1.42017e-06 5.68188e-10 1.13045e-07 
0 0 0 -0.000107331 6.27774e-06 -3.36271e-05 0 776 5560 -1.68316e-07 1.16292e-05 7.37162e-07 5.62444e-10 1.11902e-07 
0 0 0 -1.23291e-05 -6.35574e-06 -5.41013e-06 0 776 215 -6.53593e-07 1.23316e-05 3.56714e-06 5.82141e-10 1.15822e-07 
0 0 0 -1.50283e-05 -8.82089e-06 -4.09963e-06 0 776 1887 2.72629e-07 1.03265e-05 4.11725e-06 5.16468e-10 1.02755e-07 
0 0 0 1.53626e-05 1.74541e-06 6.515e-06 0 776 4164 -9.36041e-07 1.1894e-05 4.35483e-06 5.69965e-10 1.13399e-07 
0 0 0 -0.000112188 5.24403e-06 -3.75972e-05 0 776 5953 1.00386e-07 1.06255e-05 -4.76128e-07 5.29474e-10 1.05342e-07 
0 0 0 7.02682e-05 2.86308e-09 5.65129e-05 0 776 7893 5.53606e-17 1.05196e-05 4.21438e-17 5.24827e-10 1.04418e-07 
0 0 0 0.00014924 -2.15951e-07 0.000164306 0 776 11531 2.23845e-11 1.05265e-05 -6.42804e-12 5.2501e-10 1.04454e-07 
0 0 0 -4.1436e-05 -3.12376e-05 -6.38899e-06 0 776 12872 2.05615e-06 1.07815e-05 -8.18653e-07 5.26767e-10 1.04804e-07 
0 0 0 1.81214e-06 -1.17012e-05 8.91458e-06 0 776 11571 3.44314e-07 1.10353e-05 -1.33353e-07 5.39327e-10 1.07303e-07 
0 0 0 -8.12186e-05 -1.51689e-05 0.000130849 0 776 14434 3.07713e-07 1.0787e-05 -1.68379e-06 5.30414e-10 1.05529e-07 
0 0 0 0.000453084 -7.21047e-05 0.000159654 0 776 5167 -1.14397e-06 1.46472e-05 5.40987e-07 6.39637e-10 1.27262e-07 
0 0 0 -0.000126322 5.75964e-05 -0.000152414 0 776 634 2.11632e-07 8.50233e-06 1.3215e-06 4.683e-10 9.31708e-08 
0 0 0 -0.000181312 6.80171e-05 -0.000136661 0 776 7313 6.97128e-07 1.14147e-05 -6.7216e-07 5.68709e-10 1.13149e-07 
0 0 0 -6.40926e-05 6.22163e-06 2.02782e-05 0 776 5950 2.35601e-06 1.26131e-05 2.03718e-06 5.93631e-10 1.18108e-07 
0 0 0 0.000161059 -3.02492e-06 -5.59502e-05 0 776 7844 -1.38218e-07 1.06257e-05 -1.16686e-07 5.27695e-10 1.04989e-07 
0 0 0 0.000485407 0.000121204 5.60925e-05 0 776 10156 -5.43125e-07 9.78732e-06 -2.25696e-06 5.26726e-10 1.04796e-07 
0 0 0 -1.547e-06 4.93209e-06 1.45286e-05 0 776 9271 4.36657e-07 1.19562e-05 -3.88164e-07 5.72622e-10 1.13928e-07 
0 0 0 -0.000272185 -2.00771e-05 1.35541e-06 0 776 3509 1.21149e-06 1.15918e-05 1.88257e-06 5.5563e-10 1.10547e-07 
0 0 0 -2.62333e-05 -6.66828e-06 -6.56266e-05 0 776 4298 1.23551e-06 9.31626e-06 1.94144e-06 4.82528e-10 9.60016e-08 
0 0 0 0.00101388 -0.000224734 -0.000387372 0 776 14186 -1.61656e-06 6.46221e-06 -1.4595e-06 3.26572e-10 6.49721e-08 
0 0 0 -0.00286703 6.11438e-05 0.00443057 0 776 7053 -1.69725e-07 1.09357e-05 3.26545e-07 5.51721e-10 1.09769e-07 
0 0 0 4.31915e-05 -8.51098e-05 -0.000367251 0 776 209 -8.5854e-08 1.33076e-05 2.77497e-07 5.96159e-10 1.18611e-07 
0 0 0 -0.000287068 -1.37519e-05 0.00101695 0 776 8382 2.20427e-08 8.72904e-06 -3.08264e-07 4.60373e-10 9.15936e-08 
0 0 0 -0.000226966 -0.000345423 0.000371429 0 776 2799 7.80445e-06 7.59223e-06 -2.9107e-06 3.43517e-10 6.83436e-08 
0 0 0 -0.0014947 -0.00018924 5.64129e-05 0 776 7390 2.23245e-06 1.49555e-05 1.30727e-06 6.24938e-10 1.24337e-07 
0 0 0 -0.00686467 -7.07312e-07 0.00622876 0 776 3286 9.2271e-13 1.0515e-05 -2.00197e-12 5.24521e-10 1.04357e-07 
0 0 0 0.000541469 0.000525483 0.000649329 0 776 7800 -4.78358e-06 2.62244e-06 3.27206e-06 3.49276e-10 6.94893e-08 
0 0 0 -0.000336057 -0.000202064 0.000213253 0 776 9721 1.40362e-06 1.12029e-05 -7.18148e-07 5.0405e-10 1.00284e-07 
0 0 0 -0.00905509 1.38342e-12 0.00295102 0 776 4183 -1.06556e-18 1.05196e-05 2.99519e-19 5.24825e-10 1.04417e-07 
0 0 0 -0.000532869 5.61882e-05 -0.00122378 0 776 1306 7.69521e-07 1.18144e-05 8.642e-07 5.78979e-10 1.15192e-07 
0 0 0 0.00098799 3.10264e-05 0.000236712 0 776 9809 -8.39051e-06 1.70767e-05 1.58191e-06 7.31086e-10 1.45458e-07 
0 0 0 0.000982252 -6.75053e-05 0.000100854 0 776 5373 -9.91059e-07 1.27767e-05 1.03937e-06 5.83292e-10 1.16051e-07 
0 0 0 -8.05439e-05 -5.35592e-06 -0.000206409 0 776 163 -1.07872e-06 8.48432e-06 5.37774e-07 4.5354e-10 9.02339e-08 
0 0 0 -0.000104262 4.60115e-05 -0.000954176 0 776 7121 4.09043e-12 1.02914e-05 -6.94026e-11 5.27204e-10 1.04891e-07 
0 0 0 -0.000206019 -0.000117061 -0.00127075 0 776 7072 -2.05981e-06 8.36164e-06 4.91027e-06 4.24028e-10 8.43621e-08 
0 0 0 6.90805e-05 5.85461e-05 -0.00211556 0 776 3631 -5.1868e-07 9.97435e-06 5.3024e-07 5.19315e-10 1.03321e-07 
0 0 0 -0.000394495 8.45425e-05 -0.00230588 0 776 7750 1.54853e-06 1.29735e-05 1.55539e-06 6.21222e-10 1.23598e-07 
0 0 0 -0.00126085 6.19291e-05 -0.00218032 0 776 7763 1.51723e-06 1.84302e-05 5.76517e-06 7.74911e-10 1.54179e-07 
0 0 0 0.00181387 -1.52108e-12 -0.000166474 0 776 7846 2.99529e-19 1.05196e-05 -1.872e-20 5.24825e-10 1.04417e-07 
0 0 0 0.0023274 -7.28503e-06 0.0013769 0 776 9654 -2.4036e-07 1.0684e-05 6.23857e-07 5.28708e-10 1.0519e-07 
0 0 0 -0.000532086 -0.000102468 -0.00137313 0 776 6920 3.05019e-06 1.22291e-05 2.77271e-06 5.58615e-10 1.11141e-07 
0 0 0 0.0014158 1.8468e-05 -0.000376399 0 776 7804 -5.88565e-07 1.14697e-05 1.45403e-06 5.59907e-10 1.11398e-07 
0 0 0 0.00014741 0.000160349 -0.00243416 0 776 4357 1.18927e-07 -3.62122e-07 1.36526e-07 3.14037e-11 6.2476e-09 
0 0 0 -0.000456156 -0.00041653 -0.00116443 0 776 7583 3.71972e-06 2.08697e-05 9.74936e-06 7.48225e-10 1.48868e-07 
0 0 0 -0.000464139 -0.000115131 -0.00196457 0 776 2843 6.4967e-07 5.79467e-06 -7.77062e-07 3.25165e-10 6.46921e-08 
0 0 0 0.00326484 2.01018e-08 0.00107738 0 776 9156 1.91751e-14 1.05185e-05 6.33278e-15 5.24793e-10 1.04411e-07 
0 0 0 -1.15749e-05 -0.000170671 -0.000666384 0 776 6792 -3.36727e-06 1.41223e-05 5.21368e-06 6.03514e-10 1.20074e-07 
0 0 0 -0.000267082 5.87362e-05 -0.000774835 0 776 1969 3.58982e-06 1.63206e-05 -7.34919e-07 7.15151e-10 1.42288e-07 
0 0 0 -0.00063062 0.000508259 -0.00141719 0 776 1352 1.63138e-06 1.43545e-05 6.98938e-06 7.49977e-10 1.49217e-07 
0 0 0 0.0036923 3.95751e-12 0.00205438 0 776 221 -4.43805e-19 1.05196e-05 -3.02136e-19 5.24825e-10 1.04417e-07 
0 0 0 0.000234126 -3.73874e-05 -0.00140596 0 776 3055 1.10919e-06 1.08039e-05 2.93536e-07 5.26182e-10 1.04687e-07 
0 0 0 -0.000438518 4.0432e-05 -0.000836503 0 776 570 2.01378e-06 7.56233e-06 8.29806e-07 4.30417e-10 8.56332e-08 
0 0 0 -0.000388572 0.000319013 -0.000417646 0 776 6387 1.3334e-06 1.07839e-05 -4.32569e-07 6.02285e-10 1.1983e-07 
0 0 0 0.00535992 8.95942e-13 -0.000722439 0 776 6055 -3.96336e-20 1.05196e-05 4.64522e-21 5.24825e-10 1.04417e-07 
0 0 0 -6.99572e-05 1.18515e-05 -0.000249658 0 776 8814 8.15618e-07 9.46492e-06 6.01599e-07 4.91746e-10 9.78357e-08 
0 0 0 0.000356887 -6.48589e-05 -0.000934816 0 776 8325 3.42365e-07 9.4585e-06 2.11165e-07 4.74626e-10 9.44295e-08 
0 0 0 -0.000412523 -0.000741486 -0.00116616 0 776 8088 1.52715e-06 1.19146e-05 5.75821e-06 4.13903e-10 8.23476e-08 
0 0 0 0.00233107 -3.29459e-12 0.00214461 0 776 5213 2.44814e-19 1.05196e-05 2.44705e-19 5.24825e-10 1.04417e-07 
0 0 0 -0.00157402 -4.09924e-12 -0.000761809 0 776 2925 -8.7258e-20 1.05196e-05 -4.38987e-20 5.24825e-10 1.04417e-07 
0 0 0 8.39815e-05 -2.06963e-05 -0.00147771 0 776 7454 3.15521e-06 1.01631e-05 -1.35546e-07 5.08398e-10 1.01149e-07 
0 0 0 -0.000861195 2.82954e-12 -0.000804951 0 776 1376 1.26418e-19 1.05196e-05 1.07399e-19 5.24825e-10 1.04417e-07 
0 0 0 -0.000282593 -0.000172095 -1.49401e-05 0 776 6636 3.22904e-06 7.37759e-06 1.78339e-06 3.74788e-10 7.45653e-08 
0 0 0 -0.000265039 6.52002e-05 -0.000426073 0 776 3905 -5.55193e-07 9.02645e-06 -2.02512e-06 4.88386e-10 9.71672e-08 
0 0 0 4.78558e-05 3.81993e-05 -0.000631145 0 776 7120 1.96125e-08 1.02733e-05 -2.73417e-07 5.24902e-10 1.04433e-07 
0 0 0 -0.000393955 -4.25909e-05 -0.000166516 0 776 2205 -1.344e-06 1.17529e-05 1.41278e-06 5.56033e-10 1.10627e-07 
0 0 0 -8.4423e-05 0.000101678 -0.000384764 0 776 382 -1.00344e-06 1.40756e-05 1.90119e-06 6.58227e-10 1.30961e-07 
0 0 0 0.000766745 -0.000245217 -0.000501153 0 776 4654 8.18895e-08 8.93275e-06 -1.60645e-07 4.16129e-10 8.27906e-08 
0 0 0 0.000257456 3.71435e-05 0.000407333 0 776 4821 2.28594e-06 1.33197e-05 -1.7217e-06 6.21972e-10 1.23747e-07 
0 0 0 0.000462088 9.99443e-05 0.000436161 0 776 4483 1.43159e-06 9.75842e-06 -3.44428e-07 5.21096e-10 1.03675e-07 
0 0 0 -0.000373001 -7.08724e-05 -0.000749712 0 776 6601 -8.94439e-07 1.05355e-05 1.14359e-06 5.1002e-10 1.01472e-07 
0 0 0 0.000576708 -1.11596e-05 -5.67186e-05 0 776 3641 1.67117e-06 8.33334e-06 7.82348e-07 4.4682e-10 8.88969e-08 
0 0 0 0.000118815 -6.29747e-05 -0.000125928 0 776 758 8.33973e-07 1.6445e-05 -1.55461e-06 6.94256e-10 1.3813e-07 
0 0 0 0.000266458 4.08844e-06 -7.58017e-05 0 776 112 -2.613e-06 9.94825e-06 2.60202e-07 5.06541e-10 1.00779e-07 
0 0 0 -0.000413016 2.89716e-05 -0.000708713 0 776 3393 -1.21286e-06 1.23309e-05 1.62846e-06 5.89563e-10 1.17298e-07 
0 0 0 0.000938542 -0.000262727 6.62578e-05 0 776 7706 2.81344e-06 1.57716e-05 -8.69045e-07 6.34345e-10 1.26209e-07 
0 0 0 -0.00109744 -3.78418e-05 -0.00185999 0 776 7811 -6.69125e-09 1.15696e-05 2.64813e-09 5.5113e-10 1.09651e-07 
0 0 0 0.00135692 -5.73295e-05 0.0002981 0 776 39 -3.9378e-07 1.21309e-05 -2.40804e-06 5.65015e-10 1.12414e-07 
0 0 0 -0.000139737 -8.55196e-06 -0.000645566 0 776 5889 -1.25422e-07 1.02916e-05 1.45563e-07 5.15358e-10 1.02534e-07 
0 0 0 -0.000912592 -6.17713e-05 -0.00121355 0 776 9095 -8.7506e-07 1.23619e-05 9.53901e-07 5.7142e-10 1.13689e-07 
0 0 0 0.000668719 1.29358e-05 -5.63882e-05 0 776 6964 -1.43584e-07 1.07497e-05 5.65602e-08 5.35239e-10 1.0649e-07 
0 0 0 0.000689366 -0.00074468 -0.00251419 0 776 9394 -5.25127e-06 1.59167e-05 5.9799e-06 5.41734e-10 1.07782e-07 
0 0 0 2.58679e-05 -3.8606e-06 -1.56725e-05 0 778 4719 -2.37867e-07 9.93942e-06 1.39419e-06 5.06835e-10 1.00838e-07 
0 0 0 1.23206e-05 4.41741e-06 7.1575e-06 0 778 14170 -9.42576e-08 9.96181e-06 5.64685e-07 5.05111e-10 1.00495e-07 
0 0 0 7.14091e-06 -8.86547e-06 1.93765e-05 0 778 12757 -8.96207e-08 1.05604e-05 5.6672e-07 5.22548e-10 1.03964e-07 
0 0 0 1.81378e-05 -4.91596e-06 3.99985e-06 0 778 3129 1.02205e-07 1.24719e-05 3.76404e-06 6.02005e-10 1.19774e-07 
0 0 0 0.000245118 -0.000214251 -5.32827e-05 0 778 11726 -1.12362e-07 9.55867e-06 1.25182e-06 4.46282e-10 8.879e-08 
0 0 0 0.000602222 0.000104725 7.02456e-05 0 778 14539 -7.50122e-07 1.04477e-05 8.90516e-07 5.4706e-10 1.08842e-07 
0 0 0 0.000141304 -1.95219e-05 0.000254178 0 778 14527 -5.3513e-07 9.47624e-06 7.46163e-07 4.94752e-10 9.84339e-08 
0 0 0 3.47355e-05 -2.37592e-05 0.000102023 0 778 15555 2.63237e-07 1.00521e-05 -1.88073e-07 5.01181e-10 9.9713e-08 
0 0 0 6.4274e-05 -1.68562e-05 2.45869e-05 0 778 7654 -5.85045e-07 1.172e-05 5.24152e-07 5.58142e-10 1.11047e-07 
0 0 0 0.00245636 0.000575226 -0.00301593 0 778 16349 -2.90624e-07 7.76974e-06 9.3366e-07 4.3284e-10 8.61154e-08 
0 0 0 0.00172488 -0.000100504 -9.90857e-05 0 778 689 -9.21974e-07 1.22551e-05 6.88093e-07 5.53751e-10 1.10173e-07 
0 0 0 0.000359886 1.22192e-05 -4.73584e-05 0 778 5338 -7.00914e-08 9.20799e-06 2.09013e-07 4.76853e-10 9.48725e-08 
0 0 0 0.000241982 7.9788e-06 2.83134e-07 0 778 17336 -4.36036e-07 1.06069e-05 -3.2214e-07 5.21456e-10 1.03747e-07 
0 0 0 7.7282e-05 -3.87889e-06 6.28589e-06 0 778 14580 -3.45258e-07 1.18209e-05 1.36848e-06 5.683e-10 1.13068e-07 
0 0 0 0.000625152 -1.45841e-05 0.000673664 0 778 16870 -1.70608e-06 1.1162e-05 7.49155e-08 5.63732e-10 1.12159e-07 
0 0 0 0.00147508 1.11559e-06 2.45566e-05 0 778 13923 1.20832e-08 9.50702e-06 1.09981e-06 4.93201e-10 9.81252e-08 
0 0 0 0.000628759 -1.03321e-05 9.66745e-06 0 778 988 -7.56892e-08 1.0194e-05 2.63917e-07 5.07901e-10 1.0105e-07 
0 0 0 0.000260184 2.68661e-06 2.53519e-06 0 778 15828 -3.93198e-07 1.09872e-05 -4.30673e-07 5.32173e-10 1.05879e-07 
0 0 0 0.0107029 0.00273847 -0.014543 0 778 17363 7.09602e-09 1.01202e-05 1.33411e-06 5.18166e-10 1.03092e-07 
0 0 0 0.00102854 5.57507e-05 -5.7675e-05 0 778 8467 3.00353e-08 9.83117e-06 1.64859e-06 5.15926e-10 1.02647e-07 
0 0 0 -0.000237866 -1.78005e-05 -3.77956e-05 0 778 15381 -2.42598e-07 1.12738e-05 2.53857e-06 5.53296e-10 1.10082e-07 
0 0 0 0.000198884 -4.0647e-05 2.67839e-05 0 778 12332 -2.715e-07 9.14933e-06 1.57388e-06 4.75097e-10 9.45231e-08 
0 0 0 -0.00036895 0.00111524 0.00118647 0 778 8496 2.86447e-07 9.34597e-06 1.53978e-06 7.75602e-10 1.54316e-07 
0 0 0 -0.000457293 -0.000556387 0.00262121 0 778 752 1.50885e-06 5.24195e-06 -1.45646e-05 1.82134e-10 3.62352e-08 
0 0 0 -0.000582657 -0.000307686 0.00222553 0 778 17589 2.91976e-07 1.45589e-05 -4.16246e-06 6.43281e-10 1.27987e-07 
0 0 0 -0.000405089 -0.00012621 0.00013681 0 778 12335 1.16203e-06 1.1136e-05 2.15255e-06 5.30689e-10 1.05584e-07 
0 0 0 -6.16581e-05 -7.78306e-05 0.000450976 0 778 2108 1.53379e-07 9.32838e-06 1.16701e-06 4.87746e-10 9.704e-08 
0 0 0 -0.000269237 -8.30536e-05 0.000383289 0 778 16821 -2.86149e-08 1.01854e-05 9.72125e-07 5.11388e-10 1.01744e-07 
0 0 0 -0.00175647 1.59531e-05 -5.50072e-06 0 778 11974 -2.21353e-07 9.98461e-06 1.64779e-06 5.14558e-10 1.02375e-07 
0 0 0 -0.000175644 3.5635e-05 0.000138013 0 778 15203 1.53135e-06 9.69491e-06 1.43463e-06 5.13615e-10 1.02187e-07 
0 0 0 0.000236883 -0.000301345 0.0016129 0 778 15785 -6.53476e-09 9.73376e-06 1.17095e-06 5.00073e-10 9.94926e-08 
0 0 0 -0.00109315 -0.00026701 0.00130139 0 778 7470 6.89191e-08 1.04712e-05 1.49619e-06 5.21381e-10 1.03732e-07 
0 0 0 -0.000359813 -0.000115367 0.000650934 0 778 7967 -1.32819e-06 8.33487e-06 2.4356e-07 4.47286e-10 8.89896e-08 
0 0 0 0.000569184 -0.00031091 0.00172291 0 778 4848 1.77156e-06 1.02373e-05 2.02267e-07 5.13171e-10 1.02099e-07 
0 0 0 -0.000497131 -0.000114516 0.000562373 0 778 13645 -2.59244e-09 1.03923e-05 1.30096e-06 5.20655e-10 1.03588e-07 
0 0 0 -0.000316565 -9.48417e-05 0.000579624 0 778 18001 7.3146e-07 1.05757e-05 4.14356e-07 5.26109e-10 1.04673e-07 
0 0 0 -0.000237093 -0.000105675 0.000566471 0 778 16369 3.64513e-06 1.57854e-05 1.45638e-06 6.87886e-10 1.36862e-07 
0 0 0 -0.000714197 -2.48348e-05 0.000107848 0 778 13193 1.50049e-06 1.18768e-05 3.11839e-06 5.79856e-10 1.15367e-07 
0 0 0 2.97079e-05 1.36749e-06 6.63243e-06 0 778 13527 1.26058e-06 7.68699e-06 2.30865e-06 4.37131e-10 8.69692e-08 
0 0 0 -8.17304e-06 -9.19148e-06 1.36748e-05 0 778 1637 2.49485e-06 6.3748e-06 -4.11623e-08 3.69722e-10 7.35573e-08 
0 0 0 -0.000722012 -4.0376e-05 0.000228858 0 778 16168 1.09204e-06 1.04813e-05 1.20284e-06 5.25479e-10 1.04548e-07 
0 0 0 -0.000139795 -1.14756e-05 5.02208e-05 0 778 17147 4.25843e-07 9.80942e-06 2.11998e-06 5.08032e-10 1.01076e-07 
0 0 0 7.89944e-06 -1.67552e-05 3.9397e-05 0 778 13175 1.36884e-06 1.29652e-05 4.1989e-06 6.18346e-10 1.23025e-07 
0 0 0 -0.000331538 -0.00010009 0.000522937 0 778 13872 5.97583e-07 9.93459e-06 8.11833e-07 5.04005e-10 1.00275e-07 
0 0 0 -0.000777084 -9.39617e-05 0.000550861 0 778 12749 -9.28839e-08 9.45137e-06 1.20052e-06 4.92673e-10 9.80201e-08 
0 0 0 -1.06069e-05 7.0697e-06 -6.67194e-05 0 778 15517 1.31964e-06 8.47576e-06 1.50958e-06 4.57991e-10 9.11195e-08 
0 0 0 -4.68116e-05 5.17973e-06 -7.23276e-05 0 778 5399 -5.40296e-07 1.30708e-05 2.97619e-06 6.14854e-10 1.22331e-07 
0 0 0 -0.000320343 -9.46754e-05 0.000547776 0 778 874 1.62668e-09 1.01979e-05 1.32624e-06 5.18073e-10 1.03074e-07 
0 0 0 -0.000312066 -0.000281772 0.00149312 0 778 17453 -3.52291e-07 9.17617e-06 1.52915e-06 4.82891e-10 9.60739e-08 
0 0 0 1.18053e-05 -7.77675e-06 4.34436e-06 0 778 10441 -8.79116e-07 1.04827e-05 1.03382e-06 5.22497e-10 1.03954e-07 
0 0 0 -6.04871e-05 5.19852e-06 -2.92109e-05 0 778 15806 2.94444e-07 1.17373e-05 2.0015e-06 5.69897e-10 1.13385e-07 
0 0 0 0.000559815 3.72163e-05 -0.000211412 0 778 1903 -1.95629e-07 1.32974e-05 5.2123e-06 6.35384e-10 1.26416e-07 
0 0 0 -0.000573975 3.58504e-05 -7.07237e-05 0 778 2010 1.52372e-06 7.71725e-06 2.81783e-06 4.46064e-10 8.87464e-08 
0 0 0 -2.61429e-05 -2.15305e-05 2.79444e-05 0 778 9574 1.06708e-07 1.19985e-05 1.38724e-06 5.71142e-10 1.13633e-07 
0 0 0 0.00333911 -0.000353228 0.00180589 0 778 8602 -8.20897e-08 8.95382e-06 9.65127e-07 4.6882e-10 9.32742e-08 
0 0 0 0.0012835 -0.000430901 0.00220323 0 778 18020 -2.60543e-07 9.46279e-06 -7.97701e-07 4.74256e-10 9.43558e-08 
0 0 0 -0.00465391 0.000109868 -0.000520154 0 778 3783 5.32248e-09 1.01603e-05 1.31433e-06 5.17809e-10 1.03021e-07 
0 0 0 -0.000354855 -4.5616e-05 0.000380149 0 778 7627 -1.9853e-06 7.03476e-06 -1.15203e-06 3.94477e-10 7.84825e-08 
0 0 0 0.0101699 -0.00324481 0.0173577 0 778 10781 -6.33829e-08 1.02415e-05 1.45472e-06 5.18626e-10 1.03184e-07 
0 0 0 -0.000969603 -0.00109089 0.00596279 0 778 702 -1.15589e-06 1.13446e-05 1.02025e-06 5.56723e-10 1.10764e-07 
0 0 0 0.0026602 -0.000492809 0.00267368 0 778 6441 -1.55529e-06 1.24207e-05 2.88935e-06 5.97734e-10 1.18924e-07 
0 0 0 -4.15532e-05 -3.89916e-05 -0.00016982 0 778 16602 -9.52709e-07 7.66238e-06 2.65219e-06 4.22224e-10 8.40033e-08 
0 0 0 0.000103044 -0.000110354 0.000723345 0 778 9644 7.3435e-08 9.70599e-06 2.39816e-06 5.12106e-10 1.01887e-07 
0 0 0 -0.0479665 -0.0658475 0.352253 0 778 5801 1.72731e-15 1.02659e-05 1.35713e-06 5.18851e-10 1.03229e-07 
0 0 0 -0.012258 0.0018885 -0.00969115 0 778 6537 3.09071e-08 1.03379e-05 1.30653e-06 5.37297e-10 1.06899e-07 
0 0 0 0.000499437 -0.000387251 0.00124203 0 778 5728 -5.98456e-07 6.0985e-06 -2.12558e-07 3.22924e-10 6.42463e-08 
0 0 0 -0.00178694 0.000440219 -0.00172713 0 778 11852 4.32337e-07 1.52116e-05 2.26161e-06 6.9914e-10 1.39102e-07 
0 0 0 -0.00314344 -0.000224774 0.00122765 0 778 17490 -2.7944e-08 9.80191e-06 1.19964e-06 5.03512e-10 1.00177e-07 
0 0 0 -0.00505684 0.000956215 -0.00521858 0 778 6436 -8.35889e-07 8.79788e-06 1.94722e-06 4.68975e-10 9.33051e-08 
0 0 0 -0.00504189 5.50494e-05 -0.000299204 0 778 8211 2.37944e-12 1.02279e-05 1.34965e-06 5.17366e-10 1.02933e-07 
0 0 0 -0.00606321 0.00113314 -0.00597497 0 778 338 2.13135e-10 1.03743e-05 1.37898e-06 5.25997e-10 1.04651e-07 
0 0 0 -0.00541404 0.000126554 -0.000677112 0 778 15810 3.00117e-14 1.0266e-05 1.35716e-06 5.18852e-10 1.03229e-07 
0 0 0 -0.00628842 -0.000512286 0.00269909 0 778 18396 -2.77674e-09 9.90331e-06 1.27581e-06 5.04693e-10 1.00412e-07 
0 0 0 -0.00537589 0.00883851 -0.047283 0 778 17917 3.27371e-13 1.02614e-05 1.35625e-06 5.1865e-10 1.03189e-07 
0 0 0 -0.00749503 0.00801253 -0.0431204 0 778 9557 1.02454e-10 1.08065e-05 1.46078e-06 5.26933e-10 1.04837e-07 
0 0 0 -0.0534736 0.042617 -0.22798 0 778 6450 -4.19046e-07 1.04923e-05 1.4564e-07 5.18851e-10 1.03229e-07 
0 0 0 0.0492783 0.0198608 -0.106246 0 778 3551 -9.72653e-18 1.02659e-05 1.35713e-06 5.18851e-10 1.03229e-07 
0 0 0 0.00881007 0.00162228 -0.0083042 0 778 10802 -1.019e-08 1.02761e-05 1.37e-06 5.34187e-10 1.0628e-07 
0 0 0 0.00660337 0.00167316 -0.00987298 0 778 924 -2.6578e-07 8.14531e-06 2.06353e-07 4.00546e-10 7.96901e-08 
0 0 0 0.0012266 -0.000335713 0.00179591 0 778 9184 4.18043e-16 1.02658e-05 1.35712e-06 5.18849e-10 1.03228e-07 
0 0 0 0.00538998 0.00137143 -0.00672002 0 778 2102 1.41485e-07 1.42032e-05 5.88872e-06 6.89247e-10 1.37133e-07 
0 0 0 0.0136437 0.00289946 -0.0155107 0 778 7257 7.19908e-19 1.02659e-05 1.35713e-06 5.18851e-10 1.03229e-07 
0 0 0 0.00599783 9.26412e-06 -4.95586e-05 0 778 4160 1.51216e-17 1.02659e-05 1.35713e-06 5.18851e-10 1.03229e-07 
0 0 0 0.00110937 -0.000704139 0.00229096 0 778 4952 -3.55082e-08 8.75946e-06 1.14118e-06 4.06275e-10 8.08299e-08 
0 0 0 0.00705342 -0.000408454 0.00218504 0 778 13493 -5.00186e-17 1.02659e-05 1.35713e-06 5.18851e-10 1.03229e-07 
0 0 0 0.000809474 0.000164837 0.000222161 0 778 11962 -3.5581e-07 1.18926e-05 1.84015e-06 6.16791e-10 1.22716e-07 
0 0 0 0.00777483 -0.000143636 0.000767134 0 778 15835 -5.09171e-13 1.02722e-05 1.35836e-06 5.19017e-10 1.03262e-07 
0 0 0 0.00139994 -0.000437957 0.00229121 0 778 10116 8.67032e-08 1.02326e-05 1.35444e-06 5.15679e-10 1.02598e-07 
0 0 0 -0.0025697 -0.00320275 0.0171332 0 778 15146 -2.50331e-17 1.02659e-05 1.35713e-06 5.18851e-10 1.03229e-07 
0 0 0 0.0020114 0.000157202 0.00170981 0 778 14048 3.03424e-06 6.85299e-06 -1.69534e-07 4.97715e-10 9.90235e-08 
0 0 0 -0.00163187 -0.000320514 -0.000992733 0 778 1313 8.46796e-06 9.10524e-06 -2.94774e-06 3.40728e-10 6.77885e-08 
0 0 0 0.0015965 4.87232e-05 0.000136455 0 778 14597 -3.92426e-06 7.48213e-06 6.89877e-06 4.75984e-10 9.46997e-08 
0 0 0 -0.237158 0.0396979 -0.102472 0 780 4777 4.0728e-17 9.53905e-06 2.53098e-06 5.00925e-10 9.96621e-08 
0 0 0 1.27201 -13.3592 11.5566 0 928 753 0.0192978 0.0333526 0.0344544 4.12201e-08 8.24294e-06 
0 0 0 -1.52995 5.22148 20.0143 0 938 20013 -0.00271253 -0.0391939 0.0267241 1.18935e-07 1.58793e-05 
0 0 0 1.14575e-05 5.99796e-06 -8.97128e-06 0 775 6076 3.45123e-07 1.10662e-05 3.749e-07 5.36029e-10 1.06647e-07 
0 0 0 -1.23481e-05 -7.58254e-07 1.04005e-05 0 775 12 -2.11961e-06 1.17425e-05 -6.28775e-07 5.61474e-10 1.1171e-07 
0 0 0 -6.5911e-05 -2.27421e-05 -0.000149133 0 775 3998 1.7162e-07 1.02221e-05 -1.51705e-06 5.19492e-10 1.03356e-07 
0 0 0 -1.21323e-05 -1.70218e-05 -8.5864e-05 0 775 9210 8.4428e-08 9.28248e-06 -1.0186e-06 4.83628e-10 9.62205e-08 
0 0 0 2.38281e-06 -5.37135e-07 2.74501e-06 0 775 5900 2.64715e-06 7.13978e-06 -2.56424e-06 4.18222e-10 8.3207e-08 
0 0 0 1.17718e-05 2.21723e-06 4.04839e-06 0 775 1890 9.49559e-07 1.32217e-05 -6.50124e-06 6.41045e-10 1.27542e-07 