ITEM: TIMESTEP
750000
ITEM: NUMBER OF ENTRIES
19
ITEM: BOX BOUNDS ff ff ff
-0.01 0.45
-0.15 0.15
-0.08 0.1
ITEM: ENTRIES c_pwc[1] c_pwc[2] c_pwc[3] 
0 938 75 
0 914 33 
0 798 33 
0 850 41 
0 885 41 
0 885 48 
0 885 79 
0 850 48 
0 850 79 
0 945 74 
0 888 35 
0 378 25 
0 389 14 
0 397 57 
0 405 27 
0 374 7 
0 433 4 
0 405 24 
0 394 17 
