ITEM: TIMESTEP
6200000
ITEM: NUMBER OF ENTRIES
2044
ITEM: BOX BOUNDS ff ff ff
-0.01 0.45
-0.15 0.15
-0.08 0.1
ITEM: ENTRIES c_pwc[1] c_pwc[2] c_pwc[3] c_pwc[4] c_pwc[5] c_pwc[6] c_pwc[7] c_pwc[8] c_pwc[9] c_pwc[10] c_pwc[11] c_pwc[12] c_pwc[13] c_pwc[14] 
0 0 0 -0.0140585 -0.368893 0.278575 0 786 6272 2.84645e-18 5.73455e-06 3.61347e-06 3.74448e-10 7.44976e-08 
0 0 0 0.00488486 -0.373632 0.282153 0 786 10907 -9.15464e-19 5.73455e-06 3.61347e-06 3.74448e-10 7.44976e-08 
0 0 0 0.00168358 0.0197112 -0.0508806 0 780 11531 1.40774e-18 9.53905e-06 2.53098e-06 5.00925e-10 9.96621e-08 
0 0 0 -0.0183502 0.000177132 -0.000941889 0 778 7649 8.5368e-09 9.83662e-06 1.21204e-06 5.03963e-10 1.00267e-07 
0 0 0 0.0213462 -0.0023404 0.01252 0 778 8455 2.99888e-18 1.02659e-05 1.35713e-06 5.18851e-10 1.03229e-07 
0 0 0 -0.00784536 -0.00861133 0.0460665 0 778 9977 -2.35762e-19 1.02659e-05 1.35713e-06 5.18851e-10 1.03229e-07 
0 0 0 0.0295055 -0.0014628 0.00782528 0 778 10496 -7.01161e-19 1.02659e-05 1.35713e-06 5.18851e-10 1.03229e-07 
0 0 0 -0.00202203 -0.000233897 0.00140404 0 778 10360 9.49867e-09 9.30389e-06 9.9282e-07 4.90604e-10 9.76085e-08 
0 0 0 -0.0129087 -0.00161512 0.00864249 0 778 9279 -1.52041e-12 1.02801e-05 1.35995e-06 5.19431e-10 1.03344e-07 
0 0 0 -0.014865 -0.00356333 0.0190621 0 778 10613 1.46663e-18 1.02659e-05 1.35713e-06 5.18851e-10 1.03229e-07 
0 0 0 0.00932979 -0.00375221 0.0204037 0 778 700 -6.52718e-08 1.03074e-05 1.42943e-06 5.33854e-10 1.06214e-07 
0 0 0 0.00234151 -6.36891e-07 0.000237695 0 776 7937 2.96268e-08 1.1036e-05 -5.90068e-07 5.41725e-10 1.0778e-07 
0 0 0 1.08637e-06 -3.81123e-07 0.000178119 0 776 5540 4.47761e-09 1.06016e-05 -1.29611e-07 5.27469e-10 1.04943e-07 
0 0 0 0.00271834 -4.66124e-07 -0.00017494 0 776 1200 -2.56964e-09 1.05352e-05 -2.09145e-08 5.25243e-10 1.04501e-07 
0 0 0 0.000186534 1.42909e-06 -0.000473135 0 776 1871 1.42051e-08 1.06141e-05 1.10993e-07 5.28274e-10 1.05104e-07 
0 0 0 -0.000169327 -6.00585e-06 -0.000461893 0 776 206 -9.80333e-09 1.04301e-05 4.22836e-08 5.20542e-10 1.03565e-07 
0 0 0 -0.00087159 -1.71894e-05 -0.000470795 0 776 1972 5.6733e-10 1.08973e-05 3.44606e-07 5.33614e-10 1.06166e-07 
0 0 0 4.55254e-05 4.52557e-06 -0.000628295 0 776 733 1.21377e-08 1.10839e-05 1.06203e-06 5.44401e-10 1.08312e-07 
0 0 0 9.1234e-05 5.86179e-08 0.00205998 0 776 9680 1.27854e-14 1.05194e-05 2.99772e-14 5.24834e-10 1.04419e-07 
0 0 0 0.0020685 -2.32676e-12 0.00479713 0 776 414 -2.99515e-19 1.05196e-05 -1.39433e-19 5.24825e-10 1.04417e-07 
0 0 0 0.00192966 -1.35995e-12 -0.00366115 0 776 690 -2.47367e-19 1.05196e-05 -4.06741e-19 5.24825e-10 1.04417e-07 
0 0 0 0.000279536 4.4654e-07 -0.00100701 0 776 280 1.08989e-09 1.05161e-05 2.17695e-10 5.24806e-10 1.04414e-07 
0 0 0 -0.000457498 6.11505e-06 -0.000764058 0 776 1894 -1.03961e-09 1.03344e-05 -1.75521e-10 5.19977e-10 1.03453e-07 
0 0 0 0.000305063 2.17502e-05 -0.000866233 0 776 210 -1.45407e-08 1.13476e-05 4.52937e-07 5.56663e-10 1.10752e-07 
0 0 0 -0.00216524 2.66843e-12 0.00204311 0 776 894 -2.99529e-19 1.05196e-05 2.99478e-19 5.24825e-10 1.04417e-07 
0 0 0 -0.000605519 -8.69759e-05 -6.56652e-05 0 776 1225 9.89275e-07 1.0983e-05 -1.51621e-06 5.21438e-10 1.03744e-07 
0 0 0 0.000371845 -5.84308e-05 0.000258962 0 776 3512 7.797e-08 1.16995e-05 -4.36039e-06 5.50943e-10 1.09614e-07 
0 0 0 0.00178958 -1.84335e-12 -0.0037132 0 776 101 3.00834e-19 1.05196e-05 1.66894e-20 5.24825e-10 1.04417e-07 
0 0 0 0.00107248 3.23603e-06 -0.00659964 0 776 317 3.96356e-10 1.05583e-05 -1.24146e-09 5.26811e-10 1.04813e-07 
0 0 0 0.00152662 -8.69415e-08 -0.0146807 0 776 1705 -3.7693e-14 1.05206e-05 3.59134e-13 5.24839e-10 1.0442e-07 
0 0 0 0.00267815 0.000992308 -0.00823677 0 776 2352 7.8825e-08 1.53591e-05 5.72075e-07 8.76349e-10 1.74363e-07 
0 0 0 0.00555385 -1.42082e-12 0.00219334 0 776 6408 -4.5863e-18 1.05196e-05 -1.76799e-18 5.24825e-10 1.04417e-07 
0 0 0 5.74558e-05 2.8065e-05 0.000578557 0 776 553 -1.33385e-09 1.10362e-05 -4.20244e-09 5.47896e-10 1.09008e-07 
0 0 0 -0.000124969 1.82118e-07 -0.00054622 0 776 585 8.00651e-11 1.05116e-05 5.74463e-11 5.24598e-10 1.04372e-07 
0 0 0 -0.000532861 -5.50108e-06 -0.000497004 0 776 2069 3.88518e-08 1.05943e-05 1.46888e-07 5.26118e-10 1.04675e-07 
0 0 0 0.000605976 4.75217e-06 -0.000711747 0 776 531 -2.7684e-07 1.07981e-05 5.67736e-07 5.35072e-10 1.06456e-07 
0 0 0 0.00214482 -7.7156e-06 -0.000456024 0 776 2116 3.33483e-07 1.17889e-05 1.13551e-06 5.64597e-10 1.12331e-07 
0 0 0 0.00731665 2.4437e-12 0.00106115 0 776 6702 7.5105e-18 1.05196e-05 1.11148e-18 5.24825e-10 1.04417e-07 
0 0 0 -6.53123e-05 -3.23523e-07 -0.000586855 0 776 1002 1.49474e-13 1.05159e-05 -7.44741e-14 5.24634e-10 1.04379e-07 
0 0 0 0.00186833 -3.13243e-12 0.0024986 0 776 1470 3.00838e-19 1.05196e-05 3.02139e-19 5.24825e-10 1.04417e-07 
0 0 0 0.00337159 5.792e-06 -0.00151109 0 776 4634 -2.20883e-09 1.6313e-05 -2.9114e-09 7.04285e-10 1.40125e-07 
0 0 0 0.000537876 5.83043e-06 -0.000588225 0 776 154 3.02664e-08 1.11178e-05 6.69347e-07 5.45786e-10 1.08588e-07 
0 0 0 0.00743569 -3.79311e-07 -0.00293435 0 776 3983 -7.89349e-13 1.05206e-05 3.09169e-13 5.24778e-10 1.04408e-07 
0 0 0 0.00732651 2.0961e-05 -0.0011235 0 776 4185 1.4128e-10 9.979e-06 -3.1821e-10 5.11266e-10 1.0172e-07 
0 0 0 -0.00194017 -4.68293e-05 -0.000677031 0 776 72 9.21533e-08 1.16199e-05 1.62232e-06 5.50843e-10 1.09594e-07 
0 0 0 -0.000828002 3.40249e-05 -0.000784045 0 776 4165 3.61903e-06 1.65345e-05 5.73573e-06 7.16298e-10 1.42516e-07 
0 0 0 -0.00472198 -1.5837e-06 -0.00423038 0 776 1920 1.4305e-09 1.05389e-05 -1.14732e-09 5.25126e-10 1.04477e-07 
0 0 0 -0.00347865 5.40772e-12 -0.0179952 0 776 18 -1.35432e-19 1.05196e-05 2.39597e-18 5.24825e-10 1.04417e-07 
0 0 0 0.0145541 -1.19881e-12 0.0203514 0 776 9639 -8.02964e-19 1.05196e-05 2.39585e-18 5.24825e-10 1.04417e-07 
0 0 0 0.00588228 -5.22719e-12 0.00825753 0 776 4095 -4.24754e-19 1.05196e-05 -8.51951e-19 5.24825e-10 1.04417e-07 
0 0 0 -0.000275726 0.000251847 -0.000242889 0 776 4938 5.51104e-06 2.17322e-06 5.13183e-06 2.53925e-10 5.05184e-08 
0 0 0 0.0130757 -6.24738e-12 0.0205155 0 776 7431 2.43515e-18 1.05196e-05 2.39624e-18 5.24825e-10 1.04417e-07 
0 0 0 0.00846965 3.15183e-12 0.012163 0 776 3427 -1.19797e-18 1.05196e-05 -1.19805e-18 5.24825e-10 1.04417e-07 
0 0 0 -0.000780525 -0.000107531 -0.00349198 0 776 1367 -2.22412e-06 1.16414e-05 2.66355e-06 5.38619e-10 1.07162e-07 
0 0 0 0.00457593 -0.000195002 -0.00444455 0 776 7185 -3.90736e-06 1.42689e-05 4.58021e-06 6.02983e-10 1.19969e-07 
0 0 0 0.00888244 7.99288e-05 -0.00613515 0 776 4532 -1.11713e-05 5.88587e-06 3.74007e-05 3.75423e-10 7.46915e-08 
0 0 0 0.0113492 -3.92347e-05 -0.00315416 0 776 1890 -1.20714e-09 1.02052e-05 2.95351e-09 5.05784e-10 1.00629e-07 
0 0 0 0.0153938 -3.01919e-12 0.0205031 0 776 1887 2.30653e-18 1.05196e-05 -2.41722e-18 5.24825e-10 1.04417e-07 
0 0 0 0.00709856 1.56546e-07 -0.00759974 0 776 1118 3.1037e-13 1.05192e-05 -3.32067e-13 5.24846e-10 1.04422e-07 
0 0 0 0.0178193 -2.00449e-12 0.0640564 0 776 4164 2.41721e-18 1.05196e-05 9.58407e-18 5.24825e-10 1.04417e-07 
0 0 0 0.0106532 -2.05749e-07 -0.0105577 0 776 7843 -6.24605e-13 1.05257e-05 6.21394e-13 5.24983e-10 1.04449e-07 
0 0 0 0.036193 -2.16562e-12 0.0589777 0 776 3491 4.83423e-18 1.05196e-05 4.88727e-18 5.24825e-10 1.04417e-07 
0 0 0 0.0199955 -3.94225e-09 -0.0372454 0 776 2966 -2.1858e-14 1.05195e-05 4.07143e-14 5.24823e-10 1.04417e-07 
0 0 0 0.0648371 -4.74378e-12 0.074546 0 776 8128 0 1.05196e-05 0 5.24825e-10 1.04417e-07 
0 0 0 0.00160457 9.321e-06 0.0167228 0 776 4298 3.20457e-07 1.05411e-05 -5.26078e-06 5.27556e-10 1.04961e-07 
0 0 0 0.00152626 8.30774e-05 0.0012876 0 777 9269 1.19247e-07 9.57857e-06 -2.19402e-06 5.11305e-10 1.01727e-07 
0 0 0 0.00252177 9.86703e-06 0.0181535 0 777 11208 2.96319e-07 1.18106e-05 1.48212e-08 5.69022e-10 1.13211e-07 
0 0 0 0.00383695 -4.13476e-05 0.00124007 0 777 8603 -2.2088e-07 9.17769e-06 -8.17634e-09 4.70035e-10 9.35159e-08 
0 0 0 0.0133991 -2.01302e-05 0.0167818 0 777 9160 -4.72598e-07 1.1113e-05 -6.61316e-07 5.40062e-10 1.07449e-07 
0 0 0 0.0133331 1.54048e-12 0.0141719 0 777 3630 -8.53437e-19 1.05196e-05 6.747e-19 5.24825e-10 1.04417e-07 
0 0 0 -0.0122042 -5.22719e-12 0.0328144 0 777 1366 -1.1979e-18 1.05196e-05 4.79211e-18 5.24825e-10 1.04417e-07 
0 0 0 0.00314449 -0.000126786 -0.000682612 0 775 3087 4.38029e-09 9.92699e-06 -1.23919e-06 5.0709e-10 1.00889e-07 
0 0 0 -0.0132181 -0.00190435 -0.0102437 0 775 4248 1.44591e-05 1.00515e-05 -9.55466e-06 5.63532e-10 1.12119e-07 
0 0 0 0.0138099 -0.000457072 -0.00244724 0 775 6574 1.53015e-12 1.02626e-05 -1.35651e-06 5.18823e-10 1.03223e-07 
0 0 0 0.0169578 -0.00638978 -0.0341823 0 775 5900 1.37229e-18 1.02659e-05 -1.35713e-06 5.18851e-10 1.03229e-07 
0 0 0 0.0268434 -0.00367147 -0.0196406 0 775 8439 2.68759e-16 1.02659e-05 -1.35713e-06 5.18851e-10 1.03229e-07 
0 0 0 0.0242943 -0.00770138 -0.0411986 0 775 1039 -8.64811e-14 1.02659e-05 -1.35715e-06 5.18851e-10 1.03229e-07 
0 0 0 0.000378809 -0.000146869 -0.000724454 0 774 2641 -2.72084e-09 1.0345e-05 -6.37772e-07 5.14584e-10 1.0238e-07 
0 0 0 -4.95473e-05 -0.000156379 -0.000894242 0 774 5113 1.22025e-08 9.88085e-06 -1.21367e-06 5.07536e-10 1.00977e-07 
0 0 0 0.00864181 -0.00033914 -0.00185992 0 774 4325 4.3337e-11 1.02377e-05 -1.35198e-06 5.19716e-10 1.03401e-07 
0 0 0 -0.000762989 -0.000152712 -0.000907058 0 774 3865 3.13221e-08 9.86816e-06 -1.14742e-06 5.08004e-10 1.01071e-07 
0 0 0 0.0127012 -0.000874715 -0.004592 0 774 1165 1.04987e-07 1.12888e-05 -1.90558e-07 5.41549e-10 1.07745e-07 
0 0 0 0.0186598 -0.0010836 -0.0052926 0 774 2858 7.09884e-08 9.91922e-06 -1.1972e-06 4.86167e-10 9.67257e-08 
0 0 0 0.0222399 -0.00303432 -0.0154362 0 774 9441 4.22986e-07 1.2085e-05 1.30674e-06 5.30306e-10 1.05508e-07 
0 0 0 0.03038 -0.00332394 -0.0185741 0 774 8682 2.36267e-08 9.35726e-06 7.21074e-07 5.07579e-10 1.00986e-07 
0 0 0 0.00182805 -0.000128896 -0.000349019 0 774 1045 -4.09274e-08 9.59367e-06 -1.09922e-06 4.81143e-10 9.57261e-08 
0 0 0 0.0220096 -0.00131208 -0.0070126 0 774 6076 -7.30085e-12 1.02631e-05 -1.35651e-06 5.185e-10 1.03159e-07 
0 0 0 0.00229633 -0.000199834 -0.00148629 0 774 12 6.69142e-08 9.72942e-06 -1.21396e-06 5.16957e-10 1.02852e-07 
0 0 0 0.0155506 -0.00159154 -0.00869726 0 774 3877 -4.10508e-06 1.31888e-05 2.3508e-06 5.9687e-10 1.18752e-07 
0 0 0 0.0241105 -0.000291547 -0.0017431 0 774 3081 9.24766e-07 3.46639e-05 -8.40431e-06 1.18925e-09 2.36628e-07 
0 0 0 0.0152477 -0.0043755 -0.0232005 0 774 6544 9.47457e-10 1.01994e-05 -1.34228e-06 5.08335e-10 1.01136e-07 
0 0 0 0.0352673 -0.00302677 -0.0161867 0 774 9818 -7.8672e-05 -3.6994e-06 -7.60223e-05 5.18387e-10 1.03136e-07 
0 0 0 0.0284149 -0.0213568 -0.114249 0 774 11745 5.11359e-17 1.02659e-05 -1.35713e-06 5.18851e-10 1.03229e-07 
0 0 0 -0.00623576 -0.00741403 -0.0396615 0 774 6493 7.75703e-15 1.02659e-05 -1.35713e-06 5.18851e-10 1.03229e-07 
0 0 0 -0.00163782 -0.00724301 -0.0387467 0 774 3561 -9.06817e-15 1.02657e-05 -1.35711e-06 5.18851e-10 1.03229e-07 
0 0 0 -0.00793004 -0.00125555 -0.00671869 0 774 10425 -8.02873e-13 1.02603e-05 -1.35606e-06 5.18743e-10 1.03207e-07 
0 0 0 0.0402212 0.00105453 0.00507231 0 774 5875 5.63637e-09 1.02601e-05 -1.36542e-06 5.41399e-10 1.07715e-07 
0 0 0 -0.00821779 0.00251816 0.0134743 0 774 4050 1.42733e-12 1.02709e-05 -1.35807e-06 5.18889e-10 1.03236e-07 
0 0 0 0.0309249 -0.00315818 -0.0168925 0 774 8267 -3.58047e-12 1.02595e-05 -1.35586e-06 5.18542e-10 1.03167e-07 
0 0 0 0.0220187 -0.00274282 -0.0146728 0 774 9650 -5.00119e-19 1.02659e-05 -1.35713e-06 5.18851e-10 1.03229e-07 
0 0 0 0.0130772 -5.77013e-05 -0.000308675 0 774 4459 2.74536e-18 1.02659e-05 -1.35713e-06 5.18851e-10 1.03229e-07 
0 0 0 0.0823245 -0.0438683 -0.113237 0 772 1541 8.3352e-18 9.53905e-06 -2.53098e-06 5.00925e-10 9.96621e-08 
0 0 0 -0.106872 -0.253068 -0.191108 0 766 11158 -3.11443e-06 4.2908e-06 -4.70374e-06 3.74448e-10 7.44976e-08 
0 0 0 1.86329e-290 -8.4891e-20 5.8979e-12 0 884 5230 -1.34019e-291 5.25978e-06 -1.62002 1.22522e-06 0.0003 
0 0 0 -0.0173415 -0.00014083 -0.0207487 0 884 11240 -0.000144103 1.71785e-05 0.000290247 2.28022e-09 4.53765e-07 
0 0 0 3.68358e-302 7.53943e-20 -5.89795e-12 0 884 3064 -9.77219e-307 5.25978e-06 -1.62002 1.22522e-06 0.0003 
0 0 0 4.29875e-302 -1.8635e-20 -2.36058e-12 0 884 871 1.07195e-306 5.25978e-06 -1.62002 1.22522e-06 0.0003 
0 0 0 -2.66861e-302 8.48163e-20 3.53504e-12 0 884 1962 5.85356e-307 5.25978e-06 -1.62002 1.22522e-06 0.0003 
0 0 0 1.96286e-17 6.6833e-17 -1.76628e-12 0 884 2565 -0.00131235 -0.00725094 -1.62111 1.22564e-06 0.000300134 
0 0 0 -3.63057e-70 4.73862e-23 -2.36053e-12 0 884 7394 -3.03745e-72 5.25978e-06 -1.62002 1.22522e-06 0.0003 
0 0 0 0.0404687 -0.0283649 0.00715479 0 884 6862 -1.69968e-07 -2.62671e-05 7.10555e-05 2.98817e-09 5.94699e-07 
0 0 0 -1.47475e-69 5.66686e-20 -4.7235e-12 0 884 3089 6.62511e-71 5.25978e-06 -1.62002 1.22522e-06 0.0003 
0 0 0 1.86151e-26 -8.48006e-20 -5.89789e-12 0 884 7839 1.60056e-27 5.25978e-06 -1.62002 1.22522e-06 0.0003 
0 0 0 0.0161567 -0.119105 -0.00499955 0 884 11121 -0.000320264 0.000621824 9.65466e-05 1.5584e-09 3.10094e-07 
0 0 0 0.0578032 -0.0887327 -0.000156528 0 884 9534 -5.69434e-06 3.85436e-06 1.37523e-05 5.9508e-10 1.18396e-07 
0 0 0 9.70521e-152 9.27464e-21 -1.18141e-12 0 884 5274 -1.221e-152 5.25978e-06 -1.62002 1.22522e-06 0.0003 
0 0 0 -1.08049e-16 7.79925e-17 5.31328e-12 0 884 2130 0.040307 0.00219075 -1.60294 1.21857e-06 0.000297887 
0 0 0 -0.0022963 -0.0658384 0.00246535 0 884 6765 -8.70023e-06 2.07994e-05 4.30089e-05 1.76199e-09 3.50613e-07 
0 0 0 0.00024686 -0.0648313 -0.000388678 0 884 9370 7.59175e-05 0.000335362 2.85745e-05 9.50475e-10 1.89113e-07 
0 0 0 -0.0374092 -0.0229787 0.0017193 0 884 6257 8.56139e-07 3.67293e-07 -1.8632e-06 4.74651e-10 9.44344e-08 
0 0 0 1.3162e-17 -7.8638e-17 5.31071e-12 0 884 4708 -0.0794048 -0.00430016 -1.63716 1.23184e-06 0.000302113 
0 0 0 2.13572e-15 -8.47439e-20 -1.85526e-302 0 863 2723 -1.62002 5.25978e-06 4.57783e-307 1.22522e-06 0.0003 
0 0 0 -3.49813e-14 -1.0235e-19 3.15639e-302 0 862 444 -1.62002 5.25978e-06 -7.1496e-307 1.22522e-06 0.0003 
0 0 0 5.36948e-14 3.7588e-20 7.42071e-303 0 862 927 -1.62002 5.25978e-06 -3.0646e-307 1.22522e-06 0.0003 
0 0 0 -0.878326 6.85935 -1.5926 0 854 994 0.0447202 -0.0204301 0.00908759 8.98922e-08 1.8088e-05 
0 0 0 -0.064354 -0.156761 -0.231781 0 854 819 0.00665189 -0.0014641 0.00298636 3.37736e-08 6.7475e-06 
0 0 0 0.00184298 -0.0134645 -0.0141882 0 854 4354 1.419e-07 1.94436e-08 6.8234e-08 5.88214e-10 1.1703e-07 
0 0 0 -0.000926367 -0.00393432 0.0225075 0 854 5061 0.000143015 -0.00011183 -0.000186325 2.85894e-09 5.68969e-07 
0 0 0 0.00378338 0.00149252 -0.0176634 0 854 9821 0.000671694 0.000152945 2.50844e-05 8.78475e-09 1.74958e-06 
0 0 0 0.00645931 -0.00754649 -0.0081382 0 854 8859 -1.63882e-05 1.31333e-06 2.72699e-06 1.1687e-09 2.3254e-07 
0 0 0 0.000529101 -0.00725979 0.00192937 0 854 6114 -1.55671e-06 6.25193e-07 4.63651e-07 3.27164e-11 6.50875e-09 
0 0 0 -0.00457046 0.0070524 0.0113224 0 854 2270 7.73171e-05 -1.96415e-05 -3.3297e-05 1.28138e-09 2.54962e-07 
0 0 0 0.000934978 -0.000195809 0.019225 0 854 1988 0.000166947 -2.54832e-05 -1.68299e-05 3.44077e-09 6.84814e-07 
0 0 0 -0.00838309 -0.0355953 -0.000714842 0 854 3215 0.00026698 3.06644e-06 -8.72486e-05 3.47661e-09 6.91949e-07 
0 0 0 -0.0106012 0.00687419 0.0789778 0 854 7457 0.000103856 -3.5705e-05 -3.77049e-05 9.20935e-10 1.83235e-07 
0 0 0 1.86329e-290 -8.4891e-20 5.8979e-12 0 850 5230 -1.34019e-291 5.25978e-06 1.62002 1.22522e-06 0.0003 
0 0 0 3.68358e-302 7.53943e-20 -5.89795e-12 0 850 3064 8.8309e-307 5.25978e-06 1.62002 1.22522e-06 0.0003 
0 0 0 4.94635e-112 9.4637e-21 -2.36057e-12 0 850 478 3.85712e-113 5.25978e-06 1.62002 1.22522e-06 0.0003 
0 0 0 4.29875e-302 -1.8635e-20 -2.36058e-12 0 850 871 -9.77847e-307 5.25978e-06 1.62002 1.22522e-06 0.0003 
0 0 0 -2.66861e-302 8.48163e-20 3.53504e-12 0 850 1962 -4.9386e-307 5.25978e-06 1.62002 1.22522e-06 0.0003 
0 0 0 -1.43123e-302 -8.5057e-20 2.36056e-12 0 850 283 5.11944e-307 5.25978e-06 1.62002 1.22522e-06 0.0003 
0 0 0 -1.942e-17 -7.445e-17 -1.76651e-12 0 850 6540 0.00131235 0.00726147 1.62111 1.22564e-06 0.000300134 
0 0 0 1.96286e-17 6.6833e-17 -1.76628e-12 0 850 2565 -0.00084288 -0.00465516 1.61893 1.2248e-06 0.000299866 
0 0 0 2.93596e-22 5.65995e-20 -1.18142e-12 0 850 5520 1.00369e-23 5.25978e-06 1.62002 1.22522e-06 0.0003 
0 0 0 -3.63057e-70 4.73862e-23 -2.36053e-12 0 850 7394 -3.03745e-72 5.25978e-06 1.62002 1.22522e-06 0.0003 
0 0 0 2.141e-225 2.81876e-20 5.89789e-12 0 850 2321 -4.70785e-227 5.25978e-06 1.62002 1.22522e-06 0.0003 
0 0 0 -4.86771e-81 -8.48681e-20 -2.36059e-12 0 850 7581 6.42079e-82 5.25978e-06 1.62002 1.22522e-06 0.0003 
0 0 0 1.35817e-16 -3.37458e-17 -5.87556e-13 0 850 10198 0.0117335 0.000763474 1.61936 1.22497e-06 0.000299919 
0 0 0 -1.47475e-69 5.66686e-20 -4.7235e-12 0 850 3089 6.62511e-71 5.25978e-06 1.62002 1.22522e-06 0.0003 
0 0 0 -1.54295e-16 3.97265e-17 -5.87448e-13 0 850 5323 -0.0133054 -0.000854528 1.62068 1.22548e-06 0.000300081 
0 0 0 1.86151e-26 -8.48006e-20 -5.89789e-12 0 850 7839 1.60056e-27 5.25978e-06 1.62002 1.22522e-06 0.0003 
0 0 0 4.53164e-303 -1.89251e-20 -5.8979e-12 0 850 9691 -1.57282e-307 5.25978e-06 1.62002 1.22522e-06 0.0003 
0 0 0 7.52363e-303 -1.87043e-20 5.89794e-12 0 850 1583 5.90568e-307 5.25978e-06 1.62002 1.22522e-06 0.0003 
0 0 0 1.10106e-302 -9.48339e-21 -5.89796e-12 0 850 8195 -4.29381e-307 5.25978e-06 1.62002 1.22522e-06 0.0003 
0 0 0 9.70521e-152 9.27464e-21 -1.18141e-12 0 850 5274 -1.221e-152 5.25978e-06 1.62002 1.22522e-06 0.0003 
0 0 0 3.84286e-259 5.64138e-20 2.36059e-12 0 850 10333 1.14131e-259 5.25978e-06 1.62002 1.22522e-06 0.0003 
0 0 0 -1.08049e-16 7.79925e-17 5.31328e-12 0 850 2130 0.0794048 0.0043107 1.63716 1.23184e-06 0.000302113 
0 0 0 1.3162e-17 -7.8638e-17 5.31071e-12 0 850 4708 -0.040307 -0.00218024 1.60294 1.21857e-06 0.000297887 
0 0 0 -3.49813e-14 -1.0235e-19 3.15639e-302 0 822 444 1.62002 5.25978e-06 8.10049e-307 1.22522e-06 0.0003 
0 0 0 5.36948e-14 3.7588e-20 7.42071e-303 0 821 927 1.62002 5.25978e-06 2.11098e-307 1.22522e-06 0.0003 
0 0 0 2.13572e-15 -8.47439e-20 -1.85526e-302 0 821 2723 1.62002 5.25978e-06 -3.65279e-307 1.22522e-06 0.0003 
0 0 0 -0.0027834 -0.278277 -0.0791734 0 916 7893 -2.41672e-08 2.18637e-06 -2.39067e-06 2.21292e-10 4.40259e-08 
0 0 0 4.94635e-112 9.4637e-21 -2.36057e-12 0 885 478 3.85712e-113 5.25978e-06 -1.62002 1.22522e-06 0.0003 
0 0 0 -1.43123e-302 -8.5057e-20 2.36056e-12 0 885 283 -4.19343e-307 5.25978e-06 -1.62002 1.22522e-06 0.0003 
0 0 0 -1.942e-17 -7.445e-17 -1.76651e-12 0 885 6540 0.00084288 0.00466567 -1.61893 1.2248e-06 0.000299866 
0 0 0 2.93596e-22 5.65995e-20 -1.18142e-12 0 885 5520 1.00369e-23 5.25978e-06 -1.62002 1.22522e-06 0.0003 
0 0 0 2.141e-225 2.81876e-20 5.89789e-12 0 885 2321 -4.70785e-227 5.25978e-06 -1.62002 1.22522e-06 0.0003 
0 0 0 -4.86771e-81 -8.48681e-20 -2.36059e-12 0 885 7581 6.42079e-82 5.25978e-06 -1.62002 1.22522e-06 0.0003 
0 0 0 1.35817e-16 -3.37458e-17 -5.87556e-13 0 885 10198 0.0133054 0.000865049 -1.62068 1.22548e-06 0.000300081 
0 0 0 -1.54295e-16 3.97265e-17 -5.87448e-13 0 885 5323 -0.0117335 -0.000752955 -1.61936 1.22497e-06 0.000299919 
0 0 0 4.53164e-303 -1.89251e-20 -5.8979e-12 0 885 9691 6.42751e-308 5.25978e-06 -1.62002 1.22522e-06 0.0003 
0 0 0 7.52363e-303 -1.87043e-20 5.89794e-12 0 885 1583 -4.95339e-307 5.25978e-06 -1.62002 1.22522e-06 0.0003 
0 0 0 1.10106e-302 -9.48339e-21 -5.89796e-12 0 885 8195 3.36421e-307 5.25978e-06 -1.62002 1.22522e-06 0.0003 
0 0 0 3.84286e-259 5.64138e-20 2.36059e-12 0 885 10333 1.14131e-259 5.25978e-06 -1.62002 1.22522e-06 0.0003 
0 0 0 0.010541 -0.00605884 -0.000780465 0 853 2249 -7.01588e-05 -0.000179549 5.67015e-05 4.29251e-09 8.54424e-07 
0 0 0 0.064443 -0.0570495 0.0185912 0 853 8865 -0.000932954 -2.19863e-05 0.00026226 9.2804e-09 1.84841e-06 
0 0 0 -0.027032 -0.0037977 0.0804324 0 853 3981 0.000738157 -1.05465e-05 -5.26955e-05 1.3129e-09 2.61235e-07 
0 0 0 -0.0970847 -0.0296165 0.119149 0 853 6049 0.000495616 -0.0026986 -0.000128668 2.36617e-08 4.72129e-06 
0 0 0 -1.26659 -0.165824 -1.45195 0 855 4947 0.032446 0.030294 0.0201326 4.24081e-08 8.48178e-06 
0 0 0 -0.0247 -0.00274182 0.0127909 0 852 3171 -1.08403e-05 -0.000608876 -0.000115863 8.14697e-09 1.62243e-06 
0 0 0 -0.00280318 -0.000840057 -0.0132364 0 852 8629 -9.53664e-07 -0.000144554 3.92679e-05 3.1274e-09 6.22418e-07 
0 0 0 -0.0129657 0.00826205 0.0234753 0 852 10228 -5.31547e-05 -0.000396857 0.000395477 4.92592e-09 9.80583e-07 
0 0 0 0.0542065 -0.0207533 0.098263 0 852 10404 -1.26257e-05 0.00011357 5.53634e-05 1.90756e-09 3.79588e-07 
0 0 0 0.00140074 0.0476216 0.0181633 0 894 6140 0.000356339 0.0010196 -0.00216015 1.6616e-08 3.31251e-06 
0 0 0 -0.0488777 -0.0919193 0.0129979 0 894 10892 0.000181692 0.000444388 -0.00148632 1.29848e-08 2.58743e-06 
0 0 0 -0.0311025 -0.0392065 0.00552244 0 894 8282 0.000146241 -0.000247779 -0.000575434 6.94394e-09 1.38265e-06 
0 0 0 0.101082 0.184104 -0.0992641 0 894 5680 -0.000460533 -0.00295149 -0.0108162 5.97753e-08 1.19816e-05 
0 0 0 0.0140335 -0.0302661 -0.034629 0 894 1458 4.05673e-05 0.000114107 0.000242207 1.42416e-09 2.83377e-07 
0 0 0 0.0158268 -0.115088 0.00602652 0 894 747 6.22317e-05 7.03618e-05 -0.000187868 2.7809e-09 5.53434e-07 
0 0 0 0.0349479 -0.123753 0.00465487 0 894 200 4.13714e-05 6.11366e-05 -0.000185133 2.92654e-09 5.82429e-07 
0 0 0 -0.0161826 -0.117508 -0.00495687 0 894 10410 -0.000276428 -0.000200551 -0.000683031 9.00385e-09 1.79327e-06 
0 0 0 -0.0153755 -0.162373 0.0182606 0 894 3617 0.00012369 0.000292887 -0.000158904 8.90849e-10 1.77248e-07 
0 0 0 -0.00758413 -0.133045 0.0234117 0 894 5009 5.3184e-05 0.000610199 -0.00050836 4.33644e-09 8.63172e-07 
0 0 0 0.0302817 -0.099706 -0.0131016 0 894 4719 1.7814e-05 -2.73624e-05 -0.000508806 8.44149e-09 1.68115e-06 
0 0 0 0.0239636 -0.132962 0.0349236 0 894 3951 -0.000180546 7.47278e-05 -0.000334711 1.38436e-09 2.75457e-07 
0 0 0 -0.028583 0.0758864 -0.0117621 0 894 8811 -0.000466474 -2.2158e-05 -0.00373119 2.71637e-08 5.42242e-06 
0 0 0 -0.0330874 0.0273482 0.0722473 0 894 3200 0.00115045 -0.00311123 -0.00145587 7.30921e-09 1.45544e-06 
0 0 0 -0.00602653 -0.0895977 0.000623893 0 894 7607 1.30382e-06 2.82428e-06 -6.22142e-06 2.24291e-10 4.46224e-08 
0 0 0 0.0278901 -0.137325 -0.00864148 0 894 77 -0.000258233 0.000941606 -7.82513e-05 3.31976e-09 6.60717e-07 
0 0 0 0.00659126 -0.181709 0.00023033 0 894 9203 6.96182e-05 8.11103e-05 -0.000406903 5.97149e-09 1.18887e-06 
0 0 0 0.0233294 -0.203079 0.00741779 0 894 4276 -2.15319e-05 0.000272821 -0.000705126 7.85679e-09 1.56459e-06 
0 0 0 -0.0161103 0.0238399 -0.00492231 0 894 8054 3.30677e-07 -9.93661e-08 6.90568e-07 1.26118e-09 2.50943e-07 
0 0 0 -0.0125213 -0.105087 -0.000937294 0 894 5981 0.000187667 0.00058413 -5.84581e-06 5.75778e-10 1.14556e-07 
0 0 0 0.0137319 -0.222655 -0.00195701 0 894 11260 9.59158e-06 0.000424682 -0.000247935 4.56209e-09 9.08115e-07 
0 0 0 -0.0868502 -0.10137 -0.00132363 0 894 2366 0.000105419 -1.6243e-06 -0.000210862 4.04475e-09 8.05082e-07 
0 0 0 -0.0393012 0.022085 -0.0292013 0 894 4635 6.71082e-05 -0.000372576 -0.0041886 3.0619e-08 6.11483e-06 
0 0 0 0.011689 -0.185227 -0.000742569 0 894 6325 1.13948e-06 1.16537e-05 -2.34185e-05 1.03522e-09 2.05978e-07 
0 0 0 0.0851643 -0.202256 -0.0081841 0 894 8352 1.84471e-05 2.08866e-05 6.51366e-06 1.78094e-09 3.54386e-07 
0 0 0 -0.0362707 -0.168375 -0.0266855 0 894 10615 -5.03675e-05 -3.29165e-05 2.2673e-05 4.64083e-09 9.23798e-07 
0 0 0 -0.016018 -0.22926 -0.00374658 0 894 6633 0.000127313 -1.41184e-05 -0.000692192 8.94811e-09 1.78215e-06 
0 0 0 -0.00777496 -0.144555 -0.020565 0 894 4927 -0.000119448 0.000117946 -0.00156254 1.66191e-08 3.31313e-06 
0 0 0 -0.0760135 -0.113895 0.000179261 0 894 4487 6.65581e-05 0.000152037 -0.00118051 1.2175e-08 2.42582e-06 
0 0 0 0.139677 0.0986997 -0.0671278 0 894 7912 6.38558e-05 -0.00040719 -0.00145986 2.0357e-08 4.06021e-06 
0 0 0 -0.0192784 -0.0228907 0.00969122 0 894 2997 -2.23197e-05 5.06047e-05 -0.000110616 1.14607e-09 2.28037e-07 
0 0 0 -0.00304152 -0.0960806 0.00133611 0 894 2608 7.48028e-05 9.89557e-05 -0.000248094 4.1435e-09 8.24748e-07 
0 0 0 -0.0136813 -0.15602 -0.0118906 0 894 1421 0.000233587 0.00103524 6.07251e-05 2.47718e-10 4.92834e-08 
0 0 0 -0.017406 -0.0818782 0.0116772 0 894 2068 8.68919e-05 2.60533e-05 -0.000181427 1.95783e-09 3.89593e-07 
0 0 0 0.0951984 -0.217486 0.000551788 0 894 6638 8.57233e-07 2.13033e-06 -4.59267e-06 1.67367e-10 3.32973e-08 
0 0 0 -0.0293405 -0.120423 -0.00832544 0 894 5126 -1.07975e-05 -4.92994e-05 -0.000385289 6.77043e-09 1.34807e-06 
0 0 0 0.00605457 -0.116214 -0.00585691 0 894 7297 0.000100375 0.000184539 -0.000348901 6.12014e-09 1.21849e-06 
0 0 0 0.0270712 -0.123096 0.0164161 0 894 10185 0.000149583 0.000173843 -0.000458678 4.6168e-09 9.1901e-07 
0 0 0 0.0318705 -0.147089 -0.0458331 0 894 6615 -1.26652e-05 1.52784e-05 3.96906e-05 7.19177e-09 1.43204e-06 
0 0 0 -0.00724119 -0.0354527 0.00419155 0 894 3707 -1.4194e-05 0.000159713 -0.000320686 4.60622e-09 9.16904e-07 
0 0 0 0.0201278 -0.126367 0.00131474 0 894 5758 1.6179e-05 3.76366e-05 -8.19335e-05 1.85985e-09 3.70091e-07 
0 0 0 0.0256272 -0.120086 -0.0273088 0 894 6215 0.000140347 -1.24168e-05 -0.00338146 2.67968e-08 5.34893e-06 
0 0 0 0.0215639 -0.1123 0.00382013 0 894 8763 -1.97581e-05 0.000233474 -0.00025773 3.94066e-09 7.84353e-07 
0 0 0 0.0543693 -0.18272 -0.00126934 0 894 7633 6.25406e-06 0.000160411 -0.000321066 5.27789e-09 1.05069e-06 
0 0 0 0.0651018 -0.152156 0.00648553 0 894 2976 0.000210856 6.79832e-05 -0.000501739 6.16145e-09 1.22672e-06 
0 0 0 0.0310995 -0.120931 -0.00861807 0 894 11117 -0.000312369 0.000449392 -0.00109458 1.24518e-08 2.48105e-06 
0 0 0 -0.062546 -0.115946 -0.0109824 0 894 5948 -1.34943e-05 -7.98486e-06 -3.58535e-05 3.04024e-09 6.05066e-07 
0 0 0 0.0215084 -0.0820606 -0.0023203 0 894 168 -8.16969e-05 0.00109294 -0.000234744 4.45692e-09 8.87167e-07 
0 0 0 0.036262 -0.103654 6.89809e-05 0 894 9720 -4.74438e-05 0.000121181 -0.000260276 4.44535e-09 8.84864e-07 
0 0 0 0.056659 -0.215759 0.00149844 0 894 9655 0.000374596 0.00122352 -7.79476e-05 1.76236e-09 3.50688e-07 
0 0 0 0.015862 -0.107606 -0.00290409 0 894 8174 -4.63909e-07 1.30942e-06 2.77834e-06 7.47001e-10 1.48625e-07 
0 0 0 0.0804855 -0.204396 0.00263071 0 894 3325 -0.000407844 0.000206925 -0.000914669 1.00181e-08 1.99553e-06 
0 0 0 0.00594885 -0.210562 -0.00478817 0 894 3830 -7.19067e-06 8.48655e-06 2.22465e-05 2.23377e-10 4.44407e-08 
0 0 0 0.13604 -0.211897 -0.00725408 0 894 2477 -7.8794e-07 1.85351e-05 3.71037e-05 4.35202e-10 8.65853e-08 
0 0 0 0.058966 -0.214755 -0.0184731 0 894 2664 0.000551719 0.000904534 -0.000199296 6.14291e-09 1.22303e-06 
0 0 0 -0.0530712 -0.273323 0.0202867 0 894 6679 -6.11889e-05 0.000360402 -0.000731118 6.70977e-09 1.33598e-06 
0 0 0 0.0579882 -0.0826096 0.00349456 0 894 10429 -0.000391056 0.000267466 -2.8203e-05 3.98879e-10 7.93584e-08 
0 0 0 0.0206646 -0.106183 -0.00433087 0 894 5790 -0.000655221 0.000495505 -5.8912e-05 2.35345e-09 4.68341e-07 
0 0 0 -0.0520543 -0.0331714 0.0690643 0 894 810 0.00103352 0.000623842 -0.00104664 4.60042e-09 9.15749e-07 
0 0 0 0.0488696 -0.0833146 -0.000620131 0 894 466 -0.000239869 0.000740171 -7.1743e-05 1.98452e-09 3.94904e-07 
0 0 0 0.0375676 -0.0870773 0.0142885 0 894 2655 -1.63269e-05 0.000130493 -0.000263021 2.70216e-09 5.37758e-07 
0 0 0 0.099361 -0.218873 -0.0066242 0 894 8823 -7.01552e-05 6.42223e-05 -0.000463588 7.30415e-09 1.45444e-06 
0 0 0 -5.37994e-14 -5.74914e-20 3.87615e-302 0 866 887 -1.62002 5.25978e-06 5.06973e-307 1.22522e-06 0.0003 
0 0 0 0.00822445 -0.207232 0.0683557 0 855 4919 0.000158606 7.07237e-05 3.58767e-05 4.32822e-09 8.61535e-07 
0 0 0 -0.0182872 -0.0912327 -0.0902689 0 855 3259 0.000810107 5.06351e-05 0.000401876 7.57915e-09 1.50925e-06 
0 0 0 -0.0115395 0.0313491 -0.103169 0 855 1022 0.0268005 -0.00292441 -0.000722884 9.60539e-08 1.93432e-05 
0 0 0 0.0313627 0.049939 -0.064135 0 855 6963 0.00146704 0.000434312 -0.000204049 1.70538e-08 3.39998e-06 
0 0 0 0.00685792 0.0815918 -0.223067 0 855 4247 0.00576535 -5.80506e-05 0.000592539 3.55109e-08 7.09615e-06 
0 0 0 0.0543823 0.0143378 0.254447 0 855 6771 0.00128711 8.98636e-05 0.000108057 1.81459e-08 3.6182e-06 
0 0 0 0.00140074 0.0476216 0.0181633 0 855 6140 0.0019426 -3.83737e-06 -0.000545521 1.71108e-08 3.41136e-06 
0 0 0 -0.0079616 -0.0605947 -0.0423061 0 855 8500 0.000507729 0.000191953 0.000166136 6.05088e-09 1.20469e-06 
0 0 0 0.00897601 0.062612 0.0418922 0 855 6357 0.000197598 -9.80746e-05 -1.1942e-05 4.89272e-09 9.73968e-07 
0 0 0 0.000691495 -0.0824539 -0.035583 0 855 3369 7.56359e-05 3.31752e-05 1.8155e-05 2.06242e-09 4.1041e-07 
0 0 0 0.00122685 0.0122339 -0.00518128 0 855 4976 0.000173163 0.000186138 2.59464e-05 3.56126e-09 7.08805e-07 
0 0 0 0.00653864 -0.0582389 -0.0119728 0 855 1042 -2.27709e-05 9.93436e-06 5.56208e-06 9.84413e-10 1.95867e-07 
0 0 0 0.0107186 -0.0116948 -0.00602755 0 855 6183 4.7711e-05 -0.000369088 -1.26956e-05 3.18275e-09 6.33438e-07 
0 0 0 0.0137321 0.0838345 -0.00837131 0 855 1214 -7.29968e-05 -2.37159e-05 2.37473e-06 1.22253e-09 2.43251e-07 
0 0 0 0.00778834 0.0323465 -0.0236137 0 855 4577 -1.38681e-05 -2.70094e-06 3.75789e-06 1.52973e-09 3.04387e-07 
0 0 0 -0.000508313 -0.0802106 -0.0150089 0 855 3144 0.000130007 0.000144404 1.63587e-05 2.73228e-09 5.43755e-07 
0 0 0 -0.014572 0.0569845 0.0607467 0 855 5440 0.000250326 -6.62613e-05 -0.000106185 2.51024e-09 4.99552e-07 
0 0 0 0.00375253 -0.0455862 0.000413592 0 855 2816 0.000302412 2.85485e-05 -3.7167e-05 5.3857e-09 1.07217e-06 
0 0 0 0.372448 0.0922475 0.333355 0 855 3610 0.0116818 -0.000178378 0.00201551 8.03438e-08 1.61468e-05 
0 0 0 0.00172058 -0.11156 -0.0437683 0 855 8789 -6.23429e-06 2.6511e-06 1.63959e-06 2.10987e-10 4.19757e-08 
0 0 0 0.00213754 -0.0813774 -0.0523008 0 855 5489 -4.89387e-06 1.4024e-06 2.00519e-06 4.56787e-10 9.08801e-08 
0 0 0 0.000256969 -0.0803659 0.0019683 0 855 7357 0.000225279 0.000107459 -3.37679e-05 4.07885e-09 8.11874e-07 