ITEM: TIMESTEP
4150000
ITEM: NUMBER OF ENTRIES
155
ITEM: BOX BOUNDS ff ff ff
-0.01 0.45
-0.15 0.15
-0.08 0.1
ITEM: ENTRIES c_pwc[1] c_pwc[2] c_pwc[3] 
0 944 463 
0 850 41 
0 885 41 
0 855 206 
0 855 112 
0 855 139 
0 930 349 
1 529 146 
1 530 146 
1 1842 146 
1 1828 146 
1 1826 146 
1 1827 146 
1 1831 146 
1 1830 146 
1 1861 146 
1 1874 146 
1 1873 146 
1 1883 146 
1 526 146 
1 541 146 
1 527 146 
1 523 146 
1 1869 146 
1 1871 146 
1 1868 146 
1 1892 146 
1 1885 146 
1 1893 146 
0 958 479 
0 885 270 
0 885 48 
0 885 127 
0 885 52 
0 885 276 
0 885 351 
0 885 79 
0 885 39 
0 850 270 
0 850 48 
0 850 127 
0 850 52 
0 850 276 
0 850 351 
0 850 79 
0 851 39 
1 2706 355 
1 2720 355 
0 894 375 
0 895 352 
0 895 493 
0 940 501 
0 961 40 
0 753 40 
0 886 15 
0 885 15 
0 850 15 
0 899 496 
0 895 385 
0 385 497 
0 377 114 
0 382 484 
0 371 228 
0 429 461 
0 423 326 
0 419 135 
0 384 376 
0 381 148 
0 392 104 
0 388 366 
0 393 476 
0 387 486 
0 387 374 
0 373 129 
0 366 341 
0 436 227 
0 436 201 
0 433 302 
0 409 436 
0 417 142 
0 413 346 
0 374 66 
0 545 32 
0 543 174 
0 539 59 
0 539 120 
0 394 150 
0 525 248 
0 436 177 
0 561 226 
0 579 398 
0 573 367 
0 573 22 
0 430 473 
0 420 163 
0 420 409 
1 2550 163 
0 569 202 
0 567 422 
0 565 101 
0 414 279 
0 537 153 
0 533 292 
0 531 93 
0 529 307 
0 534 81 
0 545 209 
0 541 238 
0 539 24 
0 523 47 
0 521 10 
0 521 25 
0 518 169 
0 549 363 
0 554 136 
0 587 69 
0 555 335 
0 581 35 
0 571 421 
0 569 190 
0 567 246 
0 570 78 
0 568 89 
0 535 91 
0 540 7 
0 523 413 
0 548 28 
0 553 358 
0 586 256 
0 572 275 
0 581 219 
0 564 30 
0 1063 31 
0 1051 71 
0 1045 265 
0 1045 124 
0 1044 265 
0 1044 124 
0 1042 285 
0 1043 285 
0 526 360 
0 1077 109 
0 1075 49 
0 552 168 
0 552 158 
0 1111 3 
0 1103 23 
0 1101 83 
0 1095 119 
0 1089 325 
0 572 214 
0 1085 13 
0 1102 37 
0 1100 50 
0 1060 82 
