ITEM: TIMESTEP
7950000
ITEM: NUMBER OF ENTRIES
276
ITEM: BOX BOUNDS ff ff ff
-0.01 0.45
-0.15 0.15
-0.08 0.1
ITEM: ENTRIES c_pwc[1] c_pwc[2] c_pwc[3] 
0 944 820 
0 948 776 
0 850 41 
0 885 41 
0 852 548 
0 852 633 
0 894 392 
0 894 854 
0 894 538 
0 894 18 
0 894 407 
0 855 68 
1 2706 752 
1 2704 752 
1 2705 752 
1 2722 752 
1 2698 752 
1 2717 752 
0 885 270 
0 885 48 
0 885 127 
0 885 52 
0 885 908 
0 885 276 
0 885 6 
0 885 79 
0 885 351 
0 885 45 
0 885 39 
0 885 393 
0 850 270 
0 850 48 
0 850 127 
0 850 52 
0 850 908 
0 850 276 
0 850 6 
0 850 79 
0 850 351 
0 850 45 
0 851 39 
0 851 393 
1 529 146 
1 1861 146 
1 530 146 
1 1874 146 
1 1873 146 
1 1883 146 
1 1889 146 
1 1828 146 
1 1842 146 
1 1830 146 
1 1831 146 
1 1827 146 
1 526 146 
1 527 146 
1 541 146 
1 1871 146 
1 1869 146 
1 1868 146 
1 1892 146 
1 1893 146 
1 1885 146 
0 895 342 
0 895 533 
0 895 560 
0 895 290 
0 853 789 
0 894 479 
0 894 828 
0 894 125 
0 894 258 
0 895 54 
0 895 427 
0 895 686 
0 937 567 
0 935 985 
0 947 909 
0 961 40 
0 753 40 
0 886 15 
0 885 15 
0 850 15 
0 888 525 
0 893 675 
0 893 463 
0 892 263 
0 892 917 
0 383 256 
0 381 857 
0 377 995 
0 393 794 
0 393 362 
0 435 765 
0 429 501 
0 411 831 
0 386 89 
0 384 269 
0 380 569 
0 378 837 
0 376 637 
0 381 936 
0 387 843 
1 2131 939 
0 372 921 
0 370 609 
0 373 454 
0 367 736 
0 400 148 
0 400 864 
0 438 61 
0 438 1 
0 408 804 
0 406 737 
0 405 942 
0 428 622 
0 432 694 
0 416 104 
0 414 743 
0 537 266 
0 384 780 
0 380 405 
0 376 435 
0 541 691 
0 392 504 
0 388 307 
0 523 71 
0 521 220 
0 372 191 
0 585 275 
0 436 494 
0 410 431 
0 410 35 
0 575 605 
0 430 85 
0 567 838 
0 418 636 
0 418 646 
0 529 64 
0 527 14 
0 545 217 
0 541 894 
0 539 49 
0 525 251 
0 524 613 
0 516 599 
1 1344 280 
0 549 530 
0 554 615 
0 589 282 
0 589 209 
0 589 858 
0 587 412 
0 517 793 
0 586 227 
0 561 142 
0 559 88 
0 559 782 
0 557 315 
0 556 328 
0 581 771 
0 577 578 
0 573 761 
0 571 312 
0 569 925 
0 563 120 
0 538 875 
0 538 848 
0 534 770 
0 530 236 
0 546 445 
0 544 325 
0 542 302 
0 542 81 
0 540 664 
0 540 5 
0 540 363 
0 545 559 
0 545 617 
0 541 129 
0 524 537 
0 522 596 
0 522 372 
0 525 470 
0 518 90 
0 591 190 
0 588 565 
0 586 520 
0 586 212 
0 562 319 
0 556 163 
0 556 166 
0 580 232 
0 578 214 
0 576 124 
0 563 28 
0 1063 177 
0 1063 746 
0 1063 817 
0 1061 409 
0 1059 697 
0 536 649 
0 1067 320 
0 1065 847 
0 542 358 
0 1047 418 
0 1045 774 
0 1045 785 
0 1045 168 
0 522 418 
0 1079 670 
0 1111 477 
0 1087 812 
0 1083 367 
0 556 642 
0 1105 101 
0 574 106 
0 572 330 
0 1091 279 
0 1089 143 
0 1063 86 
0 1057 147 
0 1071 441 
0 1070 13 
0 1070 683 
0 1066 36 
0 1065 24 
0 1065 682 
1 2201 170 
1 2196 170 
0 1047 568 
0 1045 608 
0 1112 379 
0 1111 91 
0 1085 80 
0 1081 99 
0 1107 374 
0 1106 667 
0 1104 422 
0 1103 267 
0 1101 119 
0 1096 162 
0 1094 174 
0 1093 298 
0 1089 248 
0 1062 23 
0 1060 201 
0 1297 408 
0 1295 97 
0 1070 500 
0 1068 27 
0 1066 67 
0 1273 11 
0 1305 205 
0 1078 78 
0 1078 219 
0 1074 234 
0 1074 10 
0 1116 17 
0 1112 349 
0 1112 30 
0 1088 160 
0 1329 66 
0 1102 93 
0 1102 506 
1 1818 506 
1 1816 506 
1 1817 506 
0 1285 571 
0 1281 518 
0 1293 281 
0 1329 259 
0 1327 198 
0 1317 22 
0 145 725 
0 133 461 
