ITEM: TIMESTEP
10550000
ITEM: NUMBER OF ENTRIES
2935
ITEM: BOX BOUNDS ff ff ff
-0.01 0.45
-0.15 0.15
-0.08 0.1
ITEM: ENTRIES c_pwc[1] c_pwc[2] c_pwc[3] c_pwc[4] c_pwc[5] c_pwc[6] c_pwc[7] c_pwc[8] c_pwc[9] c_pwc[10] c_pwc[11] c_pwc[12] c_pwc[13] c_pwc[14] 
0 0 0 0.000182217 -6.10208e-05 -3.02304e-06 0 776 7649 2.12156e-06 1.32418e-05 3.01754e-06 5.99136e-10 1.19203e-07 
0 0 0 -0.000326603 8.27677e-06 3.19435e-05 0 776 7937 1.43033e-07 9.10432e-06 3.40893e-06 4.78467e-10 9.51937e-08 
0 0 0 -0.00025612 -7.13862e-06 6.24585e-05 0 776 5540 1.89722e-07 1.28908e-05 4.17259e-06 5.99492e-10 1.19274e-07 
0 0 0 -0.000174994 -2.95733e-05 1.9129e-05 0 776 1200 -2.57083e-07 6.06133e-06 1.27854e-06 3.56399e-10 7.09064e-08 
0 0 0 3.46266e-06 -7.01211e-06 -5.8163e-06 0 776 1871 3.05975e-06 1.09072e-05 -1.06936e-06 5.36131e-10 1.06667e-07 
0 0 0 -2.41578e-06 5.04994e-06 -1.37604e-05 0 776 1972 5.49374e-07 1.11795e-05 -2.04334e-06 5.4763e-10 1.08955e-07 
0 0 0 -9.14324e-06 2.4598e-06 2.92105e-06 0 776 733 4.15887e-07 1.1688e-05 -1.13334e-06 5.63521e-10 1.12117e-07 
0 0 0 -0.00033582 -7.85891e-06 1.02582e-05 0 776 10595 2.03035e-07 1.20727e-05 4.19016e-06 5.73622e-10 1.14127e-07 
0 0 0 -0.000109324 -2.71343e-07 -2.82399e-05 0 776 894 1.0498e-06 9.81228e-06 3.32795e-06 5.00971e-10 9.96711e-08 
0 0 0 -7.66572e-06 5.3483e-06 -4.56055e-05 0 776 9680 3.53753e-07 6.24253e-06 -1.75194e-06 3.71885e-10 7.39876e-08 
0 0 0 -2.074e-05 1.85351e-06 -1.82973e-05 0 776 414 -7.00524e-07 1.22498e-05 -3.97719e-06 5.81288e-10 1.15652e-07 
0 0 0 2.98494e-06 -4.24151e-06 -1.78868e-05 0 776 206 -4.8863e-07 5.38433e-06 -1.63201e-06 3.34799e-10 6.66089e-08 
0 0 0 -0.000391545 5.89416e-12 -0.00018243 0 776 1894 3.74382e-20 1.05196e-05 1.87186e-20 5.24825e-10 1.04417e-07 
0 0 0 -0.000140118 -4.43822e-06 -8.54748e-06 0 776 4413 -5.88152e-07 3.2605e-06 2.23338e-07 2.39206e-10 4.759e-08 
0 0 0 -4.95701e-05 -4.15172e-06 -8.9493e-07 0 776 9977 6.92957e-07 1.29795e-05 -5.55322e-06 6.02872e-10 1.19947e-07 
0 0 0 -7.59705e-05 -1.14038e-05 -1.31123e-05 0 776 1225 -1.06662e-06 9.38447e-06 -8.72335e-07 4.83844e-10 9.62635e-08 
0 0 0 -3.46378e-06 3.89781e-06 -1.52924e-05 0 776 3512 9.22227e-07 1.11788e-05 -2.4658e-06 5.47363e-10 1.08902e-07 
0 0 0 -3.70487e-06 7.35525e-06 -1.14941e-05 0 776 690 -3.60689e-07 1.29281e-05 -2.68132e-07 6.03684e-10 1.20108e-07 
0 0 0 -1.33522e-05 7.67624e-07 8.95985e-06 0 776 280 -4.25593e-07 1.535e-05 -1.16503e-07 6.75328e-10 1.34363e-07 
0 0 0 -9.40881e-06 -7.1841e-06 -1.25072e-05 0 776 2352 -3.40246e-07 1.28412e-05 1.84093e-06 5.97941e-10 1.18965e-07 
0 0 0 -0.000664081 -1.26674e-06 -2.93758e-05 0 776 5611 4.55264e-08 1.18094e-05 2.30219e-07 5.66621e-10 1.12734e-07 
0 0 0 1.08022e-05 8.93733e-06 -2.73794e-05 0 776 9269 -1.0799e-06 1.09528e-05 1.31707e-06 5.41059e-10 1.07648e-07 
0 0 0 -1.41213e-05 -8.58962e-06 1.99655e-06 0 776 6408 1.74605e-06 8.82002e-06 -7.99636e-07 4.64743e-10 9.24631e-08 
0 0 0 2.81679e-05 6.14721e-06 -4.15235e-05 0 776 101 -1.27257e-06 1.17586e-05 -9.84566e-07 5.6657e-10 1.12724e-07 
0 0 0 5.35576e-06 3.14202e-06 -2.03231e-05 0 776 317 1.35354e-06 1.01454e-05 7.76855e-07 5.12989e-10 1.02063e-07 
0 0 0 -3.77791e-06 1.66407e-06 8.25676e-06 0 776 1705 -1.4893e-06 4.58785e-06 -7.31016e-07 3.02247e-10 6.01324e-08 
0 0 0 -0.000261348 1.88642e-05 1.0451e-05 0 776 8455 2.08672e-08 7.65794e-06 2.10955e-06 4.29018e-10 8.5355e-08 
0 0 0 -2.54046e-05 1.09977e-06 5.3032e-05 0 776 11208 1.6914e-06 1.266e-05 7.72583e-07 5.94022e-10 1.18186e-07 
0 0 0 -7.29681e-05 -3.29829e-06 -7.46553e-05 0 776 553 -4.65052e-08 1.06768e-05 2.06066e-07 5.29328e-10 1.05313e-07 
0 0 0 4.04657e-05 1.08453e-06 -4.03199e-05 0 776 585 -3.88569e-07 1.13252e-05 8.87765e-07 5.51521e-10 1.09729e-07 
0 0 0 1.51999e-06 1.72035e-06 -1.20741e-05 0 776 2069 7.99253e-07 1.14912e-05 3.00007e-06 5.57028e-10 1.10825e-07 
0 0 0 -7.84755e-06 1.14499e-06 5.39293e-06 0 776 531 -2.71836e-06 1.43831e-05 1.12737e-06 6.4675e-10 1.28677e-07 
0 0 0 0.000219978 2.64318e-06 -9.15952e-05 0 776 10613 8.4644e-09 1.04683e-05 -1.8196e-08 5.23691e-10 1.04192e-07 
0 0 0 3.07123e-05 -3.50571e-06 -1.60708e-05 0 776 6702 1.46646e-06 6.12341e-06 -8.94088e-07 3.65062e-10 7.263e-08 
0 0 0 0.000124364 -2.79207e-06 5.89328e-06 0 776 1002 -2.69987e-07 1.69977e-05 2.15014e-06 7.221e-10 1.4367e-07 
0 0 0 1.29271e-05 -8.26598e-06 -3.17349e-06 0 776 1470 -3.6563e-07 3.12013e-06 8.85487e-07 2.31234e-10 4.60039e-08 
0 0 0 -2.43581e-05 -5.54111e-06 7.55836e-06 0 776 154 -2.30336e-06 1.7143e-05 7.9178e-07 7.25662e-10 1.44379e-07 
0 0 0 1.07299e-05 -7.89157e-06 -1.45707e-05 0 776 1045 -9.08845e-07 7.44251e-06 3.09047e-06 4.14901e-10 8.25463e-08 
0 0 0 0.000152317 1.68856e-05 0.000139925 0 776 12304 -8.50581e-07 1.00947e-05 9.04045e-07 5.14277e-10 1.02319e-07 
0 0 0 2.85383e-05 -2.62691e-05 4.55157e-05 0 776 4634 1.05598e-06 1.18871e-05 3.1261e-07 5.63802e-10 1.12173e-07 
0 0 0 -4.37777e-05 -3.6136e-12 -9.3614e-05 0 776 72 2.11446e-21 1.05196e-05 8.73008e-21 5.24825e-10 1.04417e-07 
0 0 0 -8.26135e-05 2.25472e-05 -0.000145322 0 776 4165 4.43454e-07 1.04854e-05 -1.4155e-07 5.28569e-10 1.05162e-07 
0 0 0 0.00106653 4.12537e-13 -7.02077e-05 0 776 1920 -1.13826e-19 1.05196e-05 7.14155e-21 5.24825e-10 1.04417e-07 
0 0 0 1.35683e-05 7.43097e-06 2.4292e-06 0 776 3087 4.6003e-07 1.12405e-05 -3.12583e-06 5.50125e-10 1.09451e-07 
0 0 0 -8.5855e-06 -1.2769e-05 -3.91227e-06 0 776 12917 -1.52893e-06 1.20559e-05 -2.14478e-06 5.72051e-10 1.13814e-07 
0 0 0 5.94086e-06 -1.04592e-05 6.53277e-05 0 776 1063 3.35256e-07 8.04072e-06 3.4178e-06 4.36383e-10 8.68203e-08 
0 0 0 1.15173e-05 -1.09813e-05 -8.77924e-05 0 776 4185 8.95922e-07 1.08973e-05 -1.23418e-07 5.34951e-10 1.06432e-07 
0 0 0 9.40464e-05 2.66843e-12 -0.000882031 0 776 4938 -5.4897e-21 1.05196e-05 1.5042e-19 5.24825e-10 1.04417e-07 
0 0 0 -6.17976e-06 -1.59427e-07 -4.70974e-05 0 776 18 -6.57857e-07 7.6757e-06 1.94898e-07 4.25333e-10 8.46219e-08 
0 0 0 3.5682e-05 1.1396e-05 -3.04147e-05 0 776 10360 -4.70488e-06 1.45415e-05 4.50634e-07 6.53588e-10 1.30038e-07 
0 0 0 -2.49724e-07 -1.90198e-05 -1.22576e-05 0 776 9715 4.50201e-06 9.20238e-06 -8.12664e-07 4.75839e-10 9.46708e-08 
0 0 0 2.90258e-05 -2.8933e-06 3.02291e-06 0 776 4095 1.65677e-06 1.46343e-05 2.05498e-06 6.53427e-10 1.30006e-07 
0 0 0 0.000101448 1.25911e-05 -2.1937e-05 0 776 1367 -8.68387e-07 4.29e-06 1.48369e-06 2.91789e-10 5.80518e-08 
0 0 0 1.7549e-05 6.90844e-06 -1.04914e-05 0 776 1036 -2.77195e-06 1.36381e-05 2.8981e-06 6.25425e-10 1.24434e-07 
0 0 0 -3.14928e-05 3.75225e-06 -3.68878e-05 0 776 6544 -1.53332e-06 1.58695e-05 4.58196e-06 6.91076e-10 1.37497e-07 
0 0 0 0.00034154 -2.64903e-12 0.000805569 0 776 12116 8.38769e-21 1.05196e-05 1.50402e-19 5.24825e-10 1.04417e-07 
0 0 0 1.55558e-05 -2.44928e-05 0.000116206 0 776 12691 -1.60739e-06 5.93951e-06 -1.24311e-06 3.52699e-10 7.01703e-08 
0 0 0 0.00143493 -4.42151e-12 0.00027471 0 776 8603 -2.41849e-20 1.05196e-05 3.74372e-20 5.24825e-10 1.04417e-07 
0 0 0 -0.00109971 2.51403e-13 -0.0016193 0 776 9639 -1.51076e-19 1.05196e-05 2.59738e-19 5.24825e-10 1.04417e-07 
0 0 0 5.81402e-05 -1.0245e-05 9.92661e-05 0 776 7185 -1.69818e-06 1.80019e-05 -4.51461e-07 7.48817e-10 1.48986e-07 
0 0 0 -5.35251e-05 -3.24866e-05 -1.22204e-05 0 776 4532 -1.79484e-06 1.01836e-05 2.95024e-06 5.06523e-10 1.00776e-07 
0 0 0 2.24063e-05 1.82402e-05 -0.000125711 0 776 14724 -4.64278e-06 1.22858e-05 5.70651e-06 5.8588e-10 1.16566e-07 
0 0 0 8.15732e-05 -1.16471e-06 -9.85275e-05 0 776 9279 -2.77742e-07 7.78029e-06 2.84211e-06 4.2896e-10 8.53434e-08 
0 0 0 -0.000404038 -4.93322e-06 -0.00018138 0 776 3983 -6.3385e-07 9.52318e-06 1.35847e-06 4.90055e-10 9.74992e-08 
0 0 0 -9.01013e-05 2.30101e-06 -0.000143078 0 776 3427 9.44478e-07 8.30317e-06 -8.60345e-07 4.48764e-10 8.92837e-08 
0 0 0 0.00028562 -5.22719e-12 -5.70268e-05 0 776 1118 3.7436e-20 1.05196e-05 -9.4004e-21 5.24825e-10 1.04417e-07 
0 0 0 2.01782e-05 1.24802e-05 -0.000182408 0 776 10496 5.29029e-07 1.91008e-05 -1.18485e-06 7.83539e-10 1.55895e-07 
0 0 0 -0.000275608 6.06415e-13 -0.000324457 0 776 9160 2.41309e-20 1.05196e-05 3.80268e-20 5.24825e-10 1.04417e-07 
0 0 0 -8.55749e-05 -5.75644e-05 0.000127703 0 776 7286 -2.37212e-06 9.95265e-06 -1.83574e-06 4.93223e-10 9.81296e-08 
0 0 0 0.000179403 5.56886e-12 -0.000781771 0 776 7431 -1.87182e-20 1.05196e-05 7.55367e-20 5.24825e-10 1.04417e-07 
0 0 0 0.000106106 8.63187e-06 -0.000297514 0 776 1366 -1.06325e-06 1.08939e-05 2.78757e-06 5.39059e-10 1.0725e-07 
0 0 0 -2.31643e-05 4.57197e-06 -6.93771e-05 0 776 10907 2.80618e-07 1.18631e-05 1.167e-06 5.69576e-10 1.13322e-07 
0 0 0 -0.000670666 2.86315e-07 -5.88668e-05 0 776 7764 -3.37212e-13 1.05056e-05 8.50089e-14 5.24423e-10 1.04338e-07 
0 0 0 -0.00010603 9.67486e-05 4.15862e-05 0 776 5560 3.50487e-06 1.44934e-05 -7.09567e-07 6.69664e-10 1.33236e-07 
0 0 0 7.66e-06 -2.71949e-05 -6.2035e-06 0 776 215 -2.84471e-06 1.12653e-05 -2.30078e-06 5.43523e-10 1.08138e-07 
0 0 0 8.46423e-05 -9.12904e-06 -0.000138424 0 776 1887 -3.64779e-06 1.33405e-05 1.04187e-06 6.12985e-10 1.21959e-07 
0 0 0 -3.48116e-05 2.60506e-05 -4.08118e-05 0 776 4164 1.04595e-06 5.8664e-06 1.24242e-06 3.61796e-10 7.19803e-08 
0 0 0 3.76936e-06 3.08877e-06 -1.65763e-05 0 776 3630 -3.08552e-06 1.39884e-05 -5.31946e-07 6.3527e-10 1.26393e-07 
0 0 0 -0.000370176 -1.01512e-05 0.000104631 0 776 5953 6.51819e-08 1.10547e-05 -5.91994e-07 5.40296e-10 1.07496e-07 
0 0 0 0.000135107 8.66908e-06 0.000207101 0 776 11531 -2.91518e-07 1.11591e-05 1.22536e-07 5.47744e-10 1.08978e-07 
0 0 0 9.41465e-05 1.34963e-06 -0.000129569 0 776 12872 -2.06571e-06 1.26813e-05 -1.18507e-06 5.94743e-10 1.18329e-07 
0 0 0 9.48857e-05 5.27145e-06 -0.000104372 0 776 11571 5.79506e-07 1.08485e-05 7.21585e-07 5.36843e-10 1.06809e-07 
0 0 0 -2.12132e-06 -4.75501e-06 1.49765e-05 0 776 7844 5.13293e-07 1.09869e-05 9.18277e-07 5.39232e-10 1.07284e-07 
0 0 0 -0.000808441 -1.03768e-12 -0.000742344 0 776 14434 1.95949e-20 1.05196e-05 9.88118e-21 5.24825e-10 1.04417e-07 
0 0 0 0.000234268 2.49123e-05 -0.00112347 0 776 7893 -2.07329e-07 5.28414e-06 -3.74078e-07 3.37694e-10 6.7185e-08 
0 0 0 0.000231923 -1.02913e-05 0.00037849 0 776 634 -2.18579e-08 9.77779e-06 -5.86568e-08 4.97601e-10 9.90006e-08 
0 0 0 0.000409028 1.65407e-06 -6.16753e-05 0 776 7313 1.61801e-11 1.05053e-05 1.99176e-10 5.24707e-10 1.04394e-07 
0 0 0 -2.54671e-05 5.36468e-06 6.46884e-05 0 776 5950 -1.73823e-07 1.08982e-05 -5.15292e-07 5.38496e-10 1.07138e-07 
0 0 0 -5.89876e-05 2.48605e-05 7.53941e-06 0 776 4298 2.81183e-07 1.05269e-05 -2.1656e-07 5.30449e-10 1.05536e-07 
0 0 0 -0.000592203 3.64466e-06 0.00049478 0 776 5167 -2.21192e-09 1.06852e-05 3.40624e-09 5.31106e-10 1.05667e-07 
0 0 0 -8.3846e-06 -1.94532e-05 -0.000353113 0 776 10156 1.38778e-07 1.10209e-05 3.64854e-07 5.3719e-10 1.06878e-07 
0 0 0 0.000605573 1.04855e-05 0.000118085 0 776 9271 -1.26573e-07 1.08069e-05 -2.97202e-07 5.36597e-10 1.0676e-07 
0 0 0 0.000110638 2.63449e-05 0.000241604 0 776 3509 1.16725e-06 1.15733e-05 -3.044e-07 5.64922e-10 1.12395e-07 
0 0 0 0.001134 8.5873e-05 -0.00116367 0 776 14186 -1.39375e-06 1.30307e-05 2.71394e-07 6.23258e-10 1.24003e-07 
0 0 0 -5.50639e-05 1.16388e-05 -9.66852e-05 0 776 7053 1.12479e-06 4.66885e-06 1.53406e-06 3.0826e-10 6.13287e-08 
0 0 0 -0.000166479 2.30844e-05 -1.26499e-05 0 776 209 -4.97855e-07 1.1545e-05 -1.34562e-06 5.63316e-10 1.12076e-07 
0 0 0 0.000154627 -3.86164e-05 9.31091e-05 0 776 8382 -4.66362e-07 1.33454e-05 4.17947e-06 6.07001e-10 1.20768e-07 
0 0 0 7.85704e-05 -3.70938e-05 7.10109e-05 0 776 2799 8.70845e-07 6.8002e-06 2.1113e-06 3.83744e-10 7.6347e-08 
0 0 0 -6.33856e-05 4.69972e-10 -0.00023695 0 776 7390 -8.12233e-18 1.05196e-05 -3.03588e-17 5.24825e-10 1.04417e-07 
0 0 0 0.000470442 -1.88706e-05 1.80729e-05 0 776 9615 -6.4915e-07 1.38418e-05 -1.57031e-06 6.26289e-10 1.24606e-07 
0 0 0 -5.53066e-05 4.45905e-05 -6.94699e-06 0 776 7800 -9.49088e-07 1.02195e-05 -7.56065e-07 5.24493e-10 1.04351e-07 
0 0 0 -3.38104e-06 1.18674e-05 7.28948e-05 0 776 9721 1.66389e-06 1.05476e-05 4.41928e-07 5.28325e-10 1.05114e-07 
0 0 0 0.000184396 -2.65928e-05 -5.64375e-05 0 776 163 -2.35977e-07 9.03669e-06 6.04169e-08 4.68366e-10 9.31839e-08 
0 0 0 0.000121928 -5.45748e-05 0.00138366 0 776 3286 -3.88476e-07 1.24978e-05 6.80099e-09 5.77234e-10 1.14845e-07 
0 0 0 0.000124591 1.93247e-06 -0.000205501 0 776 13004 -5.45719e-14 1.05179e-05 -4.52195e-13 5.25188e-10 1.0449e-07 
0 0 0 0.000145596 -2.73681e-05 0.000288661 0 776 9809 -3.01923e-08 1.16128e-05 -2.36955e-07 5.54755e-10 1.10373e-07 
0 0 0 7.20079e-05 5.32041e-12 6.10359e-05 0 776 5373 -9.44414e-21 1.05196e-05 -9.42085e-21 5.24825e-10 1.04417e-07 
0 0 0 0.000380319 -5.39573e-05 7.47482e-06 0 776 7750 1.7605e-09 1.04646e-05 -5.77137e-08 5.11307e-10 1.01728e-07 
0 0 0 -0.00012701 -2.8007e-05 0.000235498 0 776 7121 4.5223e-06 1.33734e-05 -1.04205e-06 6.10069e-10 1.21379e-07 
0 0 0 -5.64157e-05 -4.03333e-05 0.000103888 0 776 1306 1.567e-06 1.12492e-05 -8.41606e-07 5.40187e-10 1.07474e-07 
0 0 0 0.000926859 -2.64903e-12 -0.000371338 0 776 7072 -1.21414e-21 1.05196e-05 3.74394e-20 5.24825e-10 1.04417e-07 
0 0 0 -0.000127042 2.02799e-09 -0.000104989 0 776 3631 -7.18982e-17 1.05195e-05 -6.11734e-17 5.24824e-10 1.04417e-07 
0 0 0 -0.000443707 -0.000141195 0.000251502 0 776 4357 6.51949e-08 1.17413e-05 -2.79363e-06 5.34708e-10 1.06384e-07 
0 0 0 -0.00240268 -4.2813e-05 -0.000469127 0 776 7846 3.50617e-07 1.11603e-05 -9.23373e-07 5.36748e-10 1.0679e-07 
0 0 0 -0.000426727 -1.26063e-07 -0.000572685 0 776 9654 2.74355e-06 1.81405e-05 -1.91402e-07 7.54667e-10 1.5015e-07 
0 0 0 -0.000159501 4.84211e-05 -0.000218964 0 776 6920 1.83253e-06 6.44665e-06 -1.82779e-06 3.90028e-10 7.75974e-08 
0 0 0 -2.15804e-05 8.05072e-05 0.000194075 0 776 7763 3.54215e-06 8.1525e-06 -2.01718e-06 4.60986e-10 9.17154e-08 
0 0 0 -0.00100248 -1.68222e-12 -0.000412215 0 776 1352 -3.84405e-21 1.05196e-05 -7.52051e-20 5.24825e-10 1.04417e-07 
0 0 0 -0.000149376 -6.64214e-05 2.62736e-05 0 776 9156 8.90101e-07 1.66591e-05 2.369e-06 6.99714e-10 1.39216e-07 
0 0 0 -0.000137232 0.000107577 -0.000372333 0 776 6792 2.12132e-07 1.32601e-05 4.21965e-06 6.34809e-10 1.26301e-07 
0 0 0 -0.000654659 -1.28948e-06 -0.00134193 0 776 1969 3.97427e-11 1.06145e-05 2.70358e-11 5.277e-10 1.0499e-07 
0 0 0 -0.000116609 9.88514e-05 -0.000492689 0 776 221 -3.96269e-06 3.0882e-06 1.14349e-06 2.58058e-10 5.13408e-08 
0 0 0 0.000541759 7.56509e-07 -0.00067956 0 776 3055 1.66386e-13 1.05171e-05 -2.32807e-13 5.24906e-10 1.04434e-07 
0 0 0 -0.000471034 1.56136e-05 -0.00125471 0 776 570 5.80347e-07 1.04366e-05 2.36436e-07 5.25444e-10 1.04541e-07 
0 0 0 -0.00286161 5.57193e-05 -0.00335009 0 776 6387 2.6121e-07 9.02876e-06 -4.13259e-07 4.86362e-10 9.67644e-08 
0 0 0 0.000237898 0.000101264 9.69078e-05 0 776 8712 2.82715e-06 1.24233e-05 5.88778e-07 6.07683e-10 1.20904e-07 
0 0 0 -0.00171285 -0.00042759 0.00159063 0 776 6055 5.72194e-06 1.60326e-05 5.72926e-07 6.08854e-10 1.21137e-07 
0 0 0 -0.00240865 -1.21633e-05 -0.00307036 0 776 8814 -4.57274e-07 1.04789e-05 -8.25217e-07 5.20838e-10 1.03624e-07 
0 0 0 -0.00366699 -0.00039261 -0.00444492 0 776 8325 1.22024e-06 1.719e-05 -9.95595e-07 6.49857e-10 1.29295e-07 
0 0 0 -0.0010939 9.38837e-05 -0.00160981 0 776 8088 8.38243e-07 1.47665e-05 7.33549e-06 6.77151e-10 1.34726e-07 
0 0 0 0.00023545 -2.00449e-12 0.000207673 0 776 4008 -3.60931e-20 1.05196e-05 -2.46134e-21 5.24825e-10 1.04417e-07 
0 0 0 -0.00032551 5.7512e-05 -0.000367239 0 776 2925 7.09413e-06 1.61173e-05 3.82299e-06 7.09078e-10 1.41079e-07 
0 0 0 0.000561647 4.58097e-05 -0.000124287 0 776 7454 -1.01877e-06 7.71128e-06 2.3977e-06 4.37124e-10 8.69678e-08 
0 0 0 -0.0023792 0.000241585 -0.000298684 0 776 3905 2.86945e-08 9.13766e-06 -4.8209e-08 5.31292e-10 1.05704e-07 
0 0 0 -0.00161518 8.35143e-05 -0.00128114 0 776 5213 -2.79061e-06 5.97979e-06 1.99967e-06 3.80006e-10 7.56033e-08 
0 0 0 -6.464e-05 -0.00021989 -0.000796567 0 776 1376 -8.76895e-07 9.38237e-06 4.6085e-06 4.37808e-10 8.71038e-08 
0 0 0 0.000215206 -0.0001298 -0.000824811 0 776 6636 -5.30628e-06 7.50511e-06 -4.34199e-06 3.89333e-10 7.74591e-08 
0 0 0 -0.000217136 -2.63608e-12 -0.000154301 0 776 7120 -3.4502e-20 1.05196e-05 -1.68432e-20 5.24825e-10 1.04417e-07 
0 0 0 -0.000264116 1.69838e-06 -0.000495132 0 776 2205 -4.11053e-09 1.05012e-05 -2.17467e-08 5.24581e-10 1.04369e-07 
0 0 0 -0.00168944 -0.000186487 0.000149382 0 776 4654 1.1025e-07 1.37906e-05 1.65637e-07 5.90064e-10 1.17398e-07 
0 0 0 0.00025265 6.1879e-05 0.000152787 0 776 382 -2.84848e-06 8.34454e-06 -9.21124e-07 4.63652e-10 9.2246e-08 
0 0 0 -2.30597e-05 1.40539e-06 -0.000255568 0 776 4821 -3.90733e-08 1.05579e-05 5.83562e-08 5.26403e-10 1.04731e-07 
0 0 0 0.000130892 3.307e-08 -0.000215343 0 776 4483 3.99947e-15 1.05194e-05 4.16799e-15 5.24827e-10 1.04418e-07 
0 0 0 0.000790324 9.50556e-05 7.84949e-05 0 776 3641 -2.24943e-06 1.40092e-05 -4.21653e-07 6.54873e-10 1.30294e-07 
0 0 0 1.31913e-05 7.94563e-08 -0.000128792 0 776 758 5.00453e-11 1.05169e-05 -1.16173e-12 5.24753e-10 1.04403e-07 
0 0 0 -0.000224917 -4.90492e-12 -0.000152725 0 776 112 -3.76036e-20 1.05196e-05 -1.87171e-20 5.24825e-10 1.04417e-07 
0 0 0 -0.000744714 -0.000230213 0.000262758 0 776 7706 2.65981e-06 1.33991e-05 7.86599e-08 5.68843e-10 1.13176e-07 
0 0 0 -0.00049215 5.16083e-05 5.27844e-05 0 776 3393 2.81455e-06 4.73016e-07 -1.72559e-06 8.50408e-11 1.69185e-08 
0 0 0 4.1429e-05 0.000164224 0.000243209 0 776 39 -3.76423e-06 8.15627e-06 -1.56899e-06 4.80014e-10 9.55014e-08 
0 0 0 -0.000653966 -6.96942e-05 -0.000194334 0 776 7811 -2.70227e-06 1.58423e-05 6.24031e-06 6.75442e-10 1.34386e-07 
0 0 0 -7.42724e-05 -8.15458e-05 -8.66244e-05 0 776 9095 5.63578e-07 1.03306e-05 -5.61247e-07 5.00821e-10 9.96413e-08 
0 0 0 -0.00023662 1.36727e-05 0.000418352 0 776 5889 -3.19024e-06 1.16948e-05 -1.57486e-06 5.66125e-10 1.12635e-07 
0 0 0 0.00333331 0.0010194 -0.00543728 0 778 16349 5.08314e-07 1.03773e-05 2.31588e-06 5.29001e-10 1.05248e-07 
0 0 0 -0.0107206 -0.000389715 0.00207268 0 778 14170 7.51331e-09 1.02321e-05 1.35172e-06 5.17224e-10 1.02905e-07 
0 0 0 0.0020057 -5.2447e-05 0.00031479 0 778 12757 -5.73474e-08 1.04616e-05 1.63569e-06 5.28325e-10 1.05114e-07 
0 0 0 7.60331e-05 -7.297e-06 4.97939e-05 0 778 3129 1.11277e-07 1.11218e-05 3.16415e-06 5.57813e-10 1.10981e-07 
0 0 0 0.00231096 0.00100503 -0.0053764 0 778 7470 3.37249e-17 1.02659e-05 1.35713e-06 5.18851e-10 1.03229e-07 
0 0 0 -0.00115881 -1.95795e-05 0.000114519 0 778 4719 1.15102e-07 7.05697e-06 -1.68221e-07 3.9685e-10 7.89547e-08 
0 0 0 0.00052193 -1.90891e-06 0.000294252 0 778 15555 -3.3549e-07 1.12564e-05 -1.8807e-06 5.42701e-10 1.07974e-07 
0 0 0 -0.000668381 -4.26987e-05 0.000213186 0 778 7654 5.53761e-07 1.15429e-05 -9.4952e-07 5.45702e-10 1.08571e-07 
0 0 0 -0.000779977 3.55495e-05 3.6874e-05 0 778 8040 3.70947e-07 1.28108e-05 1.86466e-06 6.11093e-10 1.21582e-07 
0 0 0 0.0003261 -5.64289e-05 0.00020408 0 778 14527 -9.6767e-07 1.05208e-05 1.7624e-06 5.25788e-10 1.04609e-07 
0 0 0 -0.000439262 1.88709e-05 -8.48334e-05 0 778 17336 -1.04421e-08 1.21305e-05 4.52985e-06 5.97421e-10 1.18862e-07 
0 0 0 -0.000405183 1.724e-05 -7.69103e-05 0 778 14580 -8.16843e-07 1.2056e-05 9.14215e-06 6.21295e-10 1.23612e-07 
0 0 0 0.000194775 -0.000141404 0.000606267 0 778 5338 -3.22945e-07 1.04124e-05 2.49664e-07 5.10864e-10 1.0164e-07 
0 0 0 -0.000749574 -0.000128607 0.000727553 0 778 15828 1.80138e-06 1.26267e-05 3.03693e-06 6.04957e-10 1.20361e-07 
0 0 0 1.35083e-05 -6.51395e-07 9.40504e-06 0 778 14360 -2.93627e-09 9.99817e-06 1.34408e-06 5.10167e-10 1.01501e-07 
0 0 0 0.0256561 -0.00301362 0.0162528 0 778 988 2.70884e-07 9.96653e-06 1.34451e-06 5.14149e-10 1.02293e-07 
0 0 0 -0.00075693 -0.000139808 0.000779796 0 778 15381 5.65412e-08 9.89938e-06 1.52542e-06 5.09054e-10 1.0128e-07 
0 0 0 1.00628e-05 7.45244e-06 2.07205e-05 0 778 12332 3.04429e-06 1.12095e-05 3.80141e-06 5.663e-10 1.1267e-07 
0 0 0 -0.0001128 7.32775e-06 -5.72627e-05 0 778 8467 2.90078e-07 1.09863e-05 1.91026e-06 5.44885e-10 1.08409e-07 
0 0 0 1.35653e-05 2.2011e-05 -9.47405e-06 0 778 17589 2.95097e-06 9.81072e-06 2.32915e-06 5.14158e-10 1.02295e-07 
0 0 0 -0.0151195 0.00197629 -0.0105699 0 778 13923 1.81109e-08 1.02593e-05 1.6029e-06 5.20238e-10 1.03505e-07 
0 0 0 2.38621e-05 -1.73032e-06 -4.98756e-06 0 778 14539 2.45104e-07 9.75127e-06 1.32517e-06 5.01017e-10 9.96804e-08 
0 0 0 0.000165768 -6.6093e-06 3.93417e-05 0 778 752 2.93391e-07 9.33005e-06 7.39444e-07 4.83844e-10 9.62634e-08 
0 0 0 7.67456e-05 2.73754e-05 2.42841e-05 0 778 16821 1.6079e-06 1.01486e-05 1.49226e-06 5.22641e-10 1.03983e-07 
0 0 0 -0.0284776 0.000693474 -0.00371249 0 778 15203 1.95087e-07 1.01621e-05 1.69286e-06 5.17393e-10 1.02939e-07 
0 0 0 3.87581e-06 -1.64582e-05 -5.78861e-06 0 778 12335 3.45669e-07 1.06673e-05 2.3566e-06 5.34309e-10 1.06304e-07 
0 0 0 -9.13714e-05 -1.319e-05 -5.55967e-05 0 778 15785 -1.01899e-06 4.76007e-06 2.3075e-06 3.18365e-10 6.33391e-08 
0 0 0 0.00600655 -0.000573649 0.00330146 0 778 13645 -2.85672e-07 6.00582e-06 1.01495e-06 3.74699e-10 7.45476e-08 
0 0 0 -3.30455e-05 -1.67118e-05 5.16551e-06 0 778 2108 -1.07489e-07 1.52675e-05 4.69206e-06 6.87196e-10 1.36725e-07 
0 0 0 0.00648466 -0.000709523 0.00374446 0 778 11974 -1.60447e-06 1.18912e-05 3.78465e-06 5.83158e-10 1.16024e-07 
0 0 0 0.00619402 -0.000744941 0.00402845 0 778 18001 6.53669e-08 9.87374e-06 1.32617e-06 5.07425e-10 1.00955e-07 
0 0 0 -7.06878e-05 -5.12632e-05 0.000352677 0 778 7967 -1.58156e-06 8.88967e-06 5.04258e-07 4.70256e-10 9.35599e-08 
0 0 0 -0.00279242 -9.2732e-05 0.000475081 0 778 16369 -1.1645e-08 9.95442e-06 1.24024e-06 5.06992e-10 1.00869e-07 
0 0 0 0.0162195 -0.00444108 0.023763 0 778 13872 -4.98382e-10 1.0257e-05 1.35582e-06 5.18763e-10 1.03211e-07 
0 0 0 -9.16491e-05 -2.8294e-05 0.000300921 0 778 13527 -2.37752e-06 1.04763e-05 5.08508e-07 5.26513e-10 1.04753e-07 
0 0 0 -0.000108723 -7.91359e-05 8.96553e-06 0 778 1637 1.94612e-07 1.12779e-05 -2.96184e-07 5.25365e-10 1.04525e-07 
0 0 0 0.000811719 2.62474e-05 -0.000208912 0 778 17147 7.67159e-09 9.7493e-06 1.12298e-06 4.97502e-10 9.89811e-08 
0 0 0 0.000131728 -6.8986e-06 2.29441e-06 0 778 13175 -3.57652e-07 1.01161e-05 7.09958e-07 5.08525e-10 1.01174e-07 
0 0 0 0.0358841 -0.000369069 0.00197522 0 778 702 1.60665e-12 1.02649e-05 1.35695e-06 5.18853e-10 1.03229e-07 
0 0 0 0.00228157 -0.000340003 0.00184425 0 778 18396 -1.20519e-07 1.02947e-05 1.55227e-06 5.22009e-10 1.03857e-07 
0 0 0 -0.000607054 0.00026938 -0.00143618 0 778 15517 -2.14704e-07 1.02245e-05 1.62224e-06 5.19315e-10 1.03321e-07 
0 0 0 0.000960886 7.87102e-05 -0.000339588 0 778 5892 -1.2333e-06 1.50458e-05 5.14192e-06 6.89427e-10 1.37169e-07 
0 0 0 0.00250548 -0.000292244 0.00156345 0 778 13193 1.02463e-14 1.02659e-05 1.35713e-06 5.18854e-10 1.03229e-07 
0 0 0 -0.00091932 5.21062e-05 -0.000220621 0 778 16168 3.05168e-07 1.0645e-05 2.14132e-06 5.38293e-10 1.07097e-07 
0 0 0 -0.00173593 -0.000132767 0.000682151 0 778 5399 6.74711e-09 9.97285e-06 1.27697e-06 5.07548e-10 1.0098e-07 
0 0 0 -0.00427206 0.00132404 -0.00710771 0 778 3783 -2.95658e-07 9.37143e-06 7.09194e-06 5.23689e-10 1.04191e-07 
0 0 0 0.00304919 0.000420106 -0.00220872 0 778 17453 -1.62227e-07 1.00843e-05 1.55407e-06 5.15624e-10 1.02587e-07 
0 0 0 -0.00120699 -0.000158467 0.000851811 0 778 10441 -2.71216e-13 1.02603e-05 1.35608e-06 5.18823e-10 1.03223e-07 
0 0 0 -0.000826197 0.000143314 -0.000222982 0 778 15806 -6.77884e-07 1.14672e-05 3.32501e-06 5.90424e-10 1.1747e-07 
0 0 0 -0.000409555 -0.000212026 0.00114297 0 778 12749 -4.26014e-13 1.02828e-05 1.36053e-06 5.19775e-10 1.03413e-07 
0 0 0 -0.00146345 -0.000261901 0.00135079 0 778 9574 -4.81313e-08 9.94168e-06 1.29341e-06 5.05725e-10 1.00617e-07 
0 0 0 0.0131595 -0.00965287 0.0516382 0 778 17465 -2.41596e-19 1.02659e-05 1.35713e-06 5.18851e-10 1.03229e-07 
0 0 0 -0.000462591 -4.3388e-05 0.000186746 0 778 2010 1.71746e-06 1.20435e-05 3.64567e-06 5.87289e-10 1.16846e-07 
0 0 0 -0.000784558 -5.22419e-05 0.00035515 0 778 7627 4.82832e-07 1.06889e-05 1.84073e-06 5.38591e-10 1.07156e-07 
0 0 0 -0.00125788 -0.000170926 0.000868334 0 778 17720 3.02952e-06 9.82004e-06 4.79686e-06 5.23483e-10 1.0415e-07 
0 0 0 -0.0009418 -8.25464e-05 0.000567 0 778 15618 1.90994e-06 1.22108e-05 4.12812e-06 6.0179e-10 1.19731e-07 
0 0 0 0.00421912 -0.00179861 0.00961952 0 778 9644 -1.16662e-09 1.01863e-05 1.35493e-06 5.16131e-10 1.02688e-07 
0 0 0 -0.0111009 -0.00179492 0.0095177 0 778 1903 -1.04064e-08 1.02704e-05 1.33162e-06 5.15482e-10 1.02559e-07 
0 0 0 0.000543297 0.000108466 -0.00033697 0 778 874 -6.39577e-07 1.17537e-05 4.0581e-06 5.91883e-10 1.1776e-07 
0 0 0 0.000119989 3.24944e-05 -0.000372762 0 778 658 -5.06561e-07 7.74365e-06 5.83453e-06 4.53676e-10 9.0261e-08 
0 0 0 -0.0107344 -0.00120391 0.00644252 0 778 11428 -1.20274e-12 1.0279e-05 1.35972e-06 5.19385e-10 1.03335e-07 
0 0 0 0.000285833 -1.33438e-05 -4.54202e-05 0 778 4132 -8.74257e-07 1.17956e-05 3.73081e-06 5.77333e-10 1.14865e-07 
0 0 0 0.000192141 -6.84514e-06 -0.000213293 0 778 16870 -3.69063e-06 7.27061e-06 2.14375e-06 4.09863e-10 8.15438e-08 
0 0 0 -0.00026488 -2.22638e-05 7.02266e-05 0 778 17490 4.23173e-08 9.82817e-06 2.159e-06 5.07386e-10 1.00948e-07 
0 0 0 -2.23868e-05 1.00012e-05 2.66067e-06 0 778 9557 -2.95046e-07 8.44014e-06 1.2533e-06 4.58568e-10 9.12345e-08 
0 0 0 -8.71684e-05 0.000858744 -0.00461152 0 778 17917 -8.33792e-14 1.03656e-05 1.37645e-06 5.2154e-10 1.03764e-07 
0 0 0 -1.74281e-05 3.35368e-05 8.48721e-06 0 778 18020 -1.17457e-06 1.04371e-05 1.61762e-06 5.33525e-10 1.06149e-07 
0 0 0 0.000162013 3.15653e-05 -3.3033e-05 0 778 15810 -3.23217e-06 1.22984e-05 3.59505e-06 6.01821e-10 1.19737e-07 
0 0 0 -0.0342852 -0.00485462 0.0259699 0 778 15694 -7.15628e-18 1.02659e-05 1.35713e-06 5.18851e-10 1.03229e-07 
0 0 0 1.00281e-05 6.04026e-06 -0.000151824 0 778 6537 -3.89798e-07 9.20063e-06 1.89304e-06 4.8177e-10 9.58508e-08 
0 0 0 -5.9615e-05 -2.37435e-05 -4.43553e-05 0 778 8211 -1.88293e-06 1.02899e-05 9.94986e-08 5.0503e-10 1.00479e-07 
0 0 0 0.00636702 0.000630239 -0.00336885 0 778 14062 2.82087e-09 1.02077e-05 1.68453e-06 5.19056e-10 1.0327e-07 
0 0 0 -6.63867e-06 3.23075e-05 -0.000182491 0 778 5801 -2.44668e-07 1.05479e-05 1.49236e-06 5.28523e-10 1.05153e-07 
0 0 0 -0.00421737 0.000571511 -0.00323316 0 778 1313 4.91662e-08 9.82624e-06 1.1637e-06 4.96019e-10 9.86859e-08 
0 0 0 -0.0043621 0.000514339 -0.00305687 0 778 15188 -1.0383e-06 1.2037e-05 4.21948e-06 5.80361e-10 1.15467e-07 
0 0 0 -0.000292583 0.000124746 -0.000561781 0 778 338 1.08956e-07 1.26496e-05 8.14546e-06 6.369e-10 1.26717e-07 
0 0 0 -0.000548629 -0.000222937 0.00119266 0 778 8602 -7.92074e-08 1.01639e-05 1.89936e-06 5.18834e-10 1.03225e-07 
0 0 0 -3.47792e-05 3.26095e-06 -8.71365e-05 0 778 7503 8.47889e-07 6.0783e-06 -7.00017e-07 3.51708e-10 6.99731e-08 
0 0 0 -1.31982e-05 1.65852e-06 -5.37451e-05 0 778 5232 -2.53995e-06 9.79343e-06 2.95393e-06 5.11321e-10 1.01731e-07 
0 0 0 1.25738e-05 -1.7256e-06 -5.79068e-05 0 778 4160 -9.34618e-07 1.22971e-05 4.3653e-06 5.98377e-10 1.19052e-07 
0 0 0 -0.000990999 -3.42312e-05 -7.12141e-05 0 778 4777 -5.37844e-08 1.31049e-05 4.85574e-06 6.18461e-10 1.23048e-07 
0 0 0 -0.000155498 2.10032e-05 -0.000156352 0 778 9184 8.07589e-07 1.23388e-05 2.56574e-06 5.90221e-10 1.17429e-07 
0 0 0 -0.000158533 2.47525e-05 2.38222e-05 0 778 4952 6.09663e-07 1.03252e-05 5.22342e-06 5.50413e-10 1.09509e-07 
0 0 0 -7.28451e-05 5.70811e-06 -7.552e-05 0 778 924 2.34062e-06 1.04166e-05 1.50217e-06 5.22892e-10 1.04033e-07 
0 0 0 -1.41531e-05 1.6558e-05 -2.28018e-05 0 778 7257 -2.27021e-07 1.07081e-05 2.18386e-06 5.40892e-10 1.07614e-07 
0 0 0 -3.45936e-05 1.70874e-05 -5.35945e-06 0 778 13493 1.192e-06 9.56999e-06 3.03579e-06 5.09664e-10 1.01401e-07 
0 0 0 -3.25244e-05 -2.51287e-05 -8.6193e-06 0 778 11962 -1.23739e-06 1.23027e-05 4.54107e-06 5.96635e-10 1.18706e-07 
0 0 0 -0.000534523 -8.93341e-05 0.000578917 0 778 12382 -2.33716e-08 9.84792e-06 1.62392e-06 5.1073e-10 1.01613e-07 
0 0 0 -4.73964e-05 -5.00972e-06 5.59313e-06 0 778 10116 -8.44595e-07 6.60269e-06 -1.36541e-06 3.69577e-10 7.35284e-08 
0 0 0 -0.139549 -0.274697 0.301328 0 784 11726 -2.20214e-17 7.10933e-06 3.74085e-06 4.28995e-10 8.53504e-08 
0 0 0 0.620679 -10.3715 3.6548 0 922 6109 0.00044072 0.0128638 0.0140794 1.13103e-07 2.28267e-05 
0 0 0 -0.862685 -6.92541 5.41992 0 928 15342 0.0482431 0.0726079 0.0636783 1.57942e-07 3.20641e-05 
0 0 0 1.52201 0.535937 9.16452 0 936 18993 -0.00029365 -0.0110395 0.00264935 6.92918e-08 9.22557e-06 
0 0 0 3.42785e-07 3.44783e-07 -2.93243e-05 0 775 210 -1.63798e-07 9.8749e-06 -1.58566e-06 5.08586e-10 1.01186e-07 
0 0 0 -2.6577e-05 -3.86966e-06 -2.33319e-05 0 775 2116 -2.04298e-06 1.24265e-05 -7.92624e-07 5.84494e-10 1.1629e-07 
0 0 0 -1.98418e-05 1.00615e-05 3.41901e-05 0 775 12 1.04107e-06 1.66959e-05 -6.83443e-06 7.42232e-10 1.47676e-07 
0 0 0 -1.47685e-05 1.52944e-05 4.19252e-05 0 775 4248 -3.60586e-07 6.26905e-06 -1.30814e-06 3.78657e-10 7.53349e-08 
0 0 0 3.16613e-05 -5.55958e-05 -0.000277459 0 775 3998 -2.46141e-06 1.08729e-05 -1.53941e-06 5.38933e-10 1.07225e-07 
0 0 0 0.000141599 2.16953e-05 -0.000169375 0 775 9210 -2.49925e-06 9.26593e-06 1.92386e-06 4.76054e-10 9.47135e-08 
0 0 0 8.38065e-05 -2.85352e-05 -0.000127631 0 775 5900 -4.26955e-06 1.15868e-05 -3.6226e-06 5.73755e-10 1.14153e-07 
0 0 0 -2.50951e-05 2.86576e-06 1.50793e-05 0 775 1890 -8.40523e-07 1.06343e-05 -2.03405e-06 5.3501e-10 1.06444e-07 
0 0 0 2.2898e-05 -1.65546e-05 3.6003e-05 0 775 6574 -3.46502e-07 1.24652e-05 -1.52895e-06 5.85032e-10 1.16397e-07 
0 0 0 -3.69592e-05 -4.55708e-06 -7.5677e-05 0 775 1749 -1.5494e-07 7.93115e-06 3.50105e-07 4.29586e-10 8.5468e-08 
0 0 0 1.66148e-05 -1.01165e-05 -3.92673e-05 0 775 7843 3.19823e-07 1.19667e-05 -2.1298e-06 5.77297e-10 1.14858e-07 
0 0 0 6.93886e-06 -4.65996e-06 1.41214e-06 0 775 11044 1.9185e-06 8.47409e-06 -2.26701e-06 4.62976e-10 9.21115e-08 
0 0 0 -2.55109e-06 -2.69284e-06 -7.2358e-06 0 775 8128 -2.5632e-06 8.24887e-06 -1.42619e-06 4.50368e-10 8.96029e-08 