ITEM: TIMESTEP
3750000
ITEM: NUMBER OF ENTRIES
152
ITEM: BOX BOUNDS ff ff ff
-0.01 0.45
-0.15 0.15
-0.08 0.1
ITEM: ENTRIES c_pwc[1] c_pwc[2] c_pwc[3] 
0 928 193 
0 914 33 
0 798 33 
0 867 451 
0 960 451 
0 850 41 
0 885 41 
0 962 51 
0 854 4 
0 852 402 
0 855 236 
0 854 313 
1 529 146 
1 530 146 
1 526 146 
1 541 146 
1 527 146 
1 1831 146 
1 1827 146 
1 1861 146 
1 1874 146 
1 1873 146 
1 1883 146 
1 1889 146 
1 1842 146 
1 1830 146 
1 1828 146 
1 1871 146 
1 1885 146 
1 1869 146 
1 1868 146 
1 1892 146 
1 1893 146 
0 885 270 
0 885 48 
0 885 127 
0 885 52 
0 885 276 
0 885 351 
0 885 79 
0 885 39 
0 850 270 
0 850 48 
0 850 127 
0 850 52 
0 850 276 
0 850 351 
0 850 79 
0 851 39 
0 962 118 
0 894 1 
0 894 164 
0 852 407 
0 961 40 
0 753 40 
0 886 15 
0 885 15 
0 850 15 
0 889 401 
0 888 377 
0 383 94 
0 383 6 
0 377 422 
0 435 409 
0 405 328 
0 405 77 
0 406 77 
0 429 75 
0 427 215 
0 421 282 
0 413 353 
0 378 413 
0 379 238 
0 388 89 
0 389 416 
0 367 114 
0 366 114 
0 399 321 
0 399 352 
0 395 209 
0 430 360 
0 422 99 
0 427 10 
0 416 412 
0 416 135 
0 417 372 
0 417 136 
0 537 330 
0 531 320 
0 551 341 
0 400 341 
0 589 101 
0 589 335 
0 587 11 
0 517 7 
0 439 150 
0 406 180 
0 404 36 
0 404 97 
0 575 177 
0 571 35 
0 430 258 
0 428 69 
0 428 379 
0 422 226 
0 567 187 
0 537 202 
0 527 223 
0 545 275 
0 539 421 
0 521 71 
0 519 312 
0 519 59 
0 524 302 
1 2626 302 
1 2625 302 
0 551 255 
0 588 93 
0 586 151 
0 584 78 
0 583 78 
0 557 104 
0 562 66 
0 560 19 
0 581 358 
0 569 46 
0 567 292 
0 568 22 
0 546 247 
0 542 100 
0 540 246 
0 518 31 
0 554 115 
0 590 83 
0 580 67 
0 580 168 
0 570 119 
0 1067 85 
0 520 304 
0 550 259 
0 1107 37 
0 1103 285 
0 1101 160 
0 1095 109 
0 1095 49 
0 1089 27 
0 1089 106 
0 1063 3 
0 1056 13 
0 1087 50 
0 1112 88 
0 1106 82 
