ITEM: TIMESTEP
15850000
ITEM: NUMBER OF ENTRIES
465
ITEM: BOX BOUNDS ff ff ff
-0.01 0.45
-0.15 0.15
-0.08 0.1
ITEM: ENTRIES c_pwc[1] c_pwc[2] c_pwc[3] 
0 850 1707 
0 850 41 
0 850 480 
0 850 286 
0 885 1707 
0 885 41 
0 885 480 
0 884 286 
0 884 1541 
0 884 940 
0 884 1797 
0 884 61 
0 884 389 
0 884 1456 
0 884 661 
0 884 1222 
0 854 869 
0 854 901 
0 854 972 
0 854 1383 
0 854 1541 
0 854 1576 
0 854 897 
0 854 1478 
0 853 940 
0 853 1389 
0 853 1697 
0 853 338 
0 853 3 
0 853 638 
0 853 1222 
0 852 937 
0 852 193 
0 852 1329 
0 852 1298 
0 852 1219 
0 852 1685 
0 894 1068 
0 894 1591 
0 894 757 
0 894 1657 
0 894 410 
0 894 495 
0 894 1601 
0 894 343 
0 894 773 
0 894 889 
0 852 964 
0 852 1755 
0 852 1736 
0 855 100 
0 855 1444 
0 855 1259 
0 855 916 
0 855 945 
0 854 1688 
0 854 131 
0 854 756 
0 854 964 
0 934 921 
1 1861 417 
1 1874 417 
1 1873 417 
1 529 417 
1 530 417 
1 1883 417 
1 1890 417 
1 1889 417 
1 1826 417 
1 1828 417 
1 1842 417 
1 1830 417 
1 1827 417 
1 1831 417 
1 493 146 
1 494 146 
1 526 417 
1 541 417 
1 527 417 
1 1871 417 
1 1869 417 
1 1870 417 
1 1868 417 
1 1893 417 
1 1892 417 
1 1885 417 
1 496 146 
0 952 688 
1 134 1377 
1 136 1377 
1 2650 1377 
1 120 1377 
1 123 1377 
1 125 1377 
1 2649 1377 
1 126 1377 
1 2647 1377 
1 2707 1377 
1 2673 1377 
1 2644 1377 
1 2674 1377 
1 2672 1377 
1 2722 1377 
1 2721 1377 
1 2724 1377 
1 2702 1377 
1 2726 1377 
1 2703 1377 
0 910 770 
0 885 270 
0 885 969 
0 885 48 
0 885 127 
0 885 52 
0 885 908 
0 885 276 
0 885 352 
0 885 6 
0 885 79 
0 885 351 
0 885 45 
0 885 393 
0 885 39 
0 850 270 
0 850 969 
0 850 48 
0 850 127 
0 850 52 
0 850 908 
0 850 276 
0 850 352 
0 850 6 
0 850 79 
0 850 351 
0 850 45 
0 851 393 
0 851 39 
1 2698 752 
1 2685 752 
1 2717 752 
0 895 753 
0 895 1279 
0 853 25 
0 853 681 
0 853 1348 
0 853 483 
0 853 1892 
0 853 303 
0 853 1504 
0 853 1472 
0 853 1750 
0 853 576 
0 853 1610 
0 853 710 
0 853 253 
0 853 609 
0 853 425 
0 853 678 
0 853 1272 
0 853 1099 
0 853 1545 
0 853 1829 
0 853 1686 
0 884 788 
0 884 222 
0 884 680 
0 884 1565 
0 884 565 
0 884 1622 
0 884 228 
0 884 1654 
0 884 678 
0 884 188 
0 884 1564 
0 885 249 
0 850 788 
0 852 696 
0 852 505 
0 894 844 
0 894 359 
0 894 998 
0 894 623 
0 894 331 
0 894 208 
0 894 308 
0 894 471 
0 894 450 
0 894 1827 
0 894 999 
0 894 1247 
0 852 928 
0 852 490 
0 852 1780 
0 852 566 
0 852 493 
0 895 1275 
0 895 1581 
0 853 981 
0 949 1586 
0 949 1475 
0 919 1081 
0 917 1349 
0 961 1029 
0 961 40 
0 959 1939 
0 957 1426 
0 955 1221 
0 759 1221 
0 753 1029 
0 753 40 
0 407 1939 
0 886 15 
0 885 15 
0 850 15 
0 963 1977 
0 888 1717 
0 888 1962 
0 888 570 
0 888 1210 
0 888 1339 
0 888 1903 
0 888 1885 
0 888 140 
0 888 533 
0 853 362 
0 892 1395 
0 895 1803 
0 895 1148 
0 381 10 
0 381 1284 
0 375 1880 
0 384 248 
0 369 876 
0 367 1968 
0 366 513 
0 399 1872 
0 395 1207 
0 437 1849 
0 365 431 
0 425 832 
0 419 1648 
0 415 817 
0 411 497 
0 384 1728 
0 383 1728 
0 377 299 
0 394 405 
0 393 1955 
0 393 1774 
0 369 1470 
0 367 977 
0 400 1216 
0 399 1216 
0 397 1257 
0 437 1316 
0 433 1779 
0 410 1405 
0 406 1054 
0 424 895 
0 429 1758 
0 427 295 
0 425 1973 
0 418 1947 
0 416 1957 
0 416 1533 
0 416 1164 
0 413 447 
0 411 1921 
0 535 1087 
0 533 820 
0 378 1636 
0 378 1550 
0 378 975 
0 541 646 
0 541 605 
0 539 316 
0 392 242 
0 388 1665 
0 518 1525 
0 364 1490 
0 551 1741 
0 549 1798 
0 547 1307 
0 402 88 
0 396 1035 
0 585 1463 
0 585 90 
0 448 414 
0 436 1713 
0 434 414 
0 561 485 
0 559 502 
0 557 1061 
0 557 530 
0 555 705 
0 478 834 
0 404 834 
0 426 595 
0 420 1085 
0 563 280 
0 534 223 
0 545 1022 
0 543 1357 
0 543 1941 
0 539 163 
0 539 670 
0 546 1772 
0 544 259 
0 521 1461 
0 518 858 
0 551 865 
0 551 1082 
0 585 499 
0 517 169 
0 586 109 
0 561 851 
0 555 1577 
0 555 1001 
0 555 428 
0 556 186 
0 573 1749 
0 572 95 
0 569 162 
0 563 409 
0 563 234 
0 536 139 
0 532 76 
0 532 246 
0 528 75 
0 546 1002 
0 542 1753 
0 542 925 
0 545 614 
0 541 46 
0 539 269 
0 522 1296 
0 525 1408 
0 523 689 
0 521 1240 
0 548 1350 
0 591 610 
0 588 506 
0 584 226 
0 585 1556 
0 585 1209 
0 559 697 
0 578 420 
0 576 335 
0 574 464 
0 568 159 
0 566 527 
0 1061 1604 
0 1059 1724 
0 1057 67 
0 1055 1457 
0 530 1570 
0 1071 946 
0 1069 62 
0 544 943 
0 542 556 
0 540 1184 
0 1051 330 
0 1051 1067 
0 1051 177 
0 1047 217 
0 1047 1159 
0 1045 37 
1 1796 1067 
1 1795 1067 
0 1075 87 
0 1075 494 
0 1115 1007 
0 1081 1453 
0 560 412 
0 1103 855 
0 1101 1165 
0 1101 1810 
0 1101 282 
0 1099 241 
0 1099 408 
0 1099 11 
0 1097 847 
0 580 736 
0 574 812 
0 1095 1403 
0 1091 631 
0 1089 50 
0 1064 907 
0 1071 1182 
0 1067 171 
0 1065 346 
0 1050 120 
0 1045 1052 
0 1079 1425 
0 1079 579 
0 1078 279 
0 1077 97 
0 1075 740 
0 1074 277 
0 1074 190 
0 1117 255 
0 1087 341 
0 1086 724 
0 1083 86 
0 1107 191 
0 1105 281 
0 1104 80 
0 1101 221 
0 1099 22 
0 1099 372 
0 1098 367 
0 1098 1114 
0 1097 665 
0 1092 822 
0 1091 1693 
0 1287 430 
0 1281 210 
0 1054 571 
0 1054 91 
0 1291 1519 
0 1067 115 
0 1045 1048 
0 1042 785 
0 1052 292 
0 1305 1402 
0 1078 119 
0 1074 301 
0 1339 379 
0 1114 642 
0 1114 593 
0 1088 1308 
0 1082 667 
0 1335 939 
0 1331 1203 
0 1108 1109 
0 1108 722 
0 1106 864 
0 1104 122 
0 1104 1365 
0 1102 32 
0 1100 236 
0 1317 202 
0 1092 1191 
0 1289 35 
0 1295 852 
0 1295 429 
0 1293 444 
0 1291 994 
0 1275 47 
0 1268 1299 
0 1269 1299 
0 1305 1010 
0 1299 1194 
0 1269 435 
0 1313 94 
0 1311 518 
0 1311 706 
0 1334 1451 
0 1321 1687 
0 1315 440 
0 145 23 
0 143 212 
0 127 34 
1 1198 915 
0 123 611 
