ITEM: TIMESTEP
7550000
ITEM: NUMBER OF ENTRIES
2423
ITEM: BOX BOUNDS ff ff ff
-0.01 0.45
-0.15 0.15
-0.08 0.1
ITEM: ENTRIES c_pwc[1] c_pwc[2] c_pwc[3] c_pwc[4] c_pwc[5] c_pwc[6] c_pwc[7] c_pwc[8] c_pwc[9] c_pwc[10] c_pwc[11] c_pwc[12] c_pwc[13] c_pwc[14] 
0 0 0 6.39709 4.70719 23.8911 0 938 5221 -0.000477597 0.101593 -0.0286019 2.46498e-07 5.0642e-05 
0 0 0 0.0880437 -0.188331 0.303706 0 782 4848 -4.70881e-06 8.19334e-06 4.69786e-06 4.34868e-10 8.65189e-08 
0 0 0 0.0992096 -0.0824726 0.212886 0 780 12410 -1.85613e-15 9.53905e-06 2.53098e-06 5.00925e-10 9.96621e-08 
0 0 0 -0.00389116 -1.05913e-05 -5.10931e-05 0 778 7649 2.41592e-06 1.64017e-05 4.73571e-06 7.18558e-10 1.42965e-07 
0 0 0 0.000822535 -0.0067106 0.0358985 0 778 3129 2.35996e-19 1.02659e-05 1.35713e-06 5.18851e-10 1.03229e-07 
0 0 0 -0.00386606 -2.25169e-08 -0.00012157 0 778 8040 8.98305e-07 7.7151e-06 -8.69801e-07 4.10887e-10 8.17476e-08 
0 0 0 0.00199163 -0.00020213 0.00149252 0 778 12800 -2.40717e-07 9.87712e-06 1.21201e-06 5.21595e-10 1.03775e-07 
0 0 0 0.0300495 0.00377175 -0.0201749 0 778 13175 2.87385e-12 1.02646e-05 1.35692e-06 5.18894e-10 1.03237e-07 
0 0 0 0.00065913 -0.000291432 0.00154998 0 778 3837 -1.99572e-11 1.02873e-05 1.36121e-06 5.1922e-10 1.03302e-07 
0 0 0 -0.0056756 -0.000353258 0.00188945 0 778 4413 9.20665e-14 1.0266e-05 1.35716e-06 5.18844e-10 1.03227e-07 
0 0 0 0.000694803 0.000196352 -0.00124394 0 778 2015 -2.53366e-08 1.00689e-05 1.32566e-06 5.04415e-10 1.00357e-07 
0 0 0 0.0045644 0.000618544 -0.00324951 0 778 12917 2.78149e-11 1.02168e-05 1.34818e-06 5.19552e-10 1.03368e-07 
0 0 0 0.00424315 0.000260426 -0.00140909 0 778 2611 -3.6907e-12 1.03394e-05 1.37134e-06 5.20718e-10 1.036e-07 
0 0 0 -0.00698173 -0.00218198 0.0116769 0 778 5560 -4.49301e-11 1.02631e-05 1.35663e-06 5.1893e-10 1.03245e-07 
0 0 0 0.0174547 -0.00268837 0.014238 0 778 12450 6.72822e-07 1.18951e-05 -4.96108e-06 5.278e-10 1.05009e-07 
0 0 0 0.0216349 -0.00286608 0.0153143 0 778 12332 -1.91179e-11 1.02928e-05 1.36219e-06 5.19055e-10 1.03269e-07 
0 0 0 0.00199048 -0.00120731 0.00661425 0 778 5399 -4.89985e-06 9.6107e-06 2.58929e-06 5.1104e-10 1.01675e-07 
0 0 0 -0.00644908 0.00238994 -0.0121321 0 778 10496 -7.99292e-08 4.90187e-06 5.86087e-07 3.45946e-10 6.88266e-08 
0 0 0 -0.00465664 -0.00468325 0.0250532 0 778 7654 -1.26827e-07 1.0298e-05 1.18516e-06 5.1885e-10 1.03229e-07 
0 0 0 0.0296777 0.00679356 -0.0363423 0 778 215 4.54053e-20 1.02659e-05 1.35713e-06 5.18851e-10 1.03229e-07 
0 0 0 -0.00282908 2.43176e-06 -0.000105161 0 776 7937 8.34044e-08 8.62622e-06 3.40419e-06 4.60341e-10 9.15872e-08 
0 0 0 0.00123585 7.24895e-06 2.77234e-05 0 776 5540 -2.49337e-08 1.13086e-05 2.03081e-06 5.52298e-10 1.09884e-07 
0 0 0 -2.85136e-05 -7.66643e-06 1.10955e-06 0 776 1200 1.04638e-08 8.45953e-06 8.99109e-07 4.52134e-10 8.99543e-08 
0 0 0 -0.000264611 -1.79777e-06 -1.65905e-05 0 776 1871 1.04647e-07 8.92536e-06 -2.76959e-06 4.69966e-10 9.35023e-08 
0 0 0 3.41647e-05 2.177e-05 -2.48804e-05 0 776 206 7.67928e-08 1.24395e-05 -2.80678e-06 5.91459e-10 1.17676e-07 
0 0 0 9.69742e-05 -3.10981e-05 -4.13688e-05 0 776 1972 -3.08306e-08 1.25653e-05 1.58098e-06 5.84294e-10 1.1625e-07 
0 0 0 9.57573e-05 -5.35901e-06 -6.21308e-05 0 776 733 -1.27018e-06 8.6347e-06 1.85697e-06 4.589e-10 9.13005e-08 
0 0 0 -0.00349268 -6.93896e-06 0.000183641 0 776 10595 -2.33028e-08 1.08042e-05 1.44156e-07 5.32753e-10 1.05995e-07 
0 0 0 -0.00461207 1.87186e-05 0.000102461 0 776 894 -9.32449e-10 1.07683e-05 -2.6785e-09 5.37101e-10 1.0686e-07 
0 0 0 -0.00678242 2.2384e-06 -0.000550191 0 776 9680 8.86546e-13 1.05121e-05 9.74584e-13 5.2506e-10 1.04464e-07 
0 0 0 -0.000160586 3.76057e-06 -0.000370733 0 776 414 -6.92353e-11 1.0531e-05 -2.78039e-11 5.26019e-10 1.04655e-07 
0 0 0 -0.00115202 -4.38685e-06 -0.000254182 0 776 690 1.4473e-09 1.0566e-05 -5.19465e-10 5.25419e-10 1.04536e-07 
0 0 0 0.000231597 -5.90438e-05 -4.46573e-05 0 776 280 6.49273e-08 1.06762e-05 5.60074e-07 5.17274e-10 1.02915e-07 
0 0 0 0.000277225 8.68908e-05 -2.1804e-05 0 776 1894 -1.19206e-06 1.06721e-05 1.08184e-06 5.48644e-10 1.09157e-07 
0 0 0 -0.00131095 -2.08886e-05 0.000145195 0 776 1225 -3.28163e-10 1.03617e-05 -5.20471e-10 5.1503e-10 1.02468e-07 
0 0 0 -0.00568473 -4.77589e-06 -0.000642247 0 776 3512 1.10989e-11 1.05401e-05 -9.91593e-13 5.24476e-10 1.04348e-07 
0 0 0 -0.000450479 8.44944e-05 -0.000399939 0 776 101 -5.04213e-07 1.13421e-05 3.06829e-06 5.69893e-10 1.13385e-07 
0 0 0 -0.0014449 -5.85001e-05 -0.000117046 0 776 317 7.71888e-08 7.69509e-06 2.82188e-06 4.12748e-10 8.21178e-08 
0 0 0 0.000224777 -0.00011219 -0.000233414 0 776 1705 -3.60467e-06 1.00337e-05 3.9374e-06 4.84069e-10 9.63083e-08 
0 0 0 -0.0023035 6.29077e-05 -0.000124402 0 776 9977 -3.09074e-09 1.10081e-05 7.92144e-09 5.54461e-10 1.10314e-07 
0 0 0 -0.00654307 -2.22354e-05 0.000318661 0 776 2352 1.75329e-07 8.66827e-06 -1.90484e-06 4.5632e-10 9.07871e-08 
0 0 0 -0.012502 -0.000214927 -0.00734859 0 776 9269 3.75341e-05 8.82805e-05 2.32283e-05 2.13427e-09 4.24713e-07 
0 0 0 -0.000564113 9.58664e-06 -0.000120343 0 776 6408 5.75481e-10 1.09233e-05 3.41805e-10 5.40229e-10 1.07482e-07 
0 0 0 -0.000409015 -0.00010769 -0.000668347 0 776 553 5.01603e-06 1.27705e-05 -3.28322e-06 5.74677e-10 1.14337e-07 
0 0 0 0.000235711 -6.75731e-05 0.000481225 0 776 585 -1.39404e-08 1.02465e-05 -5.09825e-09 5.01016e-10 9.96802e-08 
0 0 0 0.00107278 7.46683e-05 0.000424345 0 776 2069 -1.40908e-06 1.13983e-05 7.49504e-07 5.69601e-10 1.13327e-07 
0 0 0 -0.00664597 0.000351709 5.35949e-05 0 776 531 1.30325e-05 3.04607e-05 -7.88152e-06 1.12988e-09 2.24813e-07 
0 0 0 -0.00401051 0.000785732 -0.00579334 0 776 8455 1.58296e-08 1.07634e-05 -4.74578e-09 7.01639e-10 1.39599e-07 
0 0 0 -0.000812537 -3.66531e-05 0.00103258 0 776 6702 1.9734e-06 1.2367e-05 -2.56591e-06 5.76874e-10 1.14774e-07 
0 0 0 -0.00601013 8.98706e-05 0.000993612 0 776 1002 -8.70575e-08 1.01353e-05 1.6495e-06 5.31537e-10 1.05753e-07 
0 0 0 0.002491 6.07051e-07 0.00268101 0 776 1470 -5.67687e-07 1.11809e-05 3.18224e-07 5.46725e-10 1.08775e-07 
0 0 0 -0.00247731 3.86228e-06 -0.00275986 0 776 1045 -2.1443e-11 1.06652e-05 4.10823e-12 5.30491e-10 1.05545e-07 
0 0 0 -0.00678634 3.24435e-05 -0.011312 0 776 4634 1.30437e-08 9.88629e-06 -8.10022e-09 5.10641e-10 1.01595e-07 
0 0 0 -0.00997308 9.79163e-05 -0.0101056 0 776 72 2.10261e-05 8.28377e-06 7.74683e-06 4.69597e-10 9.34289e-08 
0 0 0 -0.0084351 9.99562e-06 -0.00271711 0 776 4165 3.69177e-07 1.54161e-05 5.07646e-06 6.79138e-10 1.35122e-07 
0 0 0 -0.0033362 0.000876453 -0.0047548 0 776 3087 5.35533e-06 1.52174e-05 1.64122e-05 8.49123e-10 1.68946e-07 
0 0 0 -0.0083175 0.000747028 0.00578566 0 776 10360 1.47568e-07 -5.14915e-07 -2.10969e-07 2.53888e-10 5.0511e-08 
0 0 0 -0.0100667 0.00011242 -0.00242365 0 776 1920 -4.10593e-08 5.26896e-06 3.96154e-07 3.58306e-10 7.12859e-08 
0 0 0 0.000734308 -0.000127679 -0.00449356 0 776 10613 4.93054e-07 2.96931e-06 1.45575e-05 1.91767e-10 3.81517e-08 
0 0 0 -0.00404605 0.00147557 -0.00545161 0 776 4185 -1.6905e-06 -4.00358e-06 -8.9315e-07 2.86994e-10 5.70977e-08 
0 0 0 -0.00756521 3.68866e-07 -0.00741752 0 776 4938 5.54993e-12 1.05228e-05 5.65361e-12 5.25011e-10 1.04455e-07 
0 0 0 -0.0077378 -2.92346e-05 -0.0153811 0 776 18 -4.31065e-09 1.0944e-05 6.76817e-09 5.3256e-10 1.05957e-07 
0 0 0 -0.00883479 7.13659e-09 -0.00846827 0 776 4248 -1.53207e-14 1.05207e-05 -1.49173e-14 5.24864e-10 1.04425e-07 
0 0 0 -0.000483759 0.00015562 -0.00205911 0 776 9715 1.45339e-05 3.08682e-05 1.26545e-05 1.10377e-09 2.19618e-07 
0 0 0 -0.005453 2.35825e-06 -0.0107094 0 776 8603 -1.44614e-11 1.04936e-05 -3.17797e-11 5.24472e-10 1.04347e-07 
0 0 0 -0.00158787 0.00188454 -0.016276 0 776 1367 8.0414e-06 3.26157e-05 1.41874e-05 1.45232e-09 2.88983e-07 
0 0 0 -0.00500548 -3.86567e-07 -0.0116492 0 776 1036 2.93401e-13 1.05253e-05 -1.59198e-13 5.24931e-10 1.04438e-07 
0 0 0 -0.0162544 -4.40857e-06 -0.00110298 0 776 6544 -1.1887e-09 1.04983e-05 -3.17588e-10 5.23162e-10 1.04087e-07 
0 0 0 0.00455084 0.000460305 -0.01192 0 776 9160 -1.46547e-06 5.58696e-06 3.42063e-06 4.54462e-10 9.04175e-08 
0 0 0 0.00381029 0.000228178 -0.0269595 0 776 7185 9.48432e-06 1.00949e-05 5.87433e-05 5.60307e-10 1.11477e-07 
0 0 0 -0.00126609 -6.6774e-12 -0.0107486 0 776 5953 -1.49756e-19 1.05196e-05 1.03627e-18 5.24825e-10 1.04417e-07 
0 0 0 0.00198116 -0.000397957 -0.0238646 0 776 9639 7.75958e-06 2.06265e-05 6.79357e-06 7.45207e-10 1.48268e-07 
0 0 0 0.0228851 -5.81732e-05 -0.0252323 0 776 4532 -4.27352e-06 2.09227e-05 9.54867e-06 8.18774e-10 1.62906e-07 
0 0 0 -0.00813981 -3.05066e-05 -0.00147489 0 776 9210 6.84547e-11 1.05076e-05 1.2779e-11 5.17823e-10 1.03024e-07 
0 0 0 0.0133545 -2.1436e-06 -0.027497 0 776 3983 -2.81095e-06 1.05459e-05 4.46124e-06 5.25237e-10 1.04499e-07 
0 0 0 0.0230031 0.000417546 -0.0609487 0 776 3427 -8.90844e-05 2.53747e-06 0.000219528 3.16763e-10 6.30204e-08 
0 0 0 -0.00917829 5.03025e-05 -0.00797786 0 776 9279 -2.29615e-10 9.845e-06 -2.07014e-10 5.13151e-10 1.02095e-07 
0 0 0 0.00697447 1.08354e-06 -0.00479143 0 776 7431 1.73382e-12 1.05451e-05 -1.55085e-12 5.25907e-10 1.04633e-07 
0 0 0 0.0142906 0.00151044 -0.0113729 0 776 1366 -1.77263e-05 3.81603e-05 7.05917e-06 1.5021e-09 2.9889e-07 
0 0 0 0.00891431 -0.00064258 -0.0190867 0 776 10907 -7.01978e-06 1.90853e-05 6.46409e-06 6.5495e-10 1.30309e-07 
0 0 0 0.00522228 -0.000168105 -0.0131077 0 776 6574 3.96479e-06 1.21545e-05 1.14431e-06 5.42369e-10 1.07908e-07 
0 0 0 -0.0114546 2.9905e-12 -0.00460233 0 776 12872 9.15543e-19 1.05196e-05 4.60183e-19 5.24825e-10 1.04417e-07 
0 0 0 0.019801 -0.000199824 -0.0151363 0 776 1887 -4.09057e-06 1.15889e-05 4.10402e-06 5.17271e-10 1.02914e-07 
0 0 0 0.00134498 -7.50774e-05 0.00448353 0 776 4164 -4.13017e-10 1.1054e-05 -4.88016e-09 5.26337e-10 1.04718e-07 
0 0 0 0.00194755 -0.000526949 0.00314177 0 776 1749 -1.4814e-05 2.48148e-06 -5.21895e-07 6.43896e-11 1.281e-08 
0 0 0 -0.00919463 3.29567e-12 -0.00364918 0 776 5950 1.20854e-18 1.05196e-05 5.28782e-19 5.24825e-10 1.04417e-07 
0 0 0 -0.00596024 3.79637e-12 0.000401421 0 776 11571 5.99026e-19 1.05196e-05 -5.03616e-21 5.24825e-10 1.04417e-07 
0 0 0 0.000634459 0.000109675 -0.00324336 0 776 3630 -4.09933e-07 1.066e-05 -2.87944e-07 5.53169e-10 1.10057e-07 
0 0 0 0.00203374 0.000131437 -0.00395417 0 776 11044 2.41023e-06 1.3104e-05 6.09259e-06 6.35016e-10 1.26342e-07 
0 0 0 0.00654818 0.000337113 0.00102028 0 776 7843 -2.63127e-05 3.03405e-06 -6.68255e-06 3.18374e-10 6.33411e-08 
0 0 0 -0.0208621 -0.00499473 0.0267194 0 779 700 -1.16538e-18 1.02659e-05 1.35713e-06 5.18851e-10 1.03229e-07 
0 0 0 -0.0040354 3.15231e-05 -0.00511806 0 777 5611 1.2402e-08 9.46436e-06 -9.55909e-09 4.9606e-10 9.8694e-08 
0 0 0 0.00254291 -0.00119246 -0.00549502 0 777 12691 4.64723e-06 1.62574e-05 6.66924e-06 4.63628e-10 9.22412e-08 
0 0 0 -0.00876501 1.42851e-06 -0.00998631 0 777 1063 4.94656e-11 1.09389e-05 1.33348e-10 5.38988e-10 1.07235e-07 
0 0 0 -0.00815558 5.24659e-12 -0.00884725 0 777 12116 -3.52892e-19 1.05196e-05 1.20862e-18 5.24825e-10 1.04417e-07 
0 0 0 0.00837386 5.24664e-12 -0.00401622 0 777 7286 -1.19798e-18 1.05196e-05 5.99025e-19 5.24825e-10 1.04417e-07 
0 0 0 -0.00398457 -6.19399e-12 -0.0123389 0 777 7893 1.72316e-19 1.05196e-05 1.198e-18 5.24825e-10 1.04417e-07 
0 0 0 -0.00447899 -3.77697e-12 0.000858078 0 777 5167 -5.99051e-19 1.05196e-05 1.5042e-19 5.24825e-10 1.04417e-07 
0 0 0 0.000868548 2.54736e-05 -0.000198003 0 775 210 -1.08131e-06 1.19433e-05 -1.04388e-06 5.83815e-10 1.16155e-07 
0 0 0 -0.00566567 -5.12471e-06 -0.000260201 0 775 2116 -8.93592e-10 1.08203e-05 -1.47274e-06 5.46824e-10 1.08795e-07 
0 0 0 -0.00601327 -0.000620292 -0.00472614 0 775 12 -2.40899e-06 4.86135e-06 -3.08494e-06 3.9679e-10 7.89427e-08 
0 0 0 -0.00584307 0.000896936 0.00482782 0 775 3998 1.41875e-11 1.03187e-05 -1.36715e-06 5.19467e-10 1.03351e-07 
0 0 0 -0.088636 -0.00733993 -0.0393075 0 775 9650 0.000536546 5.05229e-05 0.000216507 5.05023e-10 1.00477e-07 
0 0 0 0.0104273 -6.73322e-05 -0.00555634 0 775 5900 -3.95236e-09 1.66173e-05 -3.38733e-06 9.11777e-10 1.81413e-07 
0 0 0 -3.04317e-05 -2.88727e-06 6.82987e-06 0 839 5113 6.29264e-06 7.20897e-07 3.06262e-06 3.65428e-10 7.27028e-08 
0 0 0 9.69742e-05 -3.10981e-05 -4.13688e-05 0 832 1972 1.9514e-06 3.46497e-07 -1.59945e-07 1.98474e-10 3.94861e-08 
0 0 0 9.57573e-05 -5.35901e-06 -6.21308e-05 0 832 733 2.41391e-06 -1.60647e-06 2.21815e-06 2.23187e-10 4.44028e-08 
0 0 0 0.000723919 -1.34137e-05 -6.6738e-05 0 774 2641 -6.90087e-07 1.07935e-05 -1.16555e-06 5.34699e-10 1.06382e-07 
0 0 0 -3.04317e-05 -2.88727e-06 6.82987e-06 0 774 5113 -3.60246e-07 6.41153e-06 -3.18793e-06 3.94802e-10 7.85473e-08 
0 0 0 0.00235933 -8.14431e-06 -6.64967e-05 0 774 10425 -1.90278e-06 1.0105e-05 -5.80855e-06 5.41596e-10 1.07754e-07 
0 0 0 -0.00756392 -0.000157407 -0.000816738 0 774 3865 2.14006e-08 1.08988e-05 -1.49024e-06 5.39261e-10 1.0729e-07 
0 0 0 -0.00347898 0.000342014 0.00215807 0 774 4325 -1.42712e-08 1.08316e-05 -1.46306e-06 5.24946e-10 1.04441e-07 
0 0 0 -0.00676906 0.000149194 0.000369834 0 774 3869 3.90063e-08 1.19671e-05 -4.44961e-06 6.07848e-10 1.20937e-07 
0 0 0 0.00162392 0.000653235 0.00347239 0 774 2858 2.87875e-07 1.02666e-05 -1.57699e-06 5.21107e-10 1.03678e-07 
0 0 0 -0.00526521 4.27961e-05 0.000239502 0 774 9441 9.76583e-13 1.0242e-05 -1.35234e-06 5.17613e-10 1.02982e-07 
0 0 0 0.00189013 0.000186803 0.000905193 0 774 8682 -1.79998e-07 1.02984e-05 -1.29087e-06 5.23264e-10 1.04107e-07 
0 0 0 -0.0051628 -0.000559144 -0.00275678 0 774 6076 -1.51694e-08 1.05221e-05 -1.3951e-06 5.18164e-10 1.03092e-07 
0 0 0 0.00225191 0.000792941 0.00434089 0 774 3081 1.18349e-10 9.93885e-06 -1.29199e-06 5.03666e-10 1.00207e-07 
0 0 0 0.0154747 -0.0036529 -0.0195413 0 774 5875 5.27441e-19 1.02659e-05 -1.35713e-06 5.18851e-10 1.03229e-07 
0 0 0 -0.00866819 0.000362424 0.00194706 0 774 1541 7.45966e-12 1.02602e-05 -1.35594e-06 5.18328e-10 1.03125e-07 
0 0 0 -0.0383284 0.00289184 0.0154952 0 774 12874 4.17552e-06 1.039e-05 -5.79817e-06 5.48779e-10 1.09184e-07 
0 0 0 -0.0533481 -0.00644848 -0.0344963 0 774 4373 2.62149e-18 1.02659e-05 -1.35713e-06 5.18851e-10 1.03229e-07 
0 0 0 -5.46017e-05 3.23876e-05 -6.64971e-05 0 839 7315 5.57842e-06 2.77898e-06 -2.38729e-07 3.30713e-10 6.57961e-08 
0 0 0 2.33343e-05 -4.12676e-06 -2.95726e-06 0 839 5294 1.2094e-06 -1.1113e-07 -5.944e-07 1.31336e-10 2.61288e-08 
0 0 0 1.97902 17.7066 7.33685 0 948 14405 -0.0154794 0.0276375 -0.106506 2.96938e-07 6.14327e-05 
0 0 0 -5.46017e-05 3.23876e-05 -6.64971e-05 0 774 7315 -4.25938e-06 8.36738e-06 -1.60085e-06 4.65858e-10 9.26848e-08 
0 0 0 2.33343e-05 -4.12676e-06 -2.95726e-06 0 774 5294 -9.48682e-08 1.00264e-05 -1.51758e-06 5.11175e-10 1.01701e-07 
0 0 0 0.00230493 -4.23348e-05 -0.00013565 0 774 5016 -2.10745e-06 1.19186e-05 -3.02103e-06 5.78039e-10 1.15005e-07 
0 0 0 0.0433027 -0.00396287 -0.021139 0 774 4050 -1.97521e-06 1.11947e-05 2.84556e-06 5.2114e-10 1.03684e-07 
0 0 0 0.0178354 -0.00493605 -0.0293897 0 774 11158 3.45471e-09 1.32352e-05 -2.1313e-06 7.30563e-10 1.45354e-07 
0 0 0 -0.0132412 -0.00530143 -0.0282829 0 774 2150 -6.36529e-10 1.06766e-05 -1.43542e-06 5.29683e-10 1.05384e-07 
0 0 0 0.0449868 -0.00460451 -0.0246329 0 774 13018 2.1997e-12 1.02604e-05 -1.35608e-06 5.18702e-10 1.03199e-07 
0 0 0 -0.00383236 -0.0403562 -0.104171 0 772 13272 2.31382e-19 9.53905e-06 -2.53098e-06 5.00925e-10 9.96621e-08 
0 0 0 0.00715159 0.0399828 -0.0054731 0 884 2873 8.22091e-06 9.50589e-05 0.000204863 3.07737e-09 6.12458e-07 
0 0 0 -0.0145666 0.0181268 -0.00729922 0 884 3229 -2.89343e-05 -0.000139063 0.000420875 5.28289e-09 1.05169e-06 
0 0 0 -0.000221473 -8.28246e-05 0.000610733 0 884 5230 -4.16917e-05 7.30375e-06 -1.62 1.2252e-06 0.000299993 
0 0 0 -0.0179421 0.0481799 -0.0144409 0 884 5089 -4.97583e-05 9.83782e-05 0.000437744 4.62908e-09 9.21457e-07 
0 0 0 0.00594017 0.030768 -0.000823352 0 884 10179 -2.79834e-05 1.11015e-06 0.000661985 8.20604e-09 1.63421e-06 
0 0 0 -0.00948855 -0.00894482 0.00176249 0 884 9245 5.90947e-05 2.07624e-05 0.000464793 6.7569e-09 1.34537e-06 
0 0 0 1.271e-302 7.54288e-20 2.36058e-12 0 884 3064 3.50701e-307 5.25978e-06 -1.62002 1.22522e-06 0.0003 
0 0 0 0.00541773 0.0330905 0.00034648 0 884 10434 2.16166e-05 6.72852e-06 0.000238244 4.24373e-09 8.44708e-07 
0 0 0 -1.49938e-179 8.47506e-20 -4.72346e-12 0 884 871 1.99202e-181 5.25978e-06 -1.62002 1.22522e-06 0.0003 
0 0 0 -2.16673e-26 -7.52888e-20 -5.89791e-12 0 884 1962 1.88333e-27 5.25978e-06 -1.62002 1.22522e-06 0.0003 
0 0 0 0.0964041 2.15401 -0.00282291 0 884 2483 -0.000421411 -0.00499414 0.0100238 5.03101e-08 1.00723e-05 
0 0 0 -1.32552e-17 9.05319e-17 5.8956e-13 0 884 2565 -0.000490905 -0.00448102 -1.61999 1.22521e-06 0.000299996 
0 0 0 -7.01209e-72 -9.12343e-21 -1.1815e-12 0 884 2145 -6.85353e-74 5.25978e-06 -1.62002 1.22522e-06 0.0003 
0 0 0 -0.0346892 -0.00757007 0.00116245 0 884 3704 5.29499e-08 1.44884e-06 -2.89962e-06 2.44867e-10 4.87161e-08 
0 0 0 -0.0275222 0.0128448 -0.00136462 0 884 10308 9.79409e-05 -0.000114841 0.000100268 2.15614e-09 4.29065e-07 
0 0 0 -4.27714e-302 -1.02982e-19 -2.29354e-15 0 884 7394 8.77996e-307 5.25978e-06 -1.62002 1.22522e-06 0.0003 
0 0 0 -4.78745e-270 -8.47708e-20 3.53506e-12 0 884 3089 1.18137e-270 5.25978e-06 -1.62002 1.22522e-06 0.0003 
0 0 0 -2.22666e-152 2.81063e-20 4.72342e-12 0 884 1269 5.74268e-154 5.25978e-06 -1.62002 1.22522e-06 0.0003 
0 0 0 0.020601 0.00130434 -0.000175447 0 884 10043 1.86543e-05 -4.87448e-05 0.00188175 1.66125e-08 3.31181e-06 
0 0 0 -0.338081 0.028617 0.363241 0 884 9730 7.08298e-05 -0.000364821 -0.00395745 1.33581e-08 2.66194e-06 
0 0 0 -1.5455e-302 -8.49816e-20 -2.36052e-12 0 884 7839 3.21474e-307 5.25978e-06 -1.62002 1.22522e-06 0.0003 
0 0 0 -0.123512 -0.176057 0.0171236 0 884 7541 3.53469e-06 1.46624e-06 -7.65346e-06 3.34597e-09 6.65937e-07 
0 0 0 0.0108922 0.170487 0.0194794 0 884 13364 -1.26764e-06 -3.00788e-06 -6.52817e-06 3.74554e-09 7.45498e-07 
0 0 0 -0.0213119 -0.00487509 0.00193044 0 884 6883 -2.57343e-07 1.58919e-06 -5.07078e-06 1.44701e-11 2.87873e-09 
0 0 0 2.37186e-230 -8.47165e-20 -5.89791e-12 0 884 5274 -5.51634e-231 5.25978e-06 -1.62002 1.22522e-06 0.0003 
0 0 0 -0.0390134 0.258451 0.0108482 0 884 811 0.000127913 -0.000723121 0.00146869 1.51275e-08 3.01519e-06 
0 0 0 -0.113032 0.281398 -0.0353096 0 884 978 0.000164746 -0.000454919 0.000967662 7.12226e-09 1.41819e-06 
0 0 0 5.3712e-05 -0.00080696 0.000148664 0 884 2130 0.064586 0.003827 -1.62439 1.22691e-06 0.000300538 
0 0 0 0.016288 0.171287 0.000762793 0 884 8434 -0.000204408 -0.00201963 0.000162365 3.35689e-09 6.68111e-07 
0 0 0 -0.0604647 0.0108042 0.0163065 0 884 6913 0.00113216 0.000659092 0.000464102 8.41592e-09 1.67605e-06 
0 0 0 -3.47015e-05 0.000744986 4.89956e-05 0 884 4708 -0.0545921 -0.00325825 -1.61565 1.22352e-06 0.000299459 
0 0 0 0.062314 0.0476784 -0.00010022 0 884 10062 -0.000988294 -0.00108936 0.00043236 6.23436e-09 1.24125e-06 
0 0 0 -9.08944e-14 8.485e-20 1.17416e-302 0 863 2723 -1.62002 5.25978e-06 1.49789e-307 1.22522e-06 0.0003 
0 0 0 -7.22931e-14 -1.02484e-19 -3.10206e-302 0 862 444 -1.62002 5.25978e-06 1.29031e-307 1.22522e-06 0.0003 
0 0 0 3.4934e-14 5.70698e-20 4.49293e-303 0 862 927 -1.62002 5.25978e-06 -5.67193e-307 1.22522e-06 0.0003 
0 0 0 0.0661368 -0.0371791 0.301265 0 854 12548 0.00190053 -0.000139225 -0.000198404 2.27011e-08 4.52905e-06 
0 0 0 0.0368099 0.0768591 -0.0431741 0 854 2913 0.00267859 0.000829244 -0.000740607 2.41739e-08 4.82379e-06 
0 0 0 -0.000549806 0.0710253 -0.0990175 0 854 6878 0.00430611 -0.000826676 0.000156809 2.87883e-08 5.74789e-06 
0 0 0 0.0309736 0.0303332 0.0426857 0 854 5085 0.00287713 -0.00127561 0.000665053 2.46685e-08 4.92278e-06 
0 0 0 1.99439e-05 0.0260114 -0.0149276 0 854 3155 0.000770947 -0.000448816 0.000210807 9.18326e-09 1.82904e-06 
0 0 0 -0.00670187 0.0286631 -0.0214091 0 854 1433 0.00115423 0.00013468 -0.000561182 1.13503e-08 2.26127e-06 
0 0 0 -0.0128455 0.019089 -0.00470749 0 854 11938 0.000518112 -0.00022283 0.000132124 5.60004e-09 1.11487e-06 
0 0 0 1.26493e-05 0.0447332 -0.0450849 0 854 1389 0.00064572 0.000307064 0.000490612 8.16029e-09 1.62509e-06 
0 0 0 0.00225073 -0.00098661 -0.00855878 0 854 12260 1.21405e-05 5.92674e-06 1.31225e-06 1.04449e-09 2.07821e-07 
0 0 0 0.0053553 0.0453604 0.00820849 0 854 10704 0.000235115 -9.22962e-05 4.1588e-06 4.85141e-09 9.65741e-07 
0 0 0 -0.00337416 0.011657 -0.00375183 0 854 2163 0.000139986 -6.14327e-05 3.35416e-05 2.47291e-09 4.92122e-07 
0 0 0 0.00674352 0.00552287 -0.00596045 0 854 1338 0.0001311 -6.991e-06 4.0485e-05 3.77393e-09 7.51152e-07 
0 0 0 0.000962733 0.0130257 -0.0114637 0 854 4773 0.0010497 -0.000230699 0.000144012 1.13722e-08 2.26563e-06 
0 0 0 0.00950077 0.00210704 0.0102271 0 854 3386 0.000758749 -0.000240102 -0.000135422 1.00891e-08 2.0097e-06 
0 0 0 -0.0524454 0.0146722 0.00649406 0 854 4752 0.00346204 -0.000657792 0.00100069 2.06531e-08 4.11941e-06 
0 0 0 -0.0218819 0.0550346 -0.00257115 0 854 7270 0.000705429 -7.86485e-05 0.000177768 6.32042e-09 1.2584e-06 
0 0 0 -0.0039028 0.020287 -0.0198757 0 854 7203 9.76179e-05 -2.63774e-06 4.87376e-05 1.73711e-09 3.45661e-07 
0 0 0 -0.000341024 0.0133596 -0.0206881 0 854 5203 0.000329281 5.85307e-05 8.42743e-05 5.1681e-09 1.02882e-06 
0 0 0 0.000367619 0.0223433 0.00636441 0 854 3206 4.05193e-05 -3.84262e-06 1.98919e-05 1.35301e-09 2.69218e-07 
0 0 0 0.00573394 0.0184463 0.00426492 0 854 6086 0.000673991 -0.000334533 -4.06643e-05 9.01405e-09 1.7953e-06 
0 0 0 -0.00196497 0.00808723 0.0150984 0 854 9118 6.77707e-05 -0.000161423 -0.000171257 1.5057e-09 2.99605e-07 
0 0 0 -0.00383861 0.0510542 0.0287573 0 854 9649 0.000249873 -7.53228e-05 -9.96775e-05 3.84547e-09 7.65397e-07 
0 0 0 -0.00910433 0.0163937 -0.00446531 0 854 2226 0.000265163 -0.000132102 -1.12678e-05 3.36501e-09 6.69727e-07 
0 0 0 -0.0467022 -0.0540363 0.153778 0 854 6149 0.000699839 4.19586e-05 -0.000347395 3.76637e-09 7.49647e-07 
0 0 0 0.00233168 -0.0423374 0.113385 0 854 5517 0.000100381 9.08503e-06 -3.28119e-05 2.70656e-09 5.38634e-07 
0 0 0 0.00274724 -0.00527993 0.0142548 0 854 6984 8.80849e-05 -3.50095e-05 -2.67221e-05 2.58007e-09 5.13454e-07 
0 0 0 -0.00416383 0.0161908 0.00952516 0 854 8859 0.000140023 -5.34035e-05 8.96681e-05 2.36321e-09 4.70284e-07 
0 0 0 -0.000644499 0.0048521 0.0104112 0 854 1369 0.000564572 -0.000167665 -0.000227099 7.38913e-09 1.47137e-06 
0 0 0 0.00817787 -0.0103869 0.0676433 0 854 6114 0.00223927 -5.53036e-05 -0.000517076 1.93892e-08 3.8667e-06 
0 0 0 -0.00132143 -0.00550208 -0.000716367 0 854 9205 0.000449661 -9.18607e-05 -5.61245e-05 6.2587e-09 1.2461e-06 
0 0 0 0.0119399 0.0720815 0.0342221 0 854 6811 3.20796e-05 -1.3354e-05 -8.8852e-06 3.13354e-09 6.23642e-07 
0 0 0 0.00697183 -0.00129274 0.0527516 0 854 8658 0.000183518 1.40932e-05 2.01571e-05 4.46235e-09 8.8825e-07 
0 0 0 -0.000219035 -0.00513892 0.0530729 0 854 2270 0.000317475 2.77831e-05 3.9024e-05 5.0576e-09 1.00681e-06 
0 0 0 -0.000221473 -8.28246e-05 0.000610733 0 850 5230 -4.14273e-05 1.56805e-05 1.62004 1.22524e-06 0.000300007 
0 0 0 1.271e-302 7.54288e-20 2.36058e-12 0 850 3064 -4.43002e-307 5.25978e-06 1.62002 1.22522e-06 0.0003 
0 0 0 -2.4362e-302 -8.49683e-20 -2.3606e-12 0 850 478 1.23132e-307 5.25978e-06 1.62002 1.22522e-06 0.0003 
0 0 0 -1.49938e-179 8.47506e-20 -4.72346e-12 0 850 871 1.99202e-181 5.25978e-06 1.62002 1.22522e-06 0.0003 
0 0 0 -2.16673e-26 -7.52888e-20 -5.89791e-12 0 850 1962 1.88333e-27 5.25978e-06 1.62002 1.22522e-06 0.0003 
0 0 0 -1.10575e-185 2.83638e-20 -2.36054e-12 0 850 283 -1.21714e-187 5.25978e-06 1.62002 1.22522e-06 0.0003 
0 0 0 1.32427e-17 -9.11471e-17 5.89587e-13 0 850 6540 0.000490905 0.00449154 1.61999 1.22521e-06 0.000299996 
0 0 0 -1.32552e-17 9.05319e-17 5.8956e-13 0 850 2565 -0.000499245 -0.00455723 1.62005 1.22523e-06 0.000300004 
0 0 0 -7.01209e-72 -9.12343e-21 -1.1815e-12 0 850 2145 -6.85353e-74 5.25978e-06 1.62002 1.22522e-06 0.0003 
0 0 0 -7.50944e-159 -6.59449e-20 4.72345e-12 0 850 5520 -2.42722e-160 5.25978e-06 1.62002 1.22522e-06 0.0003 
0 0 0 -4.27714e-302 -1.02982e-19 -2.29354e-15 0 850 7394 -9.71652e-307 5.25978e-06 1.62002 1.22522e-06 0.0003 
0 0 0 -4.05554e-149 -4.76525e-20 -2.16132e-15 0 850 2321 1.27486e-150 5.25978e-06 1.62002 1.22522e-06 0.0003 
0 0 0 1.67833e-59 -6.60247e-20 1.18147e-12 0 850 7581 1.11829e-60 5.25978e-06 1.62002 1.22522e-06 0.0003 
0 0 0 3.84341e-12 -5.90579e-11 -1.7642e-12 0 850 10198 0.00787289 0.000516425 1.61899 1.22482e-06 0.000299873 
0 0 0 -4.78745e-270 -8.47708e-20 3.53506e-12 0 850 3089 1.18137e-270 5.25978e-06 1.62002 1.22522e-06 0.0003 
0 0 0 -2.22666e-152 2.81063e-20 4.72342e-12 0 850 1269 5.74268e-154 5.25978e-06 1.62002 1.22522e-06 0.0003 
0 0 0 -3.84342e-12 5.90579e-11 -1.77351e-12 0 850 5323 -0.010359 -0.000667323 1.62105 1.22562e-06 0.000300127 
0 0 0 6.01379e-303 -7.54911e-20 1.18145e-12 0 850 392 -9.36725e-308 5.25978e-06 1.62002 1.22522e-06 0.0003 
0 0 0 -1.17887e-302 8.99341e-21 -2.29161e-15 0 850 13677 -5.86426e-308 5.25978e-06 1.62002 1.22522e-06 0.0003 
0 0 0 -1.5455e-302 -8.49816e-20 -2.36052e-12 0 850 7839 -4.157e-307 5.25978e-06 1.62002 1.22522e-06 0.0003 
0 0 0 2.42052e-16 7.23146e-17 4.73199e-13 0 850 9691 0.0232179 0.00358796 1.62087 1.22555e-06 0.000300105 
0 0 0 3.63673e-302 2.88773e-20 2.31571e-15 0 850 1583 2.06582e-307 5.25978e-06 1.62002 1.22522e-06 0.0003 
0 0 0 -1.30872e-15 3.87927e-15 4.7309e-13 0 850 10506 0.1105 0.289293 1.65706 1.23947e-06 0.000304556 
0 0 0 2.14397e-15 1.78773e-15 4.74982e-13 0 850 14345 -0.101421 -0.22537 1.58242 1.21051e-06 0.000295339 
0 0 0 -2.09288e-302 -2.90131e-20 2.19025e-15 0 850 8195 -4.71728e-307 5.25978e-06 1.62002 1.22522e-06 0.0003 
0 0 0 2.37186e-230 -8.47165e-20 -5.89791e-12 0 850 5274 -5.51634e-231 5.25978e-06 1.62002 1.22522e-06 0.0003 
0 0 0 6.57999e-101 -5.65901e-20 2.36054e-12 0 850 10333 -1.56458e-102 5.25978e-06 1.62002 1.22522e-06 0.0003 
0 0 0 5.3712e-05 -0.00080696 0.000148664 0 850 2130 0.0545949 0.00327995 1.61565 1.22353e-06 0.000299462 
0 0 0 -3.47015e-05 0.000744986 4.89956e-05 0 850 4708 -0.064583 -0.00380531 1.6244 1.22692e-06 0.000300541 
0 0 0 -7.22931e-14 -1.02484e-19 -3.10206e-302 0 822 444 1.62002 5.25978e-06 -3.44257e-308 1.22522e-06 0.0003 
0 0 0 3.4934e-14 5.70698e-20 4.49293e-303 0 821 927 1.62002 5.25978e-06 4.74803e-307 1.22522e-06 0.0003 
0 0 0 -9.08944e-14 8.485e-20 1.17416e-302 0 821 2723 1.62002 5.25978e-06 -5.46904e-308 1.22522e-06 0.0003 
0 0 0 -2.4362e-302 -8.49683e-20 -2.3606e-12 0 885 478 -3.12838e-308 5.25978e-06 -1.62002 1.22522e-06 0.0003 
0 0 0 -1.10575e-185 2.83638e-20 -2.36054e-12 0 885 283 -1.21714e-187 5.25978e-06 -1.62002 1.22522e-06 0.0003 
0 0 0 1.32427e-17 -9.11471e-17 5.89587e-13 0 885 6540 0.000499245 0.00456775 -1.62005 1.22523e-06 0.000300004 
0 0 0 -7.50944e-159 -6.59449e-20 4.72345e-12 0 885 5520 -2.42722e-160 5.25978e-06 -1.62002 1.22522e-06 0.0003 
0 0 0 -4.05554e-149 -4.76525e-20 -2.16132e-15 0 885 2321 1.27486e-150 5.25978e-06 -1.62002 1.22522e-06 0.0003 
0 0 0 1.67833e-59 -6.60247e-20 1.18147e-12 0 885 7581 1.11829e-60 5.25978e-06 -1.62002 1.22522e-06 0.0003 
0 0 0 3.84341e-12 -5.90579e-11 -1.7642e-12 0 885 10198 0.010359 0.000677843 -1.62105 1.22562e-06 0.000300127 
0 0 0 -3.84342e-12 5.90579e-11 -1.77351e-12 0 885 5323 -0.00787289 -0.000505906 -1.61899 1.22482e-06 0.000299873 
0 0 0 6.01379e-303 -7.54911e-20 1.18145e-12 0 885 392 0 5.25978e-06 -1.62002 1.22522e-06 0.0003 
0 0 0 -1.17887e-302 8.99341e-21 -2.29161e-15 0 885 13677 -3.31356e-308 5.25978e-06 -1.62002 1.22522e-06 0.0003 
0 0 0 2.42052e-16 7.23146e-17 4.73199e-13 0 885 9691 0.0210712 0.00325671 -1.61917 1.22489e-06 0.000299895 
0 0 0 3.63673e-302 2.88773e-20 2.31571e-15 0 885 1583 -1.12032e-307 5.25978e-06 -1.62002 1.22522e-06 0.0003 
0 0 0 -1.30872e-15 3.87927e-15 4.7309e-13 0 885 10506 0.0782921 0.221831 -1.58326 1.21084e-06 0.000295444 
0 0 0 2.14397e-15 1.78773e-15 4.74982e-13 0 885 14345 -0.13166 -0.292567 -1.65792 1.23979e-06 0.000304661 
0 0 0 -2.09288e-302 -2.90131e-20 2.19025e-15 0 885 8195 3.78278e-307 5.25978e-06 -1.62002 1.22522e-06 0.0003 
0 0 0 6.57999e-101 -5.65901e-20 2.36054e-12 0 885 10333 -1.56458e-102 5.25978e-06 -1.62002 1.22522e-06 0.0003 
0 0 0 -0.00948855 -0.00894482 0.00176249 0 853 9245 -1.29241e-05 -2.20437e-05 -0.000156124 2.47602e-09 4.9274e-07 
0 0 0 0.00126757 0.000994899 0.00254097 0 853 2014 -6.97399e-05 -0.000286711 -0.000125248 4.62663e-09 9.20969e-07 
0 0 0 -0.000863268 -0.00115012 0.0282643 0 853 5705 -0.000140062 -0.000357106 -5.11753e-05 5.63709e-09 1.12225e-06 
0 0 0 0.0151278 0.0215223 -0.00212616 0 853 8919 -0.000268441 -0.000433273 -4.25892e-06 3.78363e-09 7.53083e-07 
0 0 0 0.00728419 0.00292227 0.0251308 0 853 4192 -1.95485e-05 -0.000253196 -2.75307e-06 4.00127e-09 7.96424e-07 
0 0 0 -0.00690684 -0.0017295 0.00119407 0 853 1753 1.4975e-05 -6.25936e-05 2.74816e-05 2.00073e-09 3.98131e-07 
0 0 0 -0.0190598 0.00642175 0.0164694 0 853 4057 -8.4767e-05 -0.000548396 -0.000260767 6.60022e-09 1.31415e-06 
0 0 0 -0.0256105 0.0061694 0.0195259 0 853 7822 4.34282e-05 -0.000103958 -2.85621e-05 1.51537e-09 3.0153e-07 
0 0 0 0.0321275 0.0443387 0.0413783 0 853 10310 0.00018827 -0.00110884 -0.000521475 7.33878e-09 1.46134e-06 
0 0 0 -0.0247272 0.00452693 -0.0095349 0 853 9838 -2.64834e-05 -0.00058165 -0.000289617 7.10941e-09 1.41562e-06 
0 0 0 -0.0322806 -0.0006787 -0.0382774 0 853 11280 6.4669e-05 -0.000152011 3.99346e-05 3.20668e-09 6.38203e-07 
0 0 0 -0.0156132 0.00295115 -0.00686219 0 852 509 1.91634e-05 -4.09655e-05 7.23223e-06 7.96061e-10 1.58387e-07 
0 0 0 -0.000644499 0.0048521 0.0104112 0 852 1369 -4.99856e-05 -0.000385906 -4.07312e-05 5.21548e-09 1.03826e-06 
0 0 0 -0.0153831 -0.0208784 -0.000754813 0 852 11358 -0.000622891 -0.00162632 0.000522718 1.70317e-08 3.39556e-06 
0 0 0 -0.00842764 -0.00125116 -0.0199027 0 852 10081 -4.34597e-05 -0.000408639 7.62795e-05 6.16253e-09 1.22694e-06 
0 0 0 -0.0134167 0.000441527 0.100334 0 852 10457 0.000259725 -0.000103856 -0.000468238 2.34952e-09 4.67559e-07 
0 0 0 -0.00626816 -0.00299948 0.00177298 0 852 2343 1.18318e-06 -0.000968465 -0.000144549 1.09917e-08 2.18972e-06 