ITEM: TIMESTEP
4950000
ITEM: NUMBER OF ENTRIES
1632
ITEM: BOX BOUNDS ff ff ff
-0.01 0.45
-0.15 0.15
-0.08 0.1
ITEM: ENTRIES c_pwc[1] c_pwc[2] c_pwc[3] c_pwc[4] c_pwc[5] c_pwc[6] c_pwc[7] c_pwc[8] c_pwc[9] c_pwc[10] c_pwc[11] c_pwc[12] c_pwc[13] c_pwc[14] 
0 0 0 -0.000110211 -0.206958 0.103052 0 788 9160 1.21081e-08 0.000252215 -0.00012036 3.05617e-10 6.08029e-08 
0 0 0 -0.114915 0.000841938 -0.00450397 0 778 7649 -5.14474e-06 1.00702e-05 2.40403e-06 5.18851e-10 1.03229e-07 
0 0 0 0.0271225 -0.00568447 0.0304092 0 778 5167 1.13498e-18 1.02659e-05 1.35713e-06 5.18851e-10 1.03229e-07 
0 0 0 -0.0639736 0.00991863 -0.0530599 0 778 9156 1.23318e-18 1.02659e-05 1.35713e-06 5.18851e-10 1.03229e-07 
0 0 0 0.000235495 -9.85623e-05 -0.000438943 0 776 5540 1.60492e-07 1.21794e-05 1.22607e-08 5.57854e-10 1.10989e-07 
0 0 0 0.000664796 0.00011491 -0.000234118 0 776 4164 -1.17575e-07 6.88978e-06 -2.18424e-07 4.22498e-10 8.40577e-08 
0 0 0 -0.000238301 -2.47865e-05 0.000319284 0 776 1200 -5.46072e-07 1.26614e-05 -1.96485e-06 5.88634e-10 1.17114e-07 
0 0 0 0.000334904 -5.54945e-12 -0.000174755 0 776 1871 3.7767e-20 1.05196e-05 -1.88847e-20 5.24825e-10 1.04417e-07 
0 0 0 -0.000730152 5.73673e-13 0.00144758 0 776 206 -7.55351e-20 1.05196e-05 -1.02377e-19 5.24825e-10 1.04417e-07 
0 0 0 -4.67242e-05 1.06481e-07 0.00264719 0 776 1972 -7.74931e-15 1.05175e-05 8.22447e-14 5.2478e-10 1.04408e-07 
0 0 0 0.000537578 -1.22754e-06 -0.00466395 0 776 733 1.17381e-10 1.03933e-05 9.76282e-09 5.20349e-10 1.03527e-07 
0 0 0 -0.000473432 -5.54848e-10 9.98205e-05 0 776 414 7.33691e-17 1.05196e-05 -1.547e-17 5.24825e-10 1.04417e-07 
0 0 0 0.000246356 -2.31494e-13 0.000565601 0 776 690 3.74352e-20 1.05196e-05 7.55401e-20 5.24825e-10 1.04417e-07 
0 0 0 -0.00168991 -1.1799e-07 -0.00216981 0 776 280 6.46359e-14 1.05217e-05 6.92495e-14 5.24869e-10 1.04426e-07 
0 0 0 -0.000276368 -0.000260494 -0.00124304 0 776 1894 -1.75561e-06 1.46215e-05 8.85981e-06 6.0029e-10 1.19433e-07 
0 0 0 -0.000982163 0.000742889 -0.00273991 0 776 210 3.54552e-06 4.55114e-06 -2.5656e-07 4.82954e-10 9.60864e-08 
0 0 0 0.00407914 -6.83854e-12 -0.00295769 0 776 72 5.99035e-19 1.05196e-05 3.02138e-19 5.24825e-10 1.04417e-07 
0 0 0 0.0055397 -4.42151e-12 -0.00375654 0 776 7431 6.0429e-19 1.05196e-05 1.84564e-19 5.24825e-10 1.04417e-07 
0 0 0 0.000646711 -1.7523e-07 -0.00172426 0 776 553 -3.26549e-14 1.05182e-05 8.45147e-14 5.24742e-10 1.04401e-07 
0 0 0 -0.000817714 8.94448e-07 -0.00154779 0 776 101 -1.96803e-13 1.05179e-05 -3.55396e-13 5.24963e-10 1.04445e-07 
0 0 0 0.00015027 -1.61562e-06 -0.00141936 0 776 317 -7.15055e-14 1.05368e-05 3.91361e-13 5.25048e-10 1.04462e-07 
0 0 0 -0.000344916 3.63809e-05 -0.00138142 0 776 1705 -5.96161e-10 1.08078e-05 4.37086e-07 5.42207e-10 1.07876e-07 
0 0 0 0.000191818 -9.63987e-13 -0.000951347 0 776 1002 -1.88895e-20 1.05196e-05 1.5091e-19 5.24825e-10 1.04417e-07 
0 0 0 0.000362593 -2.1014e-07 -0.0010082 0 776 585 4.72263e-12 1.05105e-05 1.28036e-10 5.24479e-10 1.04349e-07 
0 0 0 -0.000744256 9.95104e-07 -0.00101876 0 776 2069 -9.26975e-10 1.05773e-05 6.34908e-08 5.26958e-10 1.04842e-07 
0 0 0 -0.00128402 -2.76314e-06 -0.00101692 0 776 531 1.67819e-08 1.09379e-05 5.09564e-07 5.38054e-10 1.0705e-07 
0 0 0 0.0559238 -1.35995e-12 -0.0244005 0 776 6408 -9.19855e-18 1.05196e-05 -2.39614e-18 5.24825e-10 1.04417e-07 
0 0 0 0.00931536 2.51403e-13 0.00400075 0 776 6702 -4.18428e-19 1.05196e-05 6.04272e-19 5.24825e-10 1.04417e-07 
0 0 0 0.0137286 -1.68222e-12 0.00423911 0 776 4185 -1.60157e-18 1.05196e-05 2.11135e-19 5.24825e-10 1.04417e-07 
0 0 0 0.000698261 4.92432e-12 -0.00182362 0 776 4165 -1.31928e-20 1.05196e-05 -1.77752e-19 5.24825e-10 1.04417e-07 
0 0 0 0.00110983 1.94133e-05 -0.00255269 0 776 1470 1.35876e-08 1.07539e-05 2.89662e-07 5.36775e-10 1.06795e-07 
0 0 0 0.000201409 -3.72005e-05 -0.00245172 0 776 154 -7.44797e-08 1.1005e-05 1.28558e-06 5.32856e-10 1.06015e-07 
0 0 0 -0.00374912 6.6968e-12 0.0106163 0 776 3427 3.18626e-20 1.05196e-05 -1.19806e-18 5.24825e-10 1.04417e-07 
0 0 0 0.0164703 1.21821e-12 0.0154318 0 776 4095 2.92297e-21 1.05196e-05 1.22693e-18 5.24825e-10 1.04417e-07 
0 0 0 -0.000256097 1.05009e-06 0.000417444 0 776 1920 4.8795e-09 1.04483e-05 3.38402e-09 5.22681e-10 1.03991e-07 
0 0 0 0.000314378 -3.65354e-06 -0.00226738 0 776 18 -3.8502e-09 1.05196e-05 2.04675e-09 5.24036e-10 1.04261e-07 
0 0 0 0.000197774 2.19458e-05 -0.00210594 0 776 1367 1.03521e-06 1.20776e-05 1.11257e-06 5.80083e-10 1.15412e-07 
0 0 0 -0.0192782 2.66843e-12 0.0136649 0 776 8128 -2.41714e-18 1.05196e-05 1.1503e-18 5.24825e-10 1.04417e-07 
0 0 0 0.00745461 3.95751e-12 -0.00891492 0 776 3491 3.10265e-19 1.05196e-05 1.19796e-18 5.24825e-10 1.04417e-07 
0 0 0 0.0026668 -2.03443e-06 -0.00110371 0 776 7185 2.00178e-11 1.04909e-05 -1.29432e-10 5.23432e-10 1.0414e-07 
0 0 0 0.0010975 -3.78632e-06 -0.00114405 0 776 1118 3.33073e-09 1.07147e-05 3.36796e-09 5.30479e-10 1.05542e-07 
0 0 0 -0.000896193 -9.27196e-05 -0.000851809 0 776 1890 2.03954e-09 1.02822e-05 4.56411e-09 4.96759e-10 9.88331e-08 
0 0 0 0.0315455 5.24659e-12 -0.00545262 0 776 3630 -4.83424e-18 1.05196e-05 -2.17624e-19 5.24825e-10 1.04417e-07 
0 0 0 0.00136661 -6.66705e-11 -0.000764025 0 776 209 -2.57698e-17 1.05196e-05 1.4417e-17 5.24825e-10 1.04417e-07 
0 0 0 0.00140347 5.89113e-12 -0.00133654 0 776 5892 6.79886e-20 1.05196e-05 -6.85838e-20 5.24825e-10 1.04417e-07 
0 0 0 -0.000378886 -3.76067e-05 -0.000952341 0 776 6574 -3.66489e-08 1.1316e-05 1.07917e-06 5.42948e-10 1.08023e-07 
0 0 0 -0.00686036 2.90232e-10 -0.0140409 0 776 1887 -5.57943e-16 1.05196e-05 -1.14156e-15 5.24825e-10 1.04417e-07 
0 0 0 -4.43766e-05 1.51872e-05 -0.000157836 0 776 5191 2.29475e-06 9.36371e-06 -1.62541e-06 4.88994e-10 9.72881e-08 
0 0 0 -0.00478922 1.25308e-07 -0.0129872 0 776 7313 -1.66336e-13 1.05198e-05 -4.52632e-13 5.24859e-10 1.04424e-07 
0 0 0 0.00455761 -1.54792e-11 -0.0126432 0 776 634 -2.12956e-17 1.05196e-05 5.90757e-17 5.24825e-10 1.04417e-07 
0 0 0 -0.00136542 -1.66713e-06 -0.000903852 0 776 5313 -2.94575e-06 1.16717e-05 2.42533e-06 5.62121e-10 1.11838e-07 
0 0 0 0.000552106 -1.08635e-05 -0.000601039 0 776 570 -8.25081e-09 1.10595e-05 5.56414e-07 5.40299e-10 1.07496e-07 
0 0 0 -0.00255248 4.07472e-10 0.0086647 0 776 7844 -3.20091e-16 1.05195e-05 1.08653e-15 5.24823e-10 1.04417e-07 
0 0 0 -0.000387888 -4.77718e-11 -0.00123151 0 776 2966 5.53705e-18 1.05196e-05 1.75675e-17 5.24825e-10 1.04417e-07 
0 0 0 0.00871403 -5.66981e-08 0.00866936 0 776 4780 -1.43203e-13 1.05204e-05 -1.38122e-13 5.24839e-10 1.0442e-07 
0 0 0 0.0044853 -1.68251e-08 0.016521 0 776 7843 -2.14623e-14 1.05199e-05 -7.90532e-14 5.24834e-10 1.04419e-07 
0 0 0 0.000985796 -1.31067e-05 0.00795258 0 776 4298 1.86286e-07 1.05044e-05 -1.31651e-07 5.21483e-10 1.03753e-07 
0 0 0 0.000224072 1.44861e-05 -0.00293852 0 776 604 1.48989e-11 1.02603e-05 -2.17795e-11 5.19316e-10 1.03321e-07 
0 0 0 0.00219012 -2.50372e-06 -0.00231512 0 776 1039 -1.51375e-12 1.04709e-05 1.64042e-12 5.22664e-10 1.03988e-07 
0 0 0 -0.0576878 0.000534491 -0.00648244 0 776 3509 -8.65595e-09 8.77054e-06 -9.32556e-10 5.83828e-10 1.16157e-07 
0 0 0 -0.022958 -6.51627e-12 -0.0019137 0 776 316 1.4319e-18 1.05196e-05 1.88466e-19 5.24825e-10 1.04417e-07 
0 0 0 0.00614165 -3.77697e-12 -2.80628e-05 0 776 510 2.63154e-19 1.05196e-05 -1.71727e-21 5.24825e-10 1.04417e-07 
0 0 0 0.00711738 5.77961e-11 0.00553741 0 776 7053 1.14937e-16 1.05196e-05 8.94361e-17 5.24825e-10 1.04417e-07 
0 0 0 0.00113962 -8.68965e-06 -0.00727674 0 776 1937 -8.99527e-11 1.07608e-05 1.80874e-11 5.30943e-10 1.05635e-07 
0 0 0 -0.00905322 -2.86384e-10 0.0135828 0 776 398 7.35027e-16 1.05196e-05 -1.10258e-15 5.24825e-10 1.04417e-07 
0 0 0 -0.024323 -2.32676e-12 0.0169393 0 776 6920 -2.39588e-18 1.05196e-05 2.39611e-18 5.24825e-10 1.04417e-07 
0 0 0 -0.0171858 5.06966e-12 0.0219967 0 777 3512 -5.25103e-06 1.05196e-05 3.03233e-07 5.24825e-10 1.04417e-07 
0 0 0 0.0524454 -1.52108e-12 -0.0636815 0 777 7390 2.48966e-19 1.05196e-05 -9.58379e-18 5.24825e-10 1.04417e-07 
0 0 0 0.042018 4.92432e-12 -0.012488 0 777 7121 -3.85698e-18 1.05196e-05 1.19809e-18 5.24825e-10 1.04417e-07 
0 0 0 -0.00208789 -0.00110814 -0.00317987 0 775 2641 -1.22265e-08 9.34023e-06 -1.08242e-06 3.75196e-10 7.46463e-08 
0 0 0 -0.00169533 -0.000262325 -0.00124081 0 775 2352 1.7381e-09 1.01096e-05 -1.29167e-06 5.06798e-10 1.00831e-07 
0 0 0 -0.000607241 -0.000457093 -0.00253262 0 775 3087 -1.15044e-08 9.57489e-06 -1.1221e-06 4.97924e-10 9.9065e-08 
0 0 0 -0.000609042 -0.00037542 -0.00185732 0 775 3081 -1.7428e-07 1.16077e-05 -4.88866e-07 5.51026e-10 1.09631e-07 
0 0 0 -0.00142375 7.62574e-06 -0.000511794 0 775 4938 3.10255e-07 9.9777e-06 -1.03769e-06 5.29509e-10 1.05349e-07 
0 0 0 0.000211355 -0.000192001 -0.00109797 0 775 1352 -3.72491e-08 1.016e-05 -1.27587e-06 5.17693e-10 1.02998e-07 
0 0 0 0.000378744 -0.00012392 -0.000698927 0 775 2951 -1.08719e-07 9.83033e-06 -1.38336e-06 5.06039e-10 1.0068e-07 
0 0 0 0.000517189 -0.000588728 -0.00315972 0 775 6135 3.86551e-09 1.01398e-05 -1.33271e-06 5.14957e-10 1.02454e-07 
0 0 0 5.51788e-05 -0.0023599 -0.0126243 0 774 5113 1.37823e-20 1.02659e-05 -1.35713e-06 5.18851e-10 1.03229e-07 
0 0 0 2.15248e-05 0.00014513 0.000776374 0 774 4325 1.95535e-21 1.02659e-05 -1.35713e-06 5.18851e-10 1.03229e-07 
0 0 0 -0.00226345 -0.000637229 -0.00351129 0 774 3865 4.32749e-09 1.01032e-05 -1.42563e-06 5.18006e-10 1.03061e-07 
0 0 0 -0.00423164 -0.00065249 -0.00339291 0 774 1165 -8.52612e-09 1.05864e-05 -1.26847e-06 5.24922e-10 1.04437e-07 
0 0 0 0.00209113 -0.000299406 -0.00160719 0 774 3869 -8.13881e-12 1.02388e-05 -1.35184e-06 5.18146e-10 1.03089e-07 
0 0 0 0.000264794 -0.00014486 -0.000888807 0 774 6076 -6.09491e-11 1.01663e-05 -1.33895e-06 5.20009e-10 1.03459e-07 
0 0 0 -0.00113354 -0.000183615 -0.000980135 0 774 2116 4.28312e-07 1.02285e-05 -1.06858e-06 5.15758e-10 1.02613e-07 
0 0 0 -2.77901e-05 -0.000170486 -0.00092495 0 774 1045 -2.9344e-10 1.03992e-05 -1.3861e-06 5.23917e-10 1.04237e-07 
0 0 0 -0.000684293 -0.00034551 -0.00173665 0 774 4248 -5.50396e-08 8.9989e-06 -1.08911e-06 4.70034e-10 9.35158e-08 
0 0 0 -0.000285319 -0.000423982 -0.00223317 0 774 5900 8.46832e-08 9.24535e-06 -1.1614e-06 4.82065e-10 9.59096e-08 
0 0 0 -0.0265744 -0.0219305 -0.117317 0 774 9120 -2.02225e-18 1.02659e-05 -1.35713e-06 5.18851e-10 1.03229e-07 
0 0 0 -0.000558037 -0.000177977 -0.000888153 0 774 2858 3.8836e-11 1.03676e-05 -1.37634e-06 5.19762e-10 1.0341e-07 
0 0 0 -0.000665212 -0.068743 -0.177446 0 772 8267 6.46185e-18 9.53905e-06 -2.53098e-06 5.00925e-10 9.96621e-08 
0 0 0 9.68954e-100 -4.70318e-20 -2.3606e-12 0 884 5230 5.18648e-101 5.25978e-06 -1.62002 1.22522e-06 0.0003 
0 0 0 -0.0938108 0.0173741 0.046221 0 884 2209 -0.000204881 -0.00010983 0.00265005 2.4833e-08 4.95572e-06 
0 0 0 0.0133025 -0.0329613 -0.000158982 0 884 1390 1.91343e-06 1.22754e-05 1.57797e-06 1.01317e-10 2.01566e-08 
0 0 0 -2.03943e-192 -2.84936e-20 -2.17319e-15 0 884 3064 -1.88276e-193 5.25978e-06 -1.62002 1.22522e-06 0.0003 
0 0 0 -7.30589e-72 -7.53699e-20 3.53498e-12 0 884 871 1.06519e-74 5.25978e-06 -1.62002 1.22522e-06 0.0003 
0 0 0 8.60941e-128 6.61029e-20 -2.36052e-12 0 884 1962 5.87562e-128 5.25978e-06 -1.62002 1.22522e-06 0.0003 
0 0 0 8.57886e-18 4.33307e-17 5.31106e-12 0 884 2565 -0.000948175 -0.00525418 -1.61889 1.22478e-06 0.00029986 
0 0 0 0.0261909 -0.0177531 -0.00249536 0 884 2189 -2.26464e-05 7.16103e-06 4.75032e-05 1.01624e-09 2.022e-07 
0 0 0 3.63556e-302 -6.57269e-20 1.18145e-12 0 884 7394 9.98357e-307 5.25978e-06 -1.62002 1.22522e-06 0.0003 
0 0 0 -4.37892e-302 -6.59194e-20 2.36056e-12 0 884 3089 1.57411e-307 5.25978e-06 -1.62002 1.22522e-06 0.0003 
0 0 0 1.57248e-302 9.54467e-21 -3.53501e-12 0 884 7839 -9.74801e-308 5.25978e-06 -1.62002 1.22522e-06 0.0003 
0 0 0 7.08965e-276 8.48857e-20 3.53498e-12 0 884 5274 -4.50994e-277 5.25978e-06 -1.62002 1.22522e-06 0.0003 
0 0 0 9.41618e-17 -5.15861e-17 -5.90064e-12 0 884 2130 0.0614403 0.0033376 -1.62221 1.22607e-06 0.00030027 
0 0 0 -3.23271e-17 5.21732e-17 -5.90074e-12 0 884 4708 -0.0564372 -0.00305573 -1.61783 1.22437e-06 0.00029973 
0 0 0 0.0647681 0.113579 -0.00231273 0 884 4234 -0.00195512 -3.86997e-05 0.000319335 4.82122e-09 9.59728e-07 
0 0 0 3.49799e-14 1.02419e-19 1.81109e-275 0 863 2723 -1.62002 5.25978e-06 -3.52556e-276 1.22522e-06 0.0003 
0 0 0 1.63037e-14 4.72763e-20 -1.59719e-302 0 862 444 -1.62002 5.25978e-06 -8.44422e-307 1.22522e-06 0.0003 
0 0 0 -7.68046e-14 4.64902e-20 -1.40494e-272 0 862 927 -1.62002 5.25978e-06 5.88817e-274 1.22522e-06 0.0003 
0 0 0 -0.0315148 -0.0955969 0.0421992 0 854 2215 0.00494555 0.000281987 0.000838529 2.91815e-08 5.8267e-06 
0 0 0 0.219546 0.549371 -0.00357153 0 854 6353 -0.00171671 0.000849143 -0.000366079 1.47767e-08 2.94515e-06 
0 0 0 0.0273174 0.759886 0.210054 0 854 5401 0.00103545 -0.00048942 -0.000168843 1.391e-08 2.7721e-06 
0 0 0 -0.0301248 -0.0508924 -0.200376 0 854 5739 0.000524746 -0.000485566 0.00256382 3.781e-09 7.5256e-07 
0 0 0 -0.00454798 0.13049 -0.0456409 0 854 2627 0.00169672 -0.000640456 0.000556354 1.51015e-08 3.01002e-06 
0 0 0 0.00184773 -0.0211259 0.0071297 0 854 52 0.000420998 6.24739e-05 1.16817e-05 6.3521e-09 1.26471e-06 
0 0 0 0.00439671 0.00141721 0.015904 0 854 4620 2.8038e-05 -9.57725e-06 -3.29433e-06 1.80286e-09 3.58747e-07 
0 0 0 0.00734001 -0.0205212 0.0870079 0 854 1834 -5.66449e-06 2.83219e-06 1.81279e-08 1.63364e-09 3.25067e-07 
0 0 0 0.00220584 -0.0310071 0.0145542 0 854 6984 2.81982e-06 4.49536e-07 1.33632e-06 7.67535e-10 1.52711e-07 
0 0 0 -0.0494167 0.0373348 -0.0294347 0 854 4068 0.000866862 -0.000192285 -0.0003381 4.93567e-09 9.82524e-07 
0 0 0 0.0091933 -0.00101694 0.0499519 0 854 1211 5.20308e-05 -0.000152168 -0.000364658 3.01104e-09 5.99251e-07 
0 0 0 9.68954e-100 -4.70318e-20 -2.3606e-12 0 850 5230 5.18648e-101 5.25978e-06 1.62002 1.22522e-06 0.0003 
0 0 0 -2.03943e-192 -2.84936e-20 -2.17319e-15 0 850 3064 -1.88276e-193 5.25978e-06 1.62002 1.22522e-06 0.0003 
0 0 0 1.16642e-255 6.57828e-20 -1.18149e-12 0 850 478 -6.23802e-257 5.25978e-06 1.62002 1.22522e-06 0.0003 
0 0 0 -7.30589e-72 -7.53699e-20 3.53498e-12 0 850 871 1.06519e-74 5.25978e-06 1.62002 1.22522e-06 0.0003 
0 0 0 8.60941e-128 6.61029e-20 -2.36052e-12 0 850 1962 5.87562e-128 5.25978e-06 1.62002 1.22522e-06 0.0003 
0 0 0 -9.80416e-141 8.41697e-20 2.27118e-15 0 850 283 -4.5065e-141 5.25978e-06 1.62002 1.22522e-06 0.0003 
0 0 0 -7.13491e-18 -4.31234e-17 5.31034e-12 0 850 6540 0.000948175 0.0052647 1.61889 1.22478e-06 0.00029986 
0 0 0 8.57886e-18 4.33307e-17 5.31106e-12 0 850 2565 -0.00143519 -0.00795563 1.62115 1.22566e-06 0.00030014 
0 0 0 3.3513e-18 3.08761e-18 4.72351e-12 0 850 5520 9.14579e-05 -0.000213404 1.62002 1.22522e-06 0.0003 
0 0 0 3.63556e-302 -6.57269e-20 1.18145e-12 0 850 7394 -9.03622e-307 5.25978e-06 1.62002 1.22522e-06 0.0003 
0 0 0 -1.04492e-306 8.49439e-20 2.36053e-12 0 850 2321 -1.03748e-306 5.25978e-06 1.62002 1.22522e-06 0.0003 
0 0 0 -3.31622e-18 -6.49586e-18 4.72347e-12 0 850 7581 -9.14579e-05 0.000223924 1.62002 1.22522e-06 0.0003 
0 0 0 -4.37892e-302 -6.59194e-20 2.36056e-12 0 850 3089 -2.49356e-307 5.25978e-06 1.62002 1.22522e-06 0.0003 
0 0 0 1.57248e-302 9.54467e-21 -3.53501e-12 0 850 7839 1.8898e-307 5.25978e-06 1.62002 1.22522e-06 0.0003 
0 0 0 -1.55651e-302 1.88462e-20 2.36053e-12 0 850 1583 -5.12584e-308 5.25978e-06 1.62002 1.22522e-06 0.0003 
0 0 0 -1.28529e-302 1.90595e-20 -1.18142e-12 0 850 8195 1.82107e-307 5.25978e-06 1.62002 1.22522e-06 0.0003 
0 0 0 7.08965e-276 8.48857e-20 3.53498e-12 0 850 5274 -4.50994e-277 5.25978e-06 1.62002 1.22522e-06 0.0003 
0 0 0 9.41618e-17 -5.15861e-17 -5.90064e-12 0 850 2130 0.0564372 0.00306625 1.61783 1.22437e-06 0.00029973 
0 0 0 -3.23271e-17 5.21732e-17 -5.90074e-12 0 850 4708 -0.0614403 -0.00332708 1.62221 1.22607e-06 0.00030027 
0 0 0 1.63037e-14 4.72763e-20 -1.59719e-302 0 822 444 1.62002 5.25978e-06 7.51136e-307 1.22522e-06 0.0003 
0 0 0 -7.68046e-14 4.64902e-20 -1.40494e-272 0 821 927 1.62002 5.25978e-06 5.88817e-274 1.22522e-06 0.0003 
0 0 0 3.49799e-14 1.02419e-19 1.81109e-275 0 821 2723 1.62002 5.25978e-06 -3.52556e-276 1.22522e-06 0.0003 
0 0 0 -0.0764818 -13.2261 -10.6478 0 916 9510 0.0375447 -0.762414 0.83541 7.9216e-07 0.000177226 
0 0 0 -0.0118317 -0.116414 -0.127701 0 910 9307 -1.60803e-16 7.10933e-06 -3.74085e-06 4.28995e-10 8.53505e-08 
0 0 0 1.16642e-255 6.57828e-20 -1.18149e-12 0 885 478 -6.23802e-257 5.25978e-06 -1.62002 1.22522e-06 0.0003 
0 0 0 -9.80416e-141 8.41697e-20 2.27118e-15 0 885 283 -4.5065e-141 5.25978e-06 -1.62002 1.22522e-06 0.0003 
0 0 0 -7.13491e-18 -4.31234e-17 5.31034e-12 0 885 6540 0.00143519 0.00796615 -1.62115 1.22566e-06 0.00030014 
0 0 0 3.3513e-18 3.08761e-18 4.72351e-12 0 885 5520 9.14579e-05 -0.000213404 -1.62002 1.22522e-06 0.0003 
0 0 0 -1.04492e-306 8.49439e-20 2.36053e-12 0 885 2321 1.13136e-306 5.25978e-06 -1.62002 1.22522e-06 0.0003 
0 0 0 -3.31622e-18 -6.49586e-18 4.72347e-12 0 885 7581 -9.14579e-05 0.000223924 -1.62002 1.22522e-06 0.0003 
0 0 0 -1.55651e-302 1.88462e-20 2.36053e-12 0 885 1583 -4.36582e-308 5.25978e-06 -1.62002 1.22522e-06 0.0003 
0 0 0 -1.28529e-302 1.90595e-20 -1.18142e-12 0 885 8195 -8.79844e-308 5.25978e-06 -1.62002 1.22522e-06 0.0003 
0 0 0 0.0792691 0.0210718 0.00171386 0 853 3229 0.00012324 -0.0017656 -3.94287e-05 1.40052e-08 2.79112e-06 
0 0 0 -0.0658216 -0.0248586 0.0507414 0 853 5823 0.00184777 -0.0157137 -8.31699e-05 6.95641e-08 1.39612e-05 
0 0 0 -0.038991 0.0149416 0.0577493 0 853 8133 2.91111e-05 -0.000513692 -0.000255191 5.32349e-09 1.05978e-06 
0 0 0 -0.0137699 -0.0307114 0.132284 0 853 1753 3.81347e-06 0.000208148 -0.000104004 1.59447e-09 3.17272e-07 
0 0 0 -0.0324333 -3.36464e-06 0.0512491 0 853 9000 6.64197e-07 -1.42138e-06 -2.52828e-07 1.39217e-10 2.76969e-08 
0 0 0 -0.0558125 -0.00670925 0.0693019 0 853 5254 2.14721e-05 -5.58465e-05 -1.7851e-05 2.68075e-09 5.33495e-07 
0 0 0 -0.00730385 -0.00294893 0.092634 0 853 6502 2.19829e-06 -2.09098e-05 -1.02212e-05 1.39095e-09 2.7677e-07 
0 0 0 0.0118518 -0.000180031 0.19784 0 853 3733 0.000122919 -0.0040253 0.000184699 2.75829e-08 5.50639e-06 
0 0 0 -0.0720698 -0.047031 0.0744075 0 853 8527 -3.66928e-05 -0.000419957 0.000105168 1.1509e-08 2.29292e-06 
0 0 0 -0.0533018 0.00447891 0.0980033 0 853 3154 4.69303e-05 -0.000540441 -0.0013591 6.74507e-09 1.34302e-06 
0 0 0 -0.154349 -0.0457505 0.0460008 0 852 7015 0.000291436 -0.00104258 -0.000287882 1.5785e-08 3.14651e-06 
0 0 0 0.00594778 -0.067112 -0.00443467 0 894 2712 0.000179572 0.000299085 -0.000697704 9.06666e-09 1.80579e-06 
0 0 0 0.00764575 -0.0437388 -0.00489006 0 894 4958 -9.96952e-06 7.8903e-05 -0.000159061 3.87935e-09 7.72144e-07 
0 0 0 -0.0191103 -0.152312 -0.0124183 0 894 5921 3.45399e-05 3.03043e-05 -9.1899e-05 4.06261e-09 8.0864e-07 
0 0 0 0.0117821 -0.0881595 0.00239443 0 894 2636 -0.000104465 -2.94325e-05 -0.000354005 5.17905e-09 1.031e-06 
0 0 0 0.00254737 -0.111413 0.00405498 0 894 4390 2.15157e-05 0.000141815 -0.000286876 4.24742e-09 8.45445e-07 
0 0 0 -0.0301314 -0.107577 0.0052625 0 894 3537 1.96967e-05 8.6107e-05 -0.000176662 2.73119e-09 5.43537e-07 
0 0 0 -0.0251297 -0.102491 0.00661211 0 894 6459 0.000111803 0.000259663 -0.00056542 6.73326e-09 1.34066e-06 
0 0 0 0.0217016 -0.112787 -0.00493439 0 894 7556 -3.81592e-06 7.02243e-06 1.59845e-05 7.96018e-10 1.58378e-07 
0 0 0 0.0277983 -0.092924 0.00371195 0 894 7677 -4.43353e-05 -0.000384212 -0.000146347 2.51805e-09 5.01107e-07 
0 0 0 -0.00829122 0.0161637 -0.018987 0 894 6309 -1.94016e-05 -0.000114925 -7.84447e-06 3.88024e-09 7.72322e-07 
0 0 0 0.000224352 -0.098524 -0.00176046 0 894 5032 -0.00034975 0.00115687 -5.23495e-05 1.82063e-09 3.62284e-07 
0 0 0 0.0133781 -0.212509 -0.00120036 0 894 3458 0.000252148 0.000223329 -0.000673659 8.52198e-09 1.69719e-06 
0 0 0 0.0152893 -0.228964 -0.00632822 0 894 855 1.0617e-05 9.2685e-06 -2.81869e-05 2.14125e-09 4.26101e-07 
0 0 0 0.00219359 -0.121055 0.00161575 0 894 3226 -1.84423e-05 0.000679544 -2.95748e-05 7.52687e-10 1.49756e-07 
0 0 0 -0.0603482 -0.350441 0.0195396 0 894 7513 0.000143549 0.000209328 -0.000507639 4.75399e-09 9.46336e-07 
0 0 0 0.0281088 -0.19864 -0.00342807 0 894 4391 2.60362e-06 7.07826e-06 1.50838e-05 2.11928e-10 4.21629e-08 
0 0 0 0.0226982 -0.154075 0.00815326 0 894 4163 1.32579e-05 8.33701e-05 -0.000168835 2.23692e-09 4.45146e-07 
0 0 0 0.0219386 -0.15155 -0.00491912 0 894 2023 -5.2471e-08 3.86794e-07 7.80674e-07 1.25818e-09 2.50346e-07 
0 0 0 0.0554661 -0.239852 0.00318225 0 894 2906 -0.000261863 0.000900275 -3.73364e-05 6.73553e-10 1.3401e-07 
0 0 0 0.0403476 -0.243531 -0.00144348 0 894 2718 -2.26547e-07 1.44999e-06 -2.93517e-06 5.92472e-10 1.17877e-07 
0 0 0 0.00088912 -0.284487 -0.00869549 0 894 8125 3.06903e-06 2.21159e-05 4.46556e-05 6.96208e-10 1.38518e-07 
0 0 0 0.0322181 -0.147261 0.00374395 0 894 1231 -0.000101231 3.63313e-05 -0.000215106 3.43367e-09 6.83399e-07 
0 0 0 -0.050182 -0.42659 -0.00818964 0 894 6082 2.7291e-07 2.12689e-05 4.25413e-05 3.61877e-10 7.19964e-08 
0 0 0 0.0120402 -0.175364 -0.00114169 0 894 2233 1.82167e-05 9.44619e-05 -0.000192405 3.79396e-09 7.55142e-07 
0 0 0 -0.0392309 -0.299587 -0.00619909 0 894 6662 5.11848e-06 1.4489e-05 3.0733e-05 3.78234e-10 7.52507e-08 
0 0 0 -0.0399341 -0.301156 -0.00359022 0 894 5413 -1.53251e-06 5.35826e-06 1.11462e-05 6.06905e-10 1.20749e-07 
0 0 0 -0.0200289 -0.260224 -0.0028709 0 894 4697 0.000599954 0.00111709 -1.4567e-05 1.22844e-09 2.44427e-07 
0 0 0 0.0625383 -0.047209 -0.00831919 0 894 7339 -3.89249e-06 6.54335e-06 1.52272e-05 1.60734e-09 3.19834e-07 
0 0 0 0.00310842 -0.243909 -0.000785446 0 894 6591 2.16294e-07 6.63887e-07 1.39647e-06 2.10442e-10 4.18673e-08 
0 0 0 9.55114e-14 -5.69314e-20 7.60628e-303 0 866 887 -1.62002 5.25978e-06 3.41003e-307 1.22522e-06 0.0003 
0 0 0 -9.55524e-14 -9.19147e-20 3.6568e-303 0 866 964 -1.62002 5.25978e-06 -4.13014e-307 1.22522e-06 0.0003 
0 0 0 0.0633707 -0.082026 0.151561 0 855 8066 0.0130358 0.000535813 -0.000757539 6.42165e-08 1.28791e-05 
0 0 0 0.00995545 -0.0691354 -0.0139535 0 855 4287 1.33754e-05 -1.9444e-05 -1.82536e-05 2.49437e-09 4.96393e-07 
0 0 0 0.00594778 -0.067112 -0.00443467 0 855 2712 0.00011811 4.64407e-05 0.000213656 3.48699e-09 6.94016e-07 
0 0 0 -0.00185539 -0.0707531 0.016041 0 855 5742 0.000214739 0.000105609 -1.93604e-05 3.67572e-09 7.31597e-07 
0 0 0 -0.00994509 -0.0809652 -0.0151587 0 855 1070 0.000412997 2.75675e-05 0.000343376 4.89494e-09 9.7441e-07 
0 0 0 0.00594185 -0.0870895 -0.0215669 0 855 3892 0.000388659 1.89894e-05 6.34485e-06 6.5212e-09 1.29841e-06 
0 0 0 -0.0344339 -0.0889631 -0.0500205 0 855 1587 0.000392519 0.000177148 8.44784e-05 2.0117e-09 4.00316e-07 
0 0 0 0.00491398 -0.0938975 -0.0552417 0 855 7089 0.000937699 6.89064e-05 0.000136672 1.09616e-08 2.18372e-06 
0 0 0 0.000224954 -0.0894568 -0.00205223 0 855 2891 0.000105632 0.000352188 -2.91295e-05 2.4753e-09 4.92598e-07 
0 0 0 0.00242424 -0.0701159 -0.0638099 0 855 3578 -4.96042e-06 2.73886e-06 -3.43132e-06 5.37797e-10 1.06998e-07 
0 0 0 0.00605561 -0.100811 -0.0219385 0 855 6494 3.53924e-05 -3.55001e-06 -1.70324e-06 2.22653e-09 4.43077e-07 
0 0 0 0.0086457 -0.0730134 -0.00754072 0 855 7144 0.000110006 5.21215e-05 -1.75694e-05 3.76291e-09 7.48957e-07 
0 0 0 0.00568716 -0.120619 -0.0289544 0 855 6011 0.000310492 0.000153433 2.36592e-05 5.70835e-09 1.13645e-06 
0 0 0 -0.00192797 -0.110137 -0.0386649 0 855 5355 2.71125e-05 1.28903e-05 4.19658e-06 6.33779e-10 1.26096e-07 
0 0 0 0.00764575 -0.0437388 -0.00489006 0 855 4958 0.000138451 -0.000263212 8.83578e-05 3.99543e-09 7.9526e-07 
0 0 0 0.00632699 -0.0668104 -0.0113904 0 855 7559 4.94903e-05 2.46723e-05 1.89723e-06 2.5153e-09 5.0056e-07 
0 0 0 0.00811133 -0.136073 -0.0299218 0 855 7345 0.00024503 2.30683e-05 7.74706e-05 5.31368e-09 1.05782e-06 
0 0 0 -0.0006746 -0.184153 -0.00733396 0 855 4342 0.000228519 -1.14842e-05 9.03411e-05 3.99685e-09 7.95543e-07 
0 0 0 0.00812623 -0.123577 0.0593444 0 855 6589 1.78295e-05 5.44747e-06 -7.05674e-06 2.25961e-09 4.49661e-07 
0 0 0 0.0102831 -0.12121 0.00380432 0 855 2675 3.37911e-06 0.000521526 -9.73252e-05 2.36909e-09 4.71454e-07 
0 0 0 0.00881594 -0.0771497 0.0606348 0 855 1409 -4.43365e-05 2.14256e-05 -5.68984e-06 7.76766e-10 1.54548e-07 
0 0 0 0.411896 0.469193 0.433965 0 852 810 -0.00151939 -0.00918848 -0.00250389 1.68401e-08 3.35727e-06 
0 0 0 0.232233 0.788436 -0.668647 0 852 5761 0.0168012 -0.0508332 -0.0016723 1.07264e-07 2.1632e-05 
0 0 0 -0.220213 0.0421627 0.269222 0 852 2704 8.61536e-05 -0.00029035 -0.000116847 5.59312e-10 1.11279e-07 
0 0 0 0.105487 -0.0144509 0.148127 0 852 5470 -1.19427e-05 4.85574e-05 -2.11382e-05 2.10516e-09 4.18918e-07 
0 0 0 -5.89617e-14 4.56709e-14 0.0782538 0 819 846 2.71714e-06 3.95108e-14 -3.77445e-18 2.12866e-10 4.23496e-08 
0 0 0 -0.0118027 -0.156733 0.0127928 0 895 4582 1.83873e-05 0.000176781 -0.00035547 3.95244e-09 7.86699e-07 
0 0 0 2.22692e-15 -8.43807e-20 -3.1936e-302 0 861 1395 -1.62002 5.25978e-06 -5.81863e-307 1.22522e-06 0.0003 
0 0 0 -1.63076e-14 -4.72622e-20 4.36586e-302 0 857 2716 -1.62002 5.25978e-06 5.56196e-307 1.22522e-06 0.0003 
0 0 0 -5.89617e-14 4.56709e-14 0.0782538 0 854 846 -2.71714e-06 1.05196e-05 5.26437e-18 5.36245e-10 1.0669e-07 
0 0 0 2.22692e-15 -8.43807e-20 -3.1936e-302 0 822 1395 1.62002 5.25978e-06 6.7719e-307 1.22522e-06 0.0003 
0 0 0 -1.63076e-14 -4.72622e-20 4.36586e-302 0 820 2716 1.62002 5.25978e-06 -4.64599e-307 1.22522e-06 0.0003 
0 0 0 9.55114e-14 -5.69314e-20 7.60628e-303 0 828 887 1.62002 5.25978e-06 -2.48639e-307 1.22522e-06 0.0003 
0 0 0 -9.55524e-14 -9.19147e-20 3.6568e-303 0 828 964 1.62002 5.25978e-06 5.04814e-307 1.22522e-06 0.0003 
0 0 0 -12.7823 4.87617 36.8631 0 938 9512 -0.0747894 0.220712 -0.0756199 3.16995e-07 6.57675e-05 
0 0 0 -1.74626 -16.4726 9.11308 0 924 1040 0.0084576 0.0212472 0.0455499 1.87146e-07 3.81406e-05 
0 0 0 -0.00754613 0.00267642 -0.0143176 0 778 6537 5.98944e-16 1.02659e-05 1.35713e-06 5.1885e-10 1.03229e-07 
0 0 0 -0.00241827 0.00187221 -0.0100155 0 778 924 7.15185e-15 1.02659e-05 1.35713e-06 5.18848e-10 1.03228e-07 
0 0 0 -0.0101725 6.26976e-12 -0.0516385 0 776 5373 1.14503e-18 1.05196e-05 9.62682e-18 5.24825e-10 1.04417e-07 
0 0 0 0.000970269 -2.63932e-12 -0.00938285 0 776 4183 1.28596e-19 1.05196e-05 -1.19797e-18 5.24825e-10 1.04417e-07 
0 0 0 -0.000478561 -7.35998e-10 -0.00422445 0 776 163 1.06796e-16 1.05196e-05 9.42742e-16 5.24827e-10 1.04418e-07 
0 0 0 0.00357812 -4.58265e-12 -0.000475263 0 776 221 -4.80196e-19 1.05196e-05 4.29083e-20 5.24825e-10 1.04417e-07 
0 0 0 -0.00051981 -1.66645e-08 0.000123303 0 776 4357 2.31127e-15 1.05191e-05 -5.61756e-16 5.24805e-10 1.04413e-07 
0 0 0 0.0200351 6.89646e-06 -0.0224632 0 776 6782 -1.79852e-09 1.06108e-05 1.00394e-08 5.29344e-10 1.05317e-07 
0 0 0 -0.0214634 -1.76199e-05 -0.0127141 0 776 8283 -1.5448e-10 1.09456e-05 1.88078e-10 5.35112e-10 1.06464e-07 
0 0 0 0.000879655 1.88031e-08 0.000243219 0 776 3193 4.55077e-15 1.052e-05 1.25746e-15 5.24843e-10 1.04421e-07 
0 0 0 0.0207728 -1.68222e-12 -0.000572976 0 776 2843 9.92996e-20 1.05196e-05 7.55338e-20 5.24825e-10 1.04417e-07 
0 0 0 0.0236158 -2.32676e-12 0.00402776 0 776 3641 -2.1609e-19 1.05196e-05 5.99033e-19 5.24825e-10 1.04417e-07 
0 0 0 0.0356745 3.95751e-12 0.00616692 0 776 3631 5.1764e-19 1.05196e-05 7.12595e-20 5.24825e-10 1.04417e-07 
0 0 0 0.000842775 1.06118e-09 -0.00139852 0 776 7846 2.58574e-16 1.05195e-05 -4.29091e-16 5.24823e-10 1.04417e-07 
0 0 0 0.000755153 -2.32002e-13 0.0211928 0 776 4532 -3.02667e-20 1.05196e-05 2.39621e-18 5.24825e-10 1.04417e-07 
0 0 0 0.0176798 6.05226e-12 -0.020608 0 776 2062 5.31127e-19 1.05196e-05 2.39596e-18 5.24825e-10 1.04417e-07 
0 0 0 -0.00637676 5.01448e-05 -0.0130855 0 776 1374 -1.92407e-09 1.03595e-05 -9.39307e-10 5.30368e-10 1.0552e-07 
0 0 0 -0.00319005 -1.19881e-12 0.00315777 0 776 6261 -1.20652e-19 1.05196e-05 -3.02145e-19 5.24825e-10 1.04417e-07 
0 0 0 -0.0180924 -0.000526933 0.0277411 0 776 3905 7.19343e-06 1.56115e-05 -3.03058e-06 5.76198e-10 1.14639e-07 
0 0 0 0.00860706 6.6968e-12 0.00140773 0 776 3877 -8.69725e-19 1.05196e-05 -1.09707e-19 5.24825e-10 1.04417e-07 
0 0 0 -0.000663264 3.15183e-12 0.0558522 0 776 4050 7.48822e-20 1.05196e-05 3.74206e-18 5.24825e-10 1.04417e-07 
0 0 0 0.00559192 -8.57572e-06 0.0119189 0 776 12 -5.88373e-13 1.07427e-05 -2.61655e-11 5.3037e-10 1.05521e-07 
0 0 0 0.0759867 -0.0390272 0.100959 0 776 5618 -0.000211952 0.000957279 -0.000429153 6.674e-09 1.32885e-06 
0 0 0 -0.00730755 -1.4043e-06 0.017598 0 776 1223 -1.33604e-11 1.04713e-05 -8.83285e-11 5.22915e-10 1.04037e-07 
0 0 0 0.0253535 -1.6613e-09 0.0359237 0 776 4459 -1.12997e-14 1.05195e-05 -1.60105e-14 5.24822e-10 1.04417e-07 
0 0 0 -0.000560498 4.04466e-06 0.0372824 0 776 4507 -1.03873e-11 1.05652e-05 4.61038e-11 5.27217e-10 1.04893e-07 
0 0 0 0.00924755 2.31067e-07 -0.00724153 0 776 6055 6.04485e-13 1.05156e-05 -4.73357e-13 5.24742e-10 1.04401e-07 
0 0 0 0.0228825 -3.45107e-12 0.0361751 0 776 3742 2.39622e-18 1.05196e-05 4.11695e-18 5.24825e-10 1.04417e-07 
0 0 0 0.01093 5.05101e-09 -0.00924032 0 776 4008 1.5312e-14 1.05196e-05 -1.29453e-14 5.24827e-10 1.04418e-07 
0 0 0 -0.0609491 1.30149e-07 0.0234497 0 776 6486 4.78244e-06 1.05236e-05 -2.19424e-06 5.24986e-10 1.0445e-07 
0 0 0 -0.0597333 4.83433e-09 0.0261033 0 776 1969 2.26516e-09 1.05196e-05 -9.18806e-09 5.24828e-10 1.04418e-07 
0 0 0 0.00102896 -9.90196e-06 0.0331775 0 776 2861 -4.18875e-09 1.07825e-05 -8.80957e-09 5.314e-10 1.05726e-07 
0 0 0 -0.0432461 -7.43806e-08 0.0376173 0 776 7454 0.000177606 1.05068e-05 -0.000186294 5.24383e-10 1.0433e-07 
0 0 0 -0.0140198 4.44976e-10 0.0684963 0 776 481 2.17024e-14 1.05196e-05 -1.06198e-13 5.24825e-10 1.04417e-07 
0 0 0 0.0202953 -3.48389e-05 0.00771475 0 776 2748 7.89762e-05 9.50397e-06 -0.000104751 4.82811e-10 9.6058e-08 
0 0 0 0.004341 7.28087e-08 0.0936701 0 776 2925 1.44187e-05 1.05191e-05 -0.000170994 5.24826e-10 1.04418e-07 
0 0 0 -0.0270073 -0.000113804 0.0855285 0 776 6636 3.19098e-06 1.05206e-05 -4.18193e-06 5.00233e-10 9.95244e-08 