ITEM: TIMESTEP
50000
ITEM: NUMBER OF ENTRIES
22
ITEM: BOX BOUNDS ff ff ff
-0.01 0.45
-0.15 0.15
-0.08 0.1
ITEM: ENTRIES c_pwc[1] c_pwc[2] c_pwc[3] c_pwc[4] c_pwc[5] c_pwc[6] c_pwc[7] c_pwc[8] c_pwc[9] c_pwc[10] c_pwc[11] c_pwc[12] c_pwc[13] c_pwc[14] 
0 0 0 14.6617 -2.9611 12.6507 0 884 69 0.00593642 0.119744 -0.287223 1.79222e-07 3.64871e-05 
0 0 0 5.04875 24.5712 -31.9421 0 908 55 -0.144811 0.0079728 0.0223838 2.15475e-07 4.40819e-05 
0 0 0 -3.89345 -1.15429 -4.31215 0 861 7 0.291928 0.140537 -0.0394307 3.15605e-07 6.54663e-05 
0 -39.6889 93.1829 -0.0182052 -38.9656 93.3985 1 2725 47 1.14251 -0.203169 1.14923 1.22898e-06 0.000301197 
0 -38.3242 93.554 -0.0182052 -38.9656 93.3985 1 2701 47 -1.14253 0.399361 -1.06751 1.22148e-06 0.000298809 
0 -25.9199 102.485 -0.0154403 -26.5552 102.328 1 2698 76 -1.14213 0.408926 -1.08085 1.22559e-06 0.000300118 
0 -27.2846 102.114 -0.0154403 -26.5552 102.328 1 2717 76 1.14213 -0.193994 1.13651 1.22486e-06 0.000299884 
0 0 0 -4.96172e-196 -8.48907e-20 -2.36055e-12 0 885 50 6.39106e-197 5.25978e-06 -1.62002 1.22522e-06 0.0003 
0 0 0 9.32901e-303 7.53942e-20 -1.18148e-12 0 885 9 -2.82376e-307 5.25978e-06 -1.62002 1.22522e-06 0.0003 
0 0 0 2.15286e-302 -8.47255e-20 -2.36052e-12 0 885 28 8.98699e-307 5.25978e-06 -1.62002 1.22522e-06 0.0003 
0 0 0 4.50415e-303 8.48903e-20 -2.3606e-12 0 885 17 2.40943e-308 5.25978e-06 -1.62002 1.22522e-06 0.0003 
0 0 0 -2.8372e-78 5.66298e-20 -3.53498e-12 0 885 30 2.55962e-80 5.25978e-06 -1.62002 1.22522e-06 0.0003 
0 0 0 -4.96172e-196 -8.48907e-20 -2.36055e-12 0 850 50 6.39106e-197 5.25978e-06 1.62002 1.22522e-06 0.0003 
0 0 0 9.32901e-303 7.53942e-20 -1.18148e-12 0 850 9 1.89841e-307 5.25978e-06 1.62002 1.22522e-06 0.0003 
0 0 0 2.15286e-302 -8.47255e-20 -2.36052e-12 0 850 28 -9.92467e-307 5.25978e-06 1.62002 1.22522e-06 0.0003 
0 0 0 4.50415e-303 8.48903e-20 -2.3606e-12 0 850 17 -1.18927e-307 5.25978e-06 1.62002 1.22522e-06 0.0003 
0 0 0 -2.8372e-78 5.66298e-20 -3.53498e-12 0 850 30 2.55962e-80 5.25978e-06 1.62002 1.22522e-06 0.0003 
0 0 0 -20.4071 43.9517 18.3919 0 949 90 -7.81542e-05 0.000610187 -0.000469225 2.18559e-07 4.47316e-05 
0 0 0 2.1793e-152 3.78177e-20 -5.89794e-12 0 885 8 1.9431e-153 5.25978e-06 -1.62002 1.22522e-06 0.0003 
0 0 0 3.41395e-153 7.53142e-20 -5.89793e-12 0 885 29 2.86102e-155 5.25978e-06 -1.62002 1.22522e-06 0.0003 
0 0 0 2.1793e-152 3.78177e-20 -5.89794e-12 0 850 8 1.9431e-153 5.25978e-06 1.62002 1.22522e-06 0.0003 
0 0 0 3.41395e-153 7.53142e-20 -5.89793e-12 0 850 29 2.86102e-155 5.25978e-06 1.62002 1.22522e-06 0.0003 
