ITEM: TIMESTEP
17150000
ITEM: NUMBER OF ENTRIES
472
ITEM: BOX BOUNDS ff ff ff
-0.01 0.45
-0.15 0.15
-0.08 0.1
ITEM: ENTRIES c_pwc[1] c_pwc[2] c_pwc[3] 
0 954 1652 
0 850 1707 
0 850 41 
0 850 480 
0 850 286 
0 885 1707 
0 885 41 
0 885 480 
0 884 2109 
0 884 286 
0 884 717 
0 884 369 
0 884 730 
0 884 1446 
0 884 1215 
0 854 776 
0 854 685 
0 854 717 
0 854 1838 
0 854 278 
0 854 1367 
0 854 77 
0 854 497 
0 853 1162 
0 853 650 
0 853 998 
0 853 1004 
0 853 2015 
0 853 641 
0 852 884 
0 852 1345 
0 852 1016 
0 852 1541 
0 852 940 
0 852 1028 
0 852 2066 
0 852 1787 
0 852 1140 
0 855 581 
0 894 1912 
0 894 1603 
0 894 1935 
0 894 1298 
0 894 1388 
0 894 992 
0 894 1387 
0 894 901 
0 894 967 
0 894 878 
0 894 1369 
0 894 703 
0 852 1426 
0 852 137 
0 855 1783 
0 855 1518 
0 855 1912 
0 855 1420 
0 854 721 
0 854 1091 
0 854 1817 
0 854 383 
0 854 587 
1 1856 2070 
1 1851 2070 
1 1852 2070 
1 1879 2070 
1 516 2070 
1 517 2070 
1 485 2070 
1 486 2070 
0 949 1148 
0 885 270 
0 885 969 
0 885 48 
0 885 127 
0 885 52 
0 885 908 
0 885 276 
0 885 352 
0 885 6 
0 885 79 
0 885 351 
0 885 45 
0 885 393 
0 885 39 
0 850 270 
0 850 969 
0 850 48 
0 850 127 
0 850 52 
0 850 908 
0 850 276 
0 850 352 
0 850 6 
0 850 79 
0 850 351 
0 850 45 
0 851 393 
0 851 39 
1 2708 1013 
1 2707 1013 
1 2707 1377 
1 2706 1013 
1 2706 752 
1 137 1377 
1 134 1377 
1 136 1377 
1 138 1377 
1 2704 752 
1 2705 752 
1 120 1377 
1 123 1377 
1 2650 1377 
1 2721 1377 
1 2722 1377 
1 2722 752 
1 124 1377 
1 125 1377 
1 2649 1377 
1 126 1377 
1 2647 1377 
1 2644 1377 
1 2672 1377 
1 86 2045 
1 2674 1377 
1 2698 752 
1 2673 1377 
1 80 2045 
1 2717 752 
1 2702 1377 
1 2703 1377 
1 2724 1377 
1 2726 1377 
1 81 2045 
1 85 2045 
0 895 1647 
0 895 425 
0 895 582 
0 895 1615 
0 895 634 
0 853 389 
0 853 108 
0 853 664 
0 853 987 
0 853 243 
0 853 104 
0 853 1243 
0 853 932 
0 853 1874 
0 853 603 
0 884 788 
0 884 524 
0 884 1291 
0 884 716 
0 885 1956 
0 850 788 
0 852 1631 
0 894 350 
0 894 323 
0 894 572 
0 894 303 
0 894 492 
0 894 1187 
0 894 102 
0 894 144 
0 895 253 
0 895 880 
0 895 18 
0 895 591 
0 895 719 
0 895 1686 
0 935 2137 
0 938 1517 
0 945 990 
0 925 2134 
1 541 417 
1 547 417 
1 524 417 
1 546 417 
1 523 417 
1 545 417 
1 544 417 
1 519 417 
1 483 146 
1 1869 417 
1 1870 417 
1 1868 417 
1 1829 417 
1 1835 417 
1 1885 417 
1 1830 417 
1 1831 417 
1 1836 417 
1 497 146 
1 1887 417 
1 481 146 
1 1888 417 
1 500 417 
1 1866 417 
1 1865 417 
1 1834 417 
1 1837 417 
0 917 2071 
0 961 1029 
0 961 1087 
0 961 40 
0 955 1221 
0 759 1221 
0 753 1029 
0 753 1087 
0 753 40 
0 886 15 
0 885 15 
0 850 15 
0 893 1183 
0 892 1966 
0 889 621 
0 888 2118 
0 888 1437 
0 888 272 
0 888 2053 
0 888 2058 
0 888 2083 
0 888 909 
0 888 1394 
0 890 75 
0 891 1982 
0 891 1752 
0 887 802 
0 887 732 
0 887 559 
0 887 904 
0 893 1879 
0 893 1699 
0 892 495 
0 892 1081 
0 895 1879 
0 895 1699 
0 888 741 
0 888 1981 
0 888 744 
0 888 668 
0 383 85 
0 381 91 
0 379 1964 
0 389 445 
0 389 1635 
0 387 1412 
0 371 2135 
0 369 1384 
0 367 353 
0 397 847 
0 403 1681 
0 403 1550 
0 431 1434 
0 413 1425 
0 380 295 
0 394 1406 
0 392 1843 
0 391 2019 
0 368 1336 
0 364 746 
0 364 2075 
0 369 657 
0 367 269 
0 365 746 
0 396 1346 
0 435 832 
0 408 2108 
0 408 1457 
0 408 925 
0 404 1216 
0 420 943 
0 425 98 
0 537 5 
0 537 729 
0 529 1116 
0 527 2029 
0 384 134 
0 382 153 
0 376 643 
0 374 1741 
0 543 160 
0 539 454 
0 394 2054 
0 390 1261 
0 388 172 
0 519 1963 
0 370 464 
0 551 1587 
0 551 499 
0 402 1636 
0 400 1587 
0 448 414 
0 436 1994 
0 436 537 
0 434 414 
0 434 90 
0 434 87 
0 559 1500 
0 555 1010 
0 478 834 
0 404 834 
0 404 1165 
0 577 1356 
0 577 599 
0 577 672 
0 428 1378 
0 426 1973 
0 426 1397 
0 424 1168 
0 420 1077 
0 418 1630 
0 412 876 
0 533 1830 
0 531 1373 
0 527 248 
0 527 2001 
0 543 315 
0 543 948 
0 541 358 
0 541 485 
0 539 1648 
0 523 971 
0 519 2051 
0 520 330 
0 553 1957 
0 553 520 
0 549 653 
0 547 1048 
0 550 546 
0 561 605 
0 559 424 
0 557 1753 
0 579 1294 
0 575 982 
0 573 1815 
0 563 8 
0 564 1779 
0 536 1085 
0 536 1035 
0 532 88 
0 530 99 
0 526 1724 
0 546 19 
0 546 760 
0 542 212 
0 539 169 
0 539 1453 
0 554 461 
0 554 363 
0 550 155 
0 550 62 
0 547 667 
0 547 1002 
0 588 580 
0 586 223 
0 586 1439 
0 589 1687 
0 587 198 
0 587 977 
0 560 1751 
0 558 840 
0 558 855 
0 556 504 
0 555 86 
0 582 687 
0 580 1577 
0 574 120 
0 570 513 
0 570 168 
0 567 907 
0 563 259 
0 563 1562 
0 572 1491 
0 1063 893 
0 1059 785 
0 1071 1022 
0 1071 210 
0 1069 80 
0 1065 115 
0 544 162 
0 1079 1793 
0 1079 1386 
0 1079 624 
0 1079 1968 
0 1077 1341 
0 1077 291 
0 1073 320 
0 1073 2061 
0 552 631 
0 1113 736 
0 1111 186 
0 1111 822 
0 1111 1112 
0 1087 341 
0 1089 1171 
0 1109 422 
0 1107 1962 
0 1105 23 
0 580 1179 
0 1091 1131 
0 1091 614 
0 564 67 
0 1053 221 
0 1053 1403 
0 1071 1604 
0 1067 431 
0 1051 1315 
0 1050 282 
0 1048 1288 
0 1044 78 
0 1079 428 
0 1078 1209 
0 1074 1109 
0 1111 1037 
0 1043 281 
0 1087 1599 
0 1084 174 
0 1103 654 
0 1101 1067 
0 1101 35 
0 1101 50 
0 1100 444 
0 1098 1194 
1 2590 1054 
0 1093 1402 
0 1092 1537 
0 1091 279 
0 1090 488 
0 1063 1240 
0 1062 31 
0 1062 1191 
0 1297 97 
0 1072 1182 
0 1050 1777 
0 1080 697 
0 1074 379 
0 1341 683 
0 1114 1007 
0 1114 852 
0 1111 430 
0 1088 94 
0 1086 1414 
0 1084 1772 
0 1082 1519 
0 1082 292 
0 1106 1350 
0 1104 238 
0 1100 301 
0 1317 47 
0 1096 608 
0 1095 1447 
0 1092 346 
0 1090 255 
0 1285 1769 
0 1282 958 
0 1280 1570 
1 1410 518 
0 1297 858 
0 1301 404 
0 1313 147 
0 1311 593 
0 1309 722 
0 1309 1365 
0 1334 1184 
0 1333 220 
0 1330 494 
0 1319 1422 
0 1318 642 
0 1282 277 
0 149 1217 
