ITEM: TIMESTEP
3350000
ITEM: NUMBER OF ENTRIES
144
ITEM: BOX BOUNDS ff ff ff
-0.01 0.45
-0.15 0.15
-0.08 0.1
ITEM: ENTRIES c_pwc[1] c_pwc[2] c_pwc[3] 
0 930 281 
0 914 33 
0 798 33 
0 850 41 
0 885 41 
0 894 76 
0 854 348 
0 950 289 
1 1827 146 
1 1828 146 
1 1831 146 
1 1830 146 
1 1842 146 
1 1861 146 
1 1874 146 
1 1873 146 
1 1883 146 
1 1889 146 
1 530 146 
1 529 146 
1 1871 146 
1 1869 146 
1 1868 146 
1 1892 146 
1 1893 146 
1 1885 146 
1 527 146 
1 526 146 
1 541 146 
0 885 270 
0 885 48 
0 885 127 
0 885 52 
0 885 276 
0 885 351 
0 885 79 
0 885 39 
0 850 270 
0 850 48 
0 850 127 
0 850 52 
0 850 276 
0 850 351 
0 850 79 
0 851 39 
0 894 199 
0 894 378 
0 895 392 
1 2272 334 
1 2271 334 
0 961 40 
0 753 40 
0 886 15 
0 885 15 
0 850 15 
0 965 366 
0 899 405 
0 892 144 
0 893 324 
0 893 264 
0 373 345 
0 373 359 
0 399 397 
0 435 358 
0 365 35 
0 375 320 
0 392 94 
0 390 372 
0 391 376 
0 389 258 
0 368 148 
0 369 301 
0 366 341 
0 374 374 
0 402 292 
0 397 388 
0 438 71 
0 438 75 
0 436 180 
0 435 353 
0 433 151 
0 433 335 
0 409 255 
0 430 24 
0 426 200 
0 429 24 
0 427 214 
0 423 327 
0 412 96 
0 413 238 
0 531 31 
0 386 25 
0 384 11 
0 382 101 
0 398 150 
0 436 66 
0 436 112 
0 434 19 
0 583 219 
0 583 99 
0 406 2 
0 577 114 
0 577 77 
0 430 209 
0 424 239 
0 420 168 
0 567 57 
0 416 363 
0 537 232 
0 537 275 
0 533 307 
0 527 142 
0 527 65 
0 539 223 
0 525 89 
0 523 93 
0 549 98 
0 554 13 
0 589 304 
0 585 97 
0 581 17 
0 579 152 
0 575 130 
0 567 109 
0 530 160 
0 531 124 
0 529 106 
0 543 248 
0 524 67 
0 522 100 
0 523 325 
0 519 27 
0 553 119 
0 591 23 
0 576 190 
0 568 88 
0 571 28 
0 1061 113 
0 1055 50 
0 534 85 
0 1067 285 
0 1109 22 
0 1083 3 
0 1325 82 
