ITEM: TIMESTEP
10600000
ITEM: NUMBER OF ENTRIES
2972
ITEM: BOX BOUNDS ff ff ff
-0.01 0.45
-0.15 0.15
-0.08 0.1
ITEM: ENTRIES c_pwc[1] c_pwc[2] c_pwc[3] c_pwc[4] c_pwc[5] c_pwc[6] c_pwc[7] c_pwc[8] c_pwc[9] c_pwc[10] c_pwc[11] c_pwc[12] c_pwc[13] c_pwc[14] 
0 0 0 7.64122e-06 -5.57208e-06 7.46599e-06 0 776 7649 2.85546e-07 1.32398e-05 1.58705e-06 6.10626e-10 1.21489e-07 
0 0 0 -2.2156e-06 -1.23244e-06 -3.902e-06 0 776 7937 -7.86117e-07 8.95358e-06 2.77445e-06 4.71083e-10 9.37244e-08 
0 0 0 -1.0982e-05 1.29391e-06 -2.31403e-06 0 776 5540 8.95376e-08 1.26688e-05 3.34542e-06 5.94338e-10 1.18248e-07 
0 0 0 -1.18374e-05 1.6396e-06 -2.91326e-07 0 776 1200 -9.90475e-08 5.43797e-06 1.37489e-07 3.38448e-10 6.7335e-08 
0 0 0 -6.70457e-08 -2.74454e-07 2.52444e-06 0 776 1871 3.11817e-06 1.20973e-05 -1.70351e-06 5.76007e-10 1.14601e-07 
0 0 0 1.47391e-06 5.81902e-07 1.78154e-06 0 776 1972 4.63264e-07 1.11487e-05 -2.52913e-06 5.45672e-10 1.08565e-07 
0 0 0 4.40634e-06 -5.18566e-07 -5.22046e-06 0 776 733 7.17822e-07 1.21864e-05 -1.66707e-06 5.78782e-10 1.15153e-07 
0 0 0 3.53264e-06 -3.49335e-07 2.06229e-06 0 776 10595 -5.36484e-07 1.11897e-05 1.9548e-06 5.46808e-10 1.08791e-07 
0 0 0 -1.87307e-05 -6.73966e-06 1.36757e-07 0 776 894 1.90681e-07 1.07798e-05 1.27729e-06 5.31991e-10 1.05843e-07 
0 0 0 -8.64348e-06 -5.63063e-07 -6.09615e-07 0 776 9680 2.13192e-07 7.20577e-06 -1.6272e-06 4.07697e-10 8.11128e-08 
0 0 0 4.0712e-06 1.61427e-06 4.93142e-07 0 776 414 -3.60014e-07 1.22563e-05 -3.05899e-06 5.81442e-10 1.15683e-07 
0 0 0 1.51127e-06 -2.8693e-07 -6.90634e-06 0 776 206 -7.80806e-08 5.35491e-06 -1.38568e-06 3.34532e-10 6.65558e-08 
0 0 0 -1.8493e-05 -1.15046e-06 7.23991e-06 0 776 1894 2.83755e-10 1.05269e-05 4.81895e-10 5.2482e-10 1.04416e-07 
0 0 0 4.11885e-05 -2.58544e-06 -1.6959e-06 0 776 4413 -7.34716e-08 9.60046e-06 -2.20097e-06 4.93226e-10 9.81301e-08 
0 0 0 -4.24597e-05 2.75431e-06 -8.12843e-06 0 776 9977 -2.45558e-11 1.36183e-05 -1.11446e-06 6.2396e-10 1.24143e-07 
0 0 0 -2.10327e-05 1.59064e-08 -1.49748e-05 0 776 1225 -5.11483e-07 8.61859e-06 1.19053e-06 4.5953e-10 9.14257e-08 
0 0 0 2.13628e-07 1.53928e-06 -1.49505e-05 0 776 3512 3.7104e-08 1.03125e-05 -1.5609e-06 5.18249e-10 1.03109e-07 
0 0 0 1.03765e-05 -2.19751e-06 -8.53757e-06 0 776 690 2.85111e-07 1.27687e-05 4.29031e-07 5.96727e-10 1.18724e-07 
0 0 0 3.48326e-06 1.47684e-06 -1.25436e-05 0 776 280 -8.8749e-07 1.38782e-05 -6.47939e-08 6.316e-10 1.25663e-07 
0 0 0 2.40893e-05 6.04707e-06 1.72138e-05 0 776 2352 -1.31897e-07 1.19956e-05 1.3612e-06 5.74114e-10 1.14224e-07 
0 0 0 -9.16842e-05 -3.63509e-06 -4.82634e-07 0 776 5611 5.45869e-08 1.13282e-05 -5.3433e-07 5.50609e-10 1.09548e-07 
0 0 0 1.55952e-05 2.56399e-06 2.53027e-06 0 776 9269 -5.53565e-07 1.09491e-05 3.51372e-07 5.39567e-10 1.07351e-07 
0 0 0 4.04872e-06 -1.12822e-06 2.95767e-06 0 776 6408 1.90439e-07 8.51716e-06 -2.0327e-07 4.55661e-10 9.0656e-08 
0 0 0 2.38036e-05 3.07902e-06 -3.48887e-05 0 776 101 -9.01093e-07 1.21662e-05 -6.29992e-07 5.78901e-10 1.15177e-07 
0 0 0 -5.96265e-06 -6.83057e-07 1.05186e-05 0 776 317 7.08582e-07 9.2835e-06 4.54126e-07 4.82714e-10 9.60387e-08 
0 0 0 9.08588e-07 -3.90685e-08 -2.11501e-05 0 776 1705 -1.51773e-06 6.19442e-06 -4.88861e-07 3.68706e-10 7.33551e-08 
0 0 0 9.54274e-05 -2.1425e-06 6.83651e-06 0 776 8455 -3.13311e-07 1.28843e-05 2.91207e-06 6.00335e-10 1.19442e-07 
0 0 0 -4.934e-07 -7.99887e-07 3.42017e-06 0 776 11208 1.23834e-06 1.14939e-05 4.61302e-06 5.56578e-10 1.10735e-07 
0 0 0 -3.35993e-06 -1.25358e-06 3.10693e-06 0 776 553 -1.3627e-07 1.05021e-05 -2.19432e-07 5.23972e-10 1.04248e-07 
0 0 0 1.70393e-05 1.23298e-07 -1.79294e-05 0 776 585 3.82344e-07 1.0325e-05 -1.45308e-07 5.18361e-10 1.03131e-07 
0 0 0 3.30437e-06 6.38837e-06 -4.32083e-06 0 776 2069 -1.19282e-06 1.009e-05 1.46108e-07 5.1183e-10 1.01832e-07 
0 0 0 -4.3326e-05 -6.48235e-07 1.8075e-05 0 776 531 -5.1772e-06 1.18541e-05 -2.17024e-06 5.68182e-10 1.13044e-07 
0 0 0 -2.92218e-05 3.79637e-12 -0.000149379 0 776 10613 -3.87252e-21 1.05196e-05 1.87185e-20 5.24825e-10 1.04417e-07 
0 0 0 2.47552e-06 2.57979e-06 5.77254e-07 0 776 6702 2.90057e-06 8.7265e-06 1.6436e-06 4.6393e-10 9.23012e-08 
0 0 0 1.49467e-05 4.56475e-06 6.25862e-06 0 776 1002 -8.52903e-07 1.22265e-05 3.44364e-06 5.81122e-10 1.15619e-07 
0 0 0 1.23204e-05 -2.14062e-06 1.15123e-05 0 776 1470 -1.38895e-06 4.7559e-06 -5.18258e-07 3.08631e-10 6.14025e-08 
0 0 0 -8.94663e-05 -8.54752e-06 5.41401e-06 0 776 154 -1.55848e-06 1.46413e-05 -3.08504e-06 6.52478e-10 1.29817e-07 
0 0 0 -1.53285e-05 1.44143e-05 -1.68839e-05 0 776 1045 -9.46403e-07 1.73267e-05 2.19644e-07 7.34822e-10 1.46201e-07 
0 0 0 6.49812e-05 5.41314e-06 4.36873e-06 0 776 12304 1.88942e-08 8.96988e-06 -8.36887e-07 4.73132e-10 9.41321e-08 
0 0 0 4.69953e-07 5.21839e-06 -7.76256e-06 0 776 4634 6.8149e-07 1.04282e-05 -1.14782e-06 5.22914e-10 1.04037e-07 
0 0 0 6.8941e-06 9.88138e-06 -9.83396e-07 0 776 72 -8.29778e-08 1.21633e-05 8.02041e-07 5.80245e-10 1.15444e-07 
0 0 0 3.41694e-05 -9.06819e-06 8.28559e-05 0 776 4165 1.23245e-06 1.14469e-05 -4.47021e-07 5.53294e-10 1.10082e-07 
0 0 0 0.00106653 4.12537e-13 -7.02077e-05 0 776 1920 -6.4445e-20 1.05196e-05 4.0006e-21 5.24825e-10 1.04417e-07 
0 0 0 -1.29494e-05 2.35735e-05 -6.16905e-05 0 776 3087 -2.97433e-06 9.89743e-06 7.30349e-07 5.09078e-10 1.01284e-07 
0 0 0 3.22639e-05 -1.46014e-05 9.00734e-06 0 776 12917 -7.89618e-07 1.14227e-05 5.40389e-08 5.5133e-10 1.09691e-07 
0 0 0 2.43488e-06 -2.36799e-06 -8.58e-05 0 776 1063 -5.27698e-08 1.14194e-05 1.87801e-06 5.53834e-10 1.10189e-07 
0 0 0 1.08715e-05 6.85023e-07 9.76257e-05 0 776 4185 4.24905e-06 1.11294e-05 -4.15205e-07 5.45063e-10 1.08444e-07 
0 0 0 9.40464e-05 2.66843e-12 -0.000882031 0 776 4938 -5.6529e-21 1.05196e-05 1.5042e-19 5.24825e-10 1.04417e-07 
0 0 0 -1.54438e-05 -1.05733e-05 -8.42768e-05 0 776 18 -1.61961e-06 1.37232e-05 8.54732e-07 6.24398e-10 1.2423e-07 
0 0 0 2.24969e-05 3.836e-06 -3.21346e-05 0 776 10360 1.26695e-06 1.45067e-05 2.08603e-06 6.50999e-10 1.29523e-07 
0 0 0 -3.72555e-05 -7.56022e-08 -2.88134e-05 0 776 9715 -8.81073e-07 4.50509e-06 9.11903e-07 2.98174e-10 5.9322e-08 
0 0 0 1.71141e-05 2.9612e-06 -2.2748e-05 0 776 4095 3.31187e-06 1.20486e-05 6.79902e-07 5.75146e-10 1.1443e-07 
0 0 0 -1.07615e-06 -8.38813e-06 -1.02593e-05 0 776 1367 -3.75464e-07 8.30511e-06 3.27229e-06 4.46427e-10 8.88187e-08 
0 0 0 -5.48895e-05 -1.81145e-06 -3.66275e-05 0 776 1036 -2.57941e-07 1.09355e-05 3.18812e-06 5.38178e-10 1.07074e-07 
0 0 0 2.53035e-05 3.88065e-06 -1.53487e-05 0 776 6544 -1.8999e-06 1.4645e-05 4.04484e-06 6.55131e-10 1.30345e-07 
0 0 0 0.00034154 -2.64903e-12 0.000805569 0 776 12116 3.61801e-20 1.05196e-05 1.50402e-19 5.24825e-10 1.04417e-07 
0 0 0 1.08109e-05 3.94899e-07 8.16769e-05 0 776 12691 -2.38125e-06 8.55362e-06 3.24796e-06 4.57302e-10 9.09826e-08 
0 0 0 0.00132495 5.08545e-12 -0.000176607 0 776 8603 -6.47643e-20 1.05196e-05 1.88847e-20 5.24825e-10 1.04417e-07 
0 0 0 -0.00050101 3.65917e-12 -0.000845096 0 776 9639 6.94159e-20 1.05196e-05 1.4475e-19 5.24825e-10 1.04417e-07 
0 0 0 -1.67265e-05 -7.41785e-06 -2.52572e-05 0 776 7185 2.5812e-07 1.42285e-05 2.28039e-07 6.40347e-10 1.27403e-07 
0 0 0 0.000108561 4.33153e-06 8.49059e-06 0 776 4532 -1.12648e-06 6.6811e-06 -1.51121e-06 3.88794e-10 7.73518e-08 
0 0 0 1.60028e-05 -2.54902e-06 1.54648e-05 0 776 14724 -3.27397e-06 1.13334e-05 3.31059e-06 5.5101e-10 1.09628e-07 
0 0 0 -3.27032e-05 -7.34037e-06 2.80673e-05 0 776 9279 -8.92233e-07 6.84236e-06 4.95959e-08 3.92291e-10 7.80476e-08 
0 0 0 -1.71584e-05 -1.28714e-05 9.12992e-06 0 776 3983 -3.07346e-07 1.33087e-05 1.80405e-06 6.11227e-10 1.21609e-07 
0 0 0 -3.15082e-05 -1.13368e-05 -9.90276e-06 0 776 3427 -5.81608e-07 5.47475e-06 8.31325e-07 3.36839e-10 6.70148e-08 
0 0 0 0.00028562 -5.22719e-12 -5.70268e-05 0 776 1118 3.7436e-20 1.05196e-05 -9.4004e-21 5.24825e-10 1.04417e-07 
0 0 0 -7.64522e-05 1.00903e-05 -4.51712e-05 0 776 10496 -1.92359e-06 1.54049e-05 -8.8291e-08 6.78827e-10 1.3506e-07 
0 0 0 -0.000275608 1.86275e-12 -0.000324457 0 776 9160 8.43657e-21 1.05196e-05 8.28592e-21 5.24825e-10 1.04417e-07 
0 0 0 1.24654e-05 9.11894e-08 -6.223e-05 0 776 7286 -3.62339e-06 9.96517e-06 -1.68792e-06 5.06241e-10 1.0072e-07 
0 0 0 -0.000275525 -3.93138e-13 0.000143196 0 776 7431 -3.44432e-20 1.05196e-05 1.71608e-20 5.24825e-10 1.04417e-07 
0 0 0 -4.01122e-05 1.53056e-06 3.67139e-05 0 776 1366 2.45788e-07 1.43412e-05 1.85204e-06 6.45573e-10 1.28443e-07 
0 0 0 0.000110328 -8.74727e-07 0.000170711 0 776 10907 -3.15743e-07 1.0214e-05 2.16152e-07 5.14421e-10 1.02347e-07 
0 0 0 -0.000131294 -2.21061e-06 3.61938e-05 0 776 7764 1.44725e-08 1.04642e-05 9.92111e-09 5.22505e-10 1.03956e-07 
0 0 0 -1.66505e-05 -8.85341e-06 -8.79657e-05 0 776 5560 -1.49533e-06 1.03184e-05 4.48382e-07 5.1619e-10 1.02699e-07 
0 0 0 7.94959e-05 6.46974e-06 -9.33325e-05 0 776 215 -1.8848e-06 1.12338e-05 -1.92919e-06 5.49703e-10 1.09367e-07 
0 0 0 -3.61743e-05 1.02386e-05 -5.58084e-05 0 776 1887 -1.22806e-06 1.03426e-05 2.67253e-07 5.21146e-10 1.03685e-07 
0 0 0 -1.64161e-05 1.56729e-05 1.99981e-05 0 776 3630 -2.06916e-06 1.56022e-05 2.72368e-07 6.85723e-10 1.36432e-07 
0 0 0 5.6459e-05 7.75162e-06 -6.7558e-05 0 776 4164 3.97653e-07 5.88084e-06 7.29976e-07 3.58013e-10 7.12277e-08 
0 0 0 6.94351e-05 5.55547e-06 -0.000101768 0 776 5953 -6.79892e-09 1.05539e-05 4.08156e-08 5.27168e-10 1.04884e-07 
0 0 0 7.03569e-05 6.88934e-07 -0.00017172 0 776 11531 -5.51847e-09 1.0498e-05 -1.37707e-08 5.24255e-10 1.04304e-07 
0 0 0 1.14725e-06 3.66753e-06 -3.08838e-06 0 776 12872 -2.14845e-06 1.12202e-05 -7.52736e-07 5.48659e-10 1.0916e-07 
0 0 0 -0.00011781 -3.49963e-06 2.96073e-05 0 776 11571 -3.31601e-09 1.05981e-05 -1.73932e-09 5.26678e-10 1.04786e-07 
0 0 0 1.65618e-05 1.03453e-05 3.68268e-05 0 776 7844 -2.56698e-06 9.90854e-06 3.85613e-07 5.06563e-10 1.00784e-07 
0 0 0 0.000210363 1.98793e-07 -0.000207632 0 776 14434 -2.91715e-12 1.05201e-05 3.02449e-13 5.24885e-10 1.04429e-07 
0 0 0 -2.99389e-06 -1.17623e-06 -2.62736e-05 0 776 7893 -9.81125e-07 1.11921e-05 1.87877e-07 5.46707e-10 1.08771e-07 
0 0 0 4.38774e-05 -3.08335e-06 5.09465e-05 0 776 634 5.603e-09 1.0527e-05 -6.30928e-09 5.24405e-10 1.04334e-07 
0 0 0 3.29797e-05 1.18365e-05 -9.22437e-05 0 776 7313 -3.51978e-07 1.11099e-05 2.19138e-07 5.46817e-10 1.08793e-07 
0 0 0 3.17256e-05 1.26754e-06 -7.74914e-06 0 776 5950 -2.69951e-07 1.11156e-05 -1.99698e-07 5.44736e-10 1.08379e-07 
0 0 0 1.14961e-05 -9.61257e-06 5.19581e-06 0 776 4298 -1.87829e-06 1.13333e-05 6.08741e-07 5.49496e-10 1.09326e-07 
0 0 0 2.1327e-05 -5.73281e-06 5.10221e-05 0 776 5167 -2.70507e-07 1.06638e-05 -1.58244e-07 5.28372e-10 1.05123e-07 
0 0 0 0.000108773 8.38492e-06 1.83761e-05 0 776 10156 9.67502e-09 1.06909e-05 -1.08366e-07 5.32317e-10 1.05908e-07 
0 0 0 0.000119932 -5.35145e-07 -1.04881e-05 0 776 9271 8.69874e-08 1.04939e-05 2.71384e-08 5.23854e-10 1.04224e-07 
0 0 0 -5.78236e-06 5.32435e-07 2.14982e-05 0 776 3509 -2.19024e-07 9.97891e-06 1.27065e-07 5.06802e-10 1.00831e-07 
0 0 0 1.16879e-05 4.2242e-06 1.17746e-05 0 776 14186 7.29252e-08 1.09294e-05 8.50027e-10 5.39277e-10 1.07293e-07 
0 0 0 9.12054e-05 -4.9126e-06 -4.29466e-06 0 776 7053 -4.32108e-07 1.87162e-05 2.29863e-06 7.69609e-10 1.53123e-07 
0 0 0 1.27274e-05 -8.80964e-07 -1.50055e-05 0 776 8382 -1.83267e-07 2.09873e-05 -2.93609e-07 8.31538e-10 1.65446e-07 
0 0 0 3.43189e-05 6.71892e-06 6.79342e-06 0 776 2799 -7.89556e-07 3.10843e-06 1.02729e-06 2.34623e-10 4.66781e-08 
0 0 0 -6.55971e-05 -3.7284e-06 8.81667e-06 0 776 7390 3.01508e-08 1.0494e-05 -2.71657e-08 5.23167e-10 1.04087e-07 
0 0 0 0.000152365 -1.94889e-05 3.75344e-05 0 776 9615 -5.86479e-08 3.74145e-06 6.27538e-07 2.58454e-10 5.14195e-08 
0 0 0 1.93955e-05 8.00576e-06 3.97303e-05 0 776 7800 -1.09386e-07 1.0372e-05 2.04369e-08 5.21641e-10 1.03784e-07 
0 0 0 -2.50773e-06 -7.32952e-06 1.33598e-05 0 776 9721 2.58518e-07 1.08318e-05 2.05773e-07 5.33581e-10 1.0616e-07 
0 0 0 -9.39239e-05 4.466e-06 4.97464e-05 0 776 163 4.5487e-07 1.20575e-05 1.55122e-06 5.75747e-10 1.14549e-07 
0 0 0 0.000318763 2.24103e-05 -0.00024522 0 776 3286 -6.50545e-10 1.04656e-05 2.29859e-10 5.27882e-10 1.05026e-07 
0 0 0 3.1586e-05 -1.50252e-05 0.0002879 0 776 13004 1.58019e-11 1.05468e-05 -7.62779e-11 5.22479e-10 1.03951e-07 
0 0 0 -6.50137e-06 5.81817e-07 -3.12054e-06 0 776 9809 7.55361e-08 1.08581e-05 -9.48981e-08 5.36149e-10 1.06671e-07 
0 0 0 -0.000120856 6.2134e-12 6.11979e-05 0 776 5373 9.91638e-21 1.05196e-05 -4.97016e-21 5.24825e-10 1.04417e-07 
0 0 0 -4.39362e-05 -6.45034e-06 1.16498e-05 0 776 7750 2.02185e-07 1.07214e-05 -1.74463e-07 5.30124e-10 1.05472e-07 
0 0 0 -1.14112e-05 -4.16745e-07 -3.60049e-05 0 776 7121 -2.25111e-07 1.05259e-05 1.85357e-07 5.24946e-10 1.04441e-07 
0 0 0 6.04852e-05 3.30999e-06 7.28851e-05 0 776 1306 -7.62439e-10 1.01398e-05 -6.44433e-08 5.12837e-10 1.02032e-07 
0 0 0 0.000433943 4.60109e-06 -7.48422e-05 0 776 7072 -1.13779e-09 1.04535e-05 -8.14092e-09 5.23621e-10 1.04178e-07 
0 0 0 0.000126941 4.57917e-06 0.000245839 0 776 3631 1.42979e-07 1.03953e-05 -5.3135e-08 5.21677e-10 1.03791e-07 
0 0 0 -0.000168695 1.06453e-06 -3.03391e-05 0 776 4357 1.75591e-07 1.07074e-05 -3.41086e-07 5.31284e-10 1.05703e-07 
0 0 0 3.59546e-06 1.11568e-06 1.25662e-05 0 776 7846 1.07433e-07 1.06227e-05 7.09985e-08 5.28491e-10 1.05147e-07 
0 0 0 1.74838e-05 -3.0532e-06 1.34045e-05 0 776 9654 4.1592e-06 1.18089e-05 -1.01105e-06 5.66225e-10 1.12655e-07 
0 0 0 -3.86047e-06 -3.10667e-06 -8.51925e-06 0 776 6920 4.54035e-06 1.20319e-05 -3.25203e-06 5.7333e-10 1.14069e-07 
0 0 0 -1.07038e-05 -3.00937e-06 6.74492e-06 0 776 7763 4.07112e-07 1.09067e-05 -5.09466e-07 5.36976e-10 1.06835e-07 
0 0 0 3.04005e-05 2.71615e-06 2.97274e-05 0 776 7583 -6.07562e-07 5.25759e-06 7.71761e-07 3.31195e-10 6.58919e-08 
0 0 0 0.000215341 1.21821e-12 0.000130133 0 776 1352 -2.66839e-20 1.05196e-05 -1.87192e-20 5.24825e-10 1.04417e-07 
0 0 0 9.65484e-05 3.8697e-06 -1.66546e-05 0 776 9156 -1.90397e-07 1.22309e-05 -3.11124e-06 5.81115e-10 1.15617e-07 
0 0 0 8.19105e-07 3.06788e-06 2.31082e-06 0 776 6792 6.03136e-08 1.64444e-05 2.88506e-08 7.07507e-10 1.40766e-07 
0 0 0 3.4425e-05 -1.92014e-05 -0.000113995 0 776 1969 -3.46956e-07 1.09808e-05 -1.35794e-07 5.35928e-10 1.06627e-07 
0 0 0 1.86141e-05 -2.99412e-06 1.5044e-05 0 776 221 -9.95319e-07 3.87054e-06 9.21217e-07 2.68725e-10 5.3463e-08 
0 0 0 2.96157e-05 4.97618e-06 6.03625e-05 0 776 3055 -1.14894e-07 1.08437e-05 -3.21128e-07 5.3662e-10 1.06764e-07 
0 0 0 -2.77018e-05 1.23629e-05 -4.40084e-05 0 776 570 -1.89061e-06 1.18731e-05 1.6924e-06 5.71549e-10 1.13714e-07 
0 0 0 5.68829e-06 2.62398e-05 3.08375e-05 0 776 6387 -6.90484e-07 9.24274e-06 1.3817e-06 4.87254e-10 9.69419e-08 
0 0 0 -5.86704e-06 1.26616e-06 -1.51708e-05 0 776 8712 -3.53912e-06 1.47661e-05 -3.79172e-07 6.58199e-10 1.30955e-07 
0 0 0 2.77484e-06 1.57273e-06 -9.8635e-06 0 776 6055 -1.33279e-06 1.15944e-05 -2.00531e-06 5.60324e-10 1.11481e-07 
0 0 0 3.22042e-06 -3.15403e-06 -4.8526e-06 0 776 8814 2.60625e-07 1.3074e-05 9.51387e-07 6.06009e-10 1.20571e-07 
0 0 0 -5.52516e-05 -8.87056e-07 -6.92371e-06 0 776 8088 4.07993e-07 1.2394e-05 4.61058e-06 5.8526e-10 1.16442e-07 
0 0 0 0.000118008 -7.56373e-11 -0.000323253 0 776 8325 -2.28701e-18 1.05196e-05 6.2603e-18 5.24824e-10 1.04417e-07 
0 0 0 0.00023545 -2.00449e-12 0.000207673 0 776 4008 3.94082e-21 1.05196e-05 7.23085e-21 5.24825e-10 1.04417e-07 
0 0 0 -6.06962e-06 -2.7981e-06 -9.06744e-06 0 776 2925 4.5209e-07 1.02267e-05 -3.92677e-06 5.14431e-10 1.02349e-07 
0 0 0 -9.23534e-07 3.49339e-06 -3.35797e-06 0 776 7454 -1.13977e-06 1.27654e-05 -1.65909e-06 5.97816e-10 1.18941e-07 
0 0 0 -4.44055e-05 -5.94604e-06 9.66321e-06 0 776 3905 3.5435e-08 1.14241e-05 1.38417e-07 5.53223e-10 1.10068e-07 
0 0 0 -7.03438e-06 -4.4207e-06 -3.57656e-06 0 776 5213 -1.46533e-07 6.57156e-06 1.4487e-06 3.82498e-10 7.60991e-08 
0 0 0 9.14355e-06 7.08479e-07 -1.07336e-05 0 776 1376 4.73247e-07 1.32434e-05 3.4049e-06 6.12044e-10 1.21772e-07 
0 0 0 -2.55387e-05 2.44663e-06 5.3628e-06 0 776 6636 5.94342e-07 7.97587e-06 3.30238e-06 4.36942e-10 8.69317e-08 
0 0 0 -0.000217136 -2.64903e-12 -0.000154301 0 776 7120 -1.71184e-20 1.05196e-05 -1.35824e-21 5.24825e-10 1.04417e-07 
0 0 0 -3.20953e-08 4.78801e-06 1.04688e-06 0 776 2205 -1.52631e-07 1.04493e-05 2.79305e-07 5.23524e-10 1.04159e-07 
0 0 0 -2.64797e-05 6.0127e-06 2.70805e-05 0 776 382 1.42829e-07 1.09543e-05 4.94946e-07 5.40478e-10 1.07532e-07 
0 0 0 -3.15569e-05 5.99169e-06 1.06797e-05 0 776 4654 4.75118e-07 1.37285e-05 1.86987e-06 6.27988e-10 1.24944e-07 
0 0 0 2.9478e-05 -1.34851e-06 -1.32757e-07 0 776 4821 -1.48701e-07 1.06759e-05 2.95772e-07 5.29721e-10 1.05392e-07 
0 0 0 3.04548e-06 -3.12947e-06 -3.97329e-06 0 776 4483 -1.73538e-08 1.05039e-05 4.98874e-08 5.23625e-10 1.04179e-07 
0 0 0 1.10388e-05 2.61415e-07 -1.74778e-05 0 776 3641 9.00628e-07 1.16113e-05 7.371e-07 5.60587e-10 1.11533e-07 
0 0 0 6.20224e-05 7.57753e-07 -0.00010859 0 776 758 1.07286e-08 1.04504e-05 -4.34154e-09 5.22686e-10 1.03992e-07 
0 0 0 -8.29335e-05 -2.68846e-12 4.36374e-05 0 776 112 -9.39979e-21 1.05196e-05 4.69924e-21 5.24825e-10 1.04417e-07 
0 0 0 1.29409e-05 -5.36237e-08 -1.0145e-05 0 776 7706 8.87383e-07 1.19448e-05 1.20408e-06 5.71204e-10 1.13645e-07 
0 0 0 4.5218e-06 2.2601e-06 3.25998e-06 0 776 3393 8.38305e-07 1.5114e-05 2.83188e-06 6.68694e-10 1.33043e-07 
0 0 0 1.5969e-05 7.17692e-07 4.68015e-06 0 776 39 1.86104e-06 7.6765e-06 4.15348e-09 4.25563e-10 8.46676e-08 
0 0 0 -4.81524e-06 2.18461e-06 -5.88673e-06 0 776 7811 1.30658e-06 9.30939e-06 6.17227e-07 4.84245e-10 9.63433e-08 
0 0 0 -4.19283e-06 -1.01206e-06 3.72706e-06 0 776 9095 3.83498e-07 1.01465e-05 9.65502e-07 5.12122e-10 1.0189e-07 
0 0 0 -1.0575e-05 -7.90418e-07 6.82265e-06 0 776 5889 -2.47776e-06 9.1528e-06 -3.07341e-06 4.78148e-10 9.51301e-08 
0 0 0 -0.00108283 -0.000212154 0.00115767 0 778 16349 4.5054e-07 1.06272e-05 2.05495e-06 5.35796e-10 1.066e-07 
0 0 0 -0.00154034 -4.14829e-05 0.000305313 0 778 14170 -5.28861e-08 9.42305e-06 1.08971e-06 4.92439e-10 9.79737e-08 
0 0 0 -5.34349e-05 -1.53348e-05 7.54828e-06 0 778 12757 -3.32021e-07 9.95448e-06 6.39438e-07 5.01104e-10 9.96976e-08 
0 0 0 -4.44026e-05 -6.00393e-06 5.18478e-06 0 778 3129 2.95194e-07 1.12345e-05 1.28422e-06 5.48736e-10 1.09175e-07 
0 0 0 0.000494173 -0.0001142 0.000599694 0 778 7470 8.51996e-07 1.03635e-05 1.22675e-06 5.2081e-10 1.03619e-07 
0 0 0 0.000137545 -1.14613e-05 -7.67176e-05 0 778 4719 2.33684e-07 9.81249e-06 2.40941e-06 5.04849e-10 1.00443e-07 
0 0 0 -2.0517e-05 1.28229e-05 -3.99196e-05 0 778 15555 -1.02234e-06 1.21098e-05 6.51748e-06 6.08607e-10 1.21088e-07 
0 0 0 1.71237e-05 1.12603e-05 -6.93582e-06 0 778 7654 7.38435e-07 4.16036e-06 1.44313e-06 2.93974e-10 5.84865e-08 
0 0 0 -2.8578e-05 4.67155e-06 -8.69742e-06 0 778 8040 8.2085e-07 1.5601e-05 1.12031e-06 6.81371e-10 1.35566e-07 
0 0 0 7.89617e-05 1.64238e-05 -5.79346e-06 0 778 14527 -7.56745e-07 1.08973e-05 2.43562e-06 5.49123e-10 1.09252e-07 
0 0 0 -8.45609e-05 -8.76698e-08 1.9549e-05 0 778 17336 5.11144e-07 1.1715e-05 3.84928e-06 5.80783e-10 1.15551e-07 
0 0 0 3.44067e-05 -1.44219e-05 6.23719e-06 0 778 14580 -3.17722e-07 9.38811e-06 2.9316e-06 4.9663e-10 9.88076e-08 
0 0 0 2.67411e-05 -2.0059e-06 -1.94823e-05 0 778 5338 -1.53317e-08 1.01863e-05 1.72364e-06 5.17282e-10 1.02917e-07 
0 0 0 -7.82778e-06 6.78239e-06 -2.17707e-05 0 778 15828 1.59875e-06 1.03965e-05 1.94918e-06 5.2733e-10 1.04916e-07 
0 0 0 -7.78299e-05 -5.99233e-07 1.4452e-05 0 778 14360 3.0657e-08 9.86002e-06 1.22813e-06 5.05067e-10 1.00486e-07 
0 0 0 0.0273881 -0.00801721 0.0428883 0 778 988 -3.95471e-18 1.02659e-05 1.35713e-06 5.18851e-10 1.03229e-07 
0 0 0 1.21893e-06 7.73455e-06 -2.61289e-05 0 778 15381 1.35546e-06 1.01295e-05 1.20485e-06 5.14027e-10 1.02269e-07 
0 0 0 -3.31235e-05 6.43432e-06 -9.06615e-06 0 778 12332 7.89823e-07 1.06095e-05 1.26149e-06 5.30514e-10 1.05549e-07 
0 0 0 4.42154e-05 -9.56838e-06 1.48186e-05 0 778 8467 7.57026e-07 9.1138e-06 1.47081e-06 4.79491e-10 9.53975e-08 
0 0 0 -5.51532e-06 -4.60349e-07 3.00409e-07 0 778 17589 2.51333e-07 9.89276e-06 1.33298e-06 5.06272e-10 1.00726e-07 
0 0 0 -0.0149235 -0.00290805 0.0155567 0 778 13923 5.66972e-19 1.02659e-05 1.35713e-06 5.18851e-10 1.03229e-07 
0 0 0 -0.000392645 6.58137e-05 -0.000282811 0 778 14539 1.6401e-06 1.19941e-05 3.5503e-06 5.89644e-10 1.17314e-07 
0 0 0 0.000805903 -4.25455e-05 0.000249878 0 778 752 -3.22412e-07 1.09156e-05 2.8258e-06 5.49688e-10 1.09364e-07 
0 0 0 -4.09974e-05 -2.01295e-05 -2.16737e-06 0 778 16821 5.63798e-07 1.23283e-05 4.67109e-06 5.99434e-10 1.19262e-07 
0 0 0 0.00108683 -0.000404763 0.00216438 0 778 15203 -9.70823e-08 1.0217e-05 1.50885e-06 5.1814e-10 1.03087e-07 
0 0 0 1.28424e-05 0.000110665 -0.000736471 0 778 12335 3.00415e-06 9.27698e-06 3.76882e-06 4.95193e-10 9.85215e-08 
0 0 0 -0.00158164 0.000117162 -0.00045438 0 778 15785 1.11164e-06 1.32798e-05 4.41636e-07 6.15155e-10 1.2239e-07 
0 0 0 0.00392881 0.000135912 -0.000329307 0 778 13645 -2.57254e-07 5.72194e-06 8.14047e-07 3.69322e-10 7.34776e-08 
0 0 0 -0.000399451 -1.65594e-05 0.000146185 0 778 2108 7.95049e-06 7.41385e-06 -1.77339e-06 4.01021e-10 7.97846e-08 
0 0 0 0.0174422 -0.00217233 0.0116692 0 778 11974 -3.47791e-07 1.05769e-05 2.01162e-06 5.34915e-10 1.06425e-07 
0 0 0 -0.000547718 -0.000290785 0.00153776 0 778 7967 3.58144e-06 1.31038e-05 3.15492e-06 6.17883e-10 1.22933e-07 
0 0 0 -0.00481614 -0.000112082 0.00056762 0 778 16369 -6.64269e-08 9.81926e-06 1.31292e-06 5.025e-10 9.99755e-08 
0 0 0 0.0155142 -0.00302779 0.0161966 0 778 18001 -5.23483e-13 1.02666e-05 1.35727e-06 5.18849e-10 1.03228e-07 
0 0 0 2.08325e-05 -1.25341e-05 3.78883e-05 0 778 13527 6.80854e-07 5.01839e-06 2.27278e-06 3.33122e-10 6.62753e-08 
0 0 0 7.50602e-05 -1.78456e-06 -5.42024e-06 0 778 1637 -2.16046e-07 8.52554e-06 3.91685e-07 4.52981e-10 9.01228e-08 
0 0 0 0.00457815 0.000143317 -0.000693658 0 778 13872 -1.29615e-07 9.36451e-06 1.12002e-06 4.9023e-10 9.7534e-08 
0 0 0 -8.13539e-06 -2.55387e-05 3.72972e-06 0 778 17147 -8.28996e-07 1.00761e-05 1.14638e-06 5.0597e-10 1.00666e-07 
0 0 0 7.86623e-05 2.99345e-05 -3.61256e-05 0 778 13175 -4.29559e-06 1.06322e-05 -8.90954e-07 5.22026e-10 1.03861e-07 
0 0 0 0.0380922 -0.00498528 0.0266688 0 778 702 -1.40839e-17 1.02659e-05 1.35713e-06 5.18851e-10 1.03229e-07 
0 0 0 0.000103332 -2.44378e-05 0.000233682 0 778 18396 -1.00521e-06 9.99951e-06 2.21229e-06 5.19456e-10 1.03349e-07 
0 0 0 2.99184e-05 2.44071e-07 -5.2187e-05 0 778 15517 -1.79363e-06 9.76641e-06 1.96064e-06 5.04017e-10 1.00277e-07 
0 0 0 9.91325e-05 9.31477e-06 2.49744e-05 0 778 5892 -2.45585e-06 1.25005e-05 -1.07647e-06 5.78735e-10 1.15144e-07 
0 0 0 7.08523e-05 -3.3389e-05 0.000112264 0 778 13193 -7.64763e-07 1.02063e-05 8.69966e-07 5.11232e-10 1.01713e-07 
0 0 0 -6.48064e-06 -3.03757e-05 0.000115023 0 778 16168 -8.69421e-07 1.26902e-05 9.39909e-07 5.91551e-10 1.17694e-07 
0 0 0 5.18356e-05 -2.73081e-05 0.000182169 0 778 5399 2.75461e-07 9.56948e-06 1.33163e-06 4.96989e-10 9.88788e-08 
0 0 0 -0.00302766 0.000442752 -0.00236857 0 778 3783 7.60157e-09 1.01439e-05 2.02259e-06 5.18929e-10 1.03244e-07 
0 0 0 0.00124251 7.11144e-05 -0.000351044 0 778 17453 -1.97438e-08 1.0193e-05 2.03988e-06 5.21822e-10 1.0382e-07 
0 0 0 -1.87167e-05 3.04908e-06 2.1996e-05 0 778 10441 1.40564e-06 9.55498e-06 1.7972e-06 4.99514e-10 9.93813e-08 
0 0 0 2.00845e-05 -3.13202e-06 4.05924e-05 0 778 15806 -1.0996e-06 1.02155e-05 -1.62543e-07 5.08751e-10 1.01219e-07 
0 0 0 0.000453086 -4.76393e-05 0.000208036 0 778 12749 5.80985e-07 1.03183e-05 5.4173e-07 5.13689e-10 1.02202e-07 
0 0 0 4.5641e-05 -5.38359e-06 -1.11634e-05 0 778 9574 -8.03922e-07 8.43419e-06 -6.26894e-07 4.41978e-10 8.79335e-08 
0 0 0 -0.0172064 0.000671245 -0.00354129 0 778 17465 -1.12117e-07 9.47967e-06 1.13068e-06 4.93241e-10 9.81333e-08 
0 0 0 -0.00635271 -0.00110486 0.00583577 0 778 2010 3.01663e-07 9.95883e-06 1.75466e-06 5.08179e-10 1.01105e-07 
0 0 0 -2.47835e-05 -1.11589e-05 2.52317e-06 0 778 7627 4.5791e-07 1.08015e-05 2.39804e-06 5.40334e-10 1.07503e-07 
0 0 0 -2.25298e-05 6.98966e-06 -9.67714e-05 0 778 17720 -1.74075e-08 9.36446e-06 6.27405e-07 4.81731e-10 9.5843e-08 
0 0 0 -0.000118856 -6.52206e-06 6.31749e-05 0 778 15618 2.15263e-06 1.22278e-05 4.00687e-06 5.97876e-10 1.18953e-07 
0 0 0 0.0109365 -0.000131584 0.00106941 0 778 9644 7.82077e-08 7.90712e-06 6.01577e-07 4.48245e-10 8.91806e-08 
0 0 0 -0.0001665 -9.8064e-05 -0.000233395 0 778 1903 1.88545e-06 1.47737e-05 2.87503e-06 6.37964e-10 1.26929e-07 
0 0 0 0.00039107 -7.65313e-05 -0.000236682 0 778 874 -9.60442e-07 1.12149e-05 1.74304e-06 5.26536e-10 1.04758e-07 
0 0 0 -9.46086e-05 8.31952e-05 -0.000129654 0 778 658 -1.36019e-06 9.47004e-06 2.63618e-06 5.13073e-10 1.02079e-07 
0 0 0 -0.00891865 0.000527502 -0.00268929 0 778 11428 -3.22308e-07 9.33151e-06 2.78882e-06 5.02037e-10 9.98833e-08 
0 0 0 -0.000552408 5.67865e-06 -0.000176101 0 778 4132 -6.7265e-07 1.2026e-05 3.32049e-06 5.80986e-10 1.15592e-07 
0 0 0 6.23666e-06 1.98698e-05 -5.23923e-05 0 778 16870 -2.96406e-06 1.13152e-05 1.7813e-06 5.5744e-10 1.10907e-07 
0 0 0 -0.00337947 0.000552177 -0.00288514 0 778 17490 5.33739e-08 9.92295e-06 1.27907e-06 5.09785e-10 1.01425e-07 
0 0 0 0.00218899 -0.000162011 0.000833963 0 778 9557 -1.87209e-06 1.30934e-05 6.3548e-06 6.34894e-10 1.26318e-07 
0 0 0 -0.00329539 0.00036044 -0.00179165 0 778 17917 -5.03208e-08 1.02753e-05 1.36539e-06 5.24656e-10 1.04384e-07 
0 0 0 0.000679637 0.000173714 -0.000774763 0 778 18020 -5.26726e-07 1.04553e-05 1.97694e-06 5.34973e-10 1.06437e-07 
0 0 0 -0.00394974 -0.000197089 0.00282147 0 778 15694 -3.42387e-08 3.96932e-06 9.20258e-08 3.5427e-10 7.04829e-08 
0 0 0 -0.000546968 -0.000100457 0.000366372 0 778 15810 3.24571e-07 1.05351e-05 1.68985e-06 5.22904e-10 1.04035e-07 
0 0 0 0.00756003 0.000960154 -0.00515615 0 778 6537 7.57705e-09 1.0034e-05 1.69291e-06 5.12484e-10 1.01962e-07 
0 0 0 4.30519e-05 -5.61657e-06 3.43334e-06 0 778 8211 -8.34639e-07 1.13571e-05 6.75058e-07 5.49026e-10 1.09233e-07 
0 0 0 -0.00111605 -0.000125052 0.00066846 0 778 14062 7.38353e-09 1.01183e-05 2.08792e-06 5.1847e-10 1.03153e-07 
0 0 0 -2.34683e-05 -1.3216e-05 2.75857e-05 0 778 5801 8.53653e-07 9.39063e-06 1.33984e-06 4.87805e-10 9.70515e-08 
0 0 0 5.04919e-05 -4.40767e-05 0.000220803 0 778 1313 -2.77261e-08 1.01305e-05 1.35654e-06 5.13786e-10 1.02221e-07 
0 0 0 0.000221591 -1.82042e-05 0.00016821 0 778 15188 -7.88298e-07 1.13074e-05 2.92222e-06 5.64605e-10 1.12332e-07 
0 0 0 -6.0413e-05 -1.45153e-06 9.07506e-07 0 778 338 -5.39921e-07 1.03993e-05 3.48514e-06 5.359e-10 1.06621e-07 
0 0 0 7.96038e-05 -2.37773e-05 0.0001272 0 778 8602 -2.46485e-08 1.01809e-05 1.81164e-06 5.18851e-10 1.03229e-07 
0 0 0 -4.51079e-05 1.72035e-05 -2.663e-05 0 778 7503 2.65979e-06 1.20374e-05 -5.01925e-07 5.67228e-10 1.12854e-07 
0 0 0 -6.2684e-06 2.61924e-06 -3.43321e-05 0 778 5232 1.30237e-06 7.2341e-06 -3.51527e-07 4.00925e-10 7.97654e-08 
0 0 0 8.97104e-06 3.61147e-07 9.37553e-08 0 778 4160 -1.38157e-06 9.57677e-06 2.97429e-06 5.06135e-10 1.00699e-07 
0 0 0 -0.0007058 -1.66814e-05 0.000186198 0 778 4777 -4.36716e-08 1.05438e-05 1.60578e-06 5.33312e-10 1.06106e-07 
0 0 0 8.89622e-05 -5.76644e-07 0.000100974 0 778 9184 4.80487e-07 1.29467e-05 3.09947e-06 6.17253e-10 1.22808e-07 
0 0 0 -1.64872e-05 -6.13429e-08 1.885e-05 0 778 4952 -1.23187e-07 1.31123e-05 5.58582e-06 6.33127e-10 1.25967e-07 
0 0 0 4.24246e-05 -2.41748e-06 4.00298e-06 0 778 924 1.80927e-06 8.88004e-06 2.11799e-06 4.76747e-10 9.48514e-08 
0 0 0 -2.11946e-05 1.44547e-07 -3.43139e-05 0 778 7257 3.24637e-07 1.09791e-05 2.57919e-06 5.48049e-10 1.09038e-07 
0 0 0 4.45974e-05 3.58026e-06 -2.13494e-05 0 778 13493 -8.00356e-07 7.20844e-06 3.79601e-08 4.03455e-10 8.02689e-08 
0 0 0 -1.52378e-05 5.04662e-06 -2.02265e-05 0 778 11962 -1.67122e-06 1.1551e-05 5.10567e-06 5.82507e-10 1.15894e-07 
0 0 0 2.20386e-05 -2.42843e-06 1.64126e-05 0 778 12382 -2.36346e-07 9.81157e-06 1.64553e-06 5.05738e-10 1.0062e-07 
0 0 0 -2.15029e-06 3.14612e-06 9.61322e-06 0 778 10116 -2.41316e-06 1.24413e-05 -6.66092e-07 5.77404e-10 1.14879e-07 
0 0 0 -0.129799 -0.0240086 0.0619733 0 780 16057 3.5246e-18 9.53905e-06 2.53098e-06 5.00925e-10 9.96621e-08 
0 0 0 -0.183312 -0.26513 0.428199 0 782 11726 1.88985e-12 8.4391e-06 3.36418e-06 4.71086e-10 9.37251e-08 
0 0 0 -0.168712 0.0180562 -0.0291618 0 782 5728 -2.17258e-18 8.43728e-06 3.363e-06 4.71018e-10 9.37115e-08 
0 0 0 3.75203e-06 1.89098e-06 1.93077e-05 0 775 210 4.01811e-07 9.96435e-06 -1.60865e-06 5.10081e-10 1.01484e-07 
0 0 0 -2.53909e-05 -1.17289e-06 -3.52846e-06 0 775 2116 -2.00016e-06 1.26512e-05 -5.71754e-07 5.89955e-10 1.17376e-07 
0 0 0 9.34241e-07 1.31896e-05 -2.44482e-05 0 775 12 -1.29305e-06 5.33317e-06 -2.98274e-06 3.56679e-10 7.09622e-08 
0 0 0 1.48384e-05 1.11095e-05 2.92417e-05 0 775 4248 -2.07473e-06 7.13287e-06 -4.44907e-07 4.04849e-10 8.05463e-08 
0 0 0 -2.4399e-05 -1.00088e-05 -5.93537e-05 0 775 3998 6.95068e-07 7.3261e-06 -1.4544e-06 4.17929e-10 8.31486e-08 
0 0 0 4.73173e-06 -6.50014e-06 2.04903e-06 0 775 9210 5.8418e-07 1.45932e-05 -3.20894e-06 6.61546e-10 1.31621e-07 
0 0 0 5.86456e-05 -2.64105e-05 -0.000135551 0 775 5900 2.04007e-06 1.16975e-05 -1.3434e-06 5.64609e-10 1.12333e-07 
0 0 0 -2.64977e-05 -3.95634e-05 -8.39831e-05 0 775 6574 2.19042e-07 8.99429e-06 -1.60134e-06 4.72518e-10 9.401e-08 
0 0 0 1.23056e-05 2.07505e-05 0.000199109 0 775 1890 -1.85313e-06 1.25173e-05 -3.07827e-06 5.96946e-10 1.18767e-07 
0 0 0 -6.18532e-06 7.24934e-06 2.65483e-05 0 775 1749 -1.40181e-06 1.04428e-05 -1.2127e-06 5.24254e-10 1.04304e-07 
0 0 0 -5.72478e-05 -2.29784e-05 -0.000125457 0 775 7843 8.72577e-07 1.05944e-05 -1.86888e-06 5.32808e-10 1.06006e-07 
0 0 0 -0.000122413 -2.6168e-05 -0.000230158 0 775 11044 -3.07366e-07 8.21475e-06 -9.59961e-07 4.5011e-10 8.95516e-08 
0 0 0 2.39587e-05 -2.90799e-06 3.20154e-05 0 775 8128 9.3398e-07 1.08967e-05 -3.86818e-07 5.3164e-10 1.05773e-07 
0 0 0 -1.37167e-06 -1.2289e-05 -7.16846e-06 0 775 1039 -2.25516e-06 7.37517e-06 -6.86335e-07 4.11742e-10 8.19177e-08 