ITEM: TIMESTEP
3400000
ITEM: NUMBER OF ENTRIES
1192
ITEM: BOX BOUNDS ff ff ff
-0.01 0.45
-0.15 0.15
-0.08 0.1
ITEM: ENTRIES c_pwc[1] c_pwc[2] c_pwc[3] c_pwc[4] c_pwc[5] c_pwc[6] c_pwc[7] c_pwc[8] c_pwc[9] c_pwc[10] c_pwc[11] c_pwc[12] c_pwc[13] c_pwc[14] 
0 0 0 3.35367e-05 -0.29709 0.0854322 0 790 3905 -1.07462e-09 1.47417e-05 1.61175e-05 9.62098e-10 1.91426e-07 
0 0 0 -0.323433 -0.0319165 0.082386 0 780 5892 -4.88854e-06 9.00355e-06 3.91327e-06 5.00925e-10 9.96621e-08 
0 0 0 0.222609 -0.035385 0.0913393 0 780 5213 -0.00025822 0.000179443 -0.000436042 5.00925e-10 9.96621e-08 
0 0 0 0.00674836 0.00109126 -0.0058377 0 778 72 -9.05212e-16 1.02659e-05 1.35713e-06 5.1885e-10 1.03229e-07 
0 0 0 0.0174867 -9.71394e-07 -0.00731387 0 776 4459 -4.78883e-12 1.0532e-05 2.00295e-12 5.25028e-10 1.04458e-07 
0 0 0 0.00212949 -2.32676e-12 -0.0352399 0 776 1200 2.99496e-19 1.05196e-05 3.39399e-18 5.24825e-10 1.04417e-07 
0 0 0 5.72362e-05 -1.08416e-08 -0.0148984 0 776 1871 -1.12959e-16 1.05195e-05 4.49124e-14 5.24821e-10 1.04417e-07 
0 0 0 0.00305335 8.06923e-11 -0.0180884 0 776 206 6.4253e-17 1.05196e-05 -3.80691e-16 5.24825e-10 1.04417e-07 
0 0 0 0.000550975 -2.21478e-12 -0.0204424 0 776 1972 7.48805e-20 1.05196e-05 -2.39601e-18 5.24825e-10 1.04417e-07 
0 0 0 0.0117241 -6.35513e-12 -0.0105256 0 776 733 5.4732e-19 1.05196e-05 1.20857e-18 5.24825e-10 1.04417e-07 
0 0 0 0.00132898 1.84414e-12 -0.0127327 0 776 414 7.0853e-19 1.05196e-05 -7.63609e-18 5.24825e-10 1.04417e-07 
0 0 0 0.00647307 5.71616e-11 -0.015382 0 776 101 1.01947e-16 1.05196e-05 -2.42168e-16 5.24825e-10 1.04417e-07 
0 0 0 0.00817307 4.12362e-12 -0.00934076 0 776 280 -1.16725e-18 1.05196e-05 1.19803e-18 5.24825e-10 1.04417e-07 
0 0 0 0.00590242 1.66128e-12 -0.0080086 0 776 1894 -5.99043e-19 1.05196e-05 1.19812e-18 5.24825e-10 1.04417e-07 
0 0 0 0.00849191 0.000514336 -0.00753153 0 776 210 2.58712e-07 3.46354e-06 1.71234e-06 3.82967e-10 7.61925e-08 
0 0 0 -0.0241881 -1.19881e-12 -0.0288733 0 776 4095 2.41726e-18 1.05196e-05 3.76428e-18 5.24825e-10 1.04417e-07 
0 0 0 0.0413952 4.94905e-05 0.0583444 0 776 693 4.63655e-10 1.04193e-05 7.09394e-10 5.32213e-10 1.05887e-07 
0 0 0 -0.0145598 6.37453e-12 -0.017148 0 776 690 -2.40644e-18 1.05196e-05 -2.41714e-18 5.24825e-10 1.04417e-07 
0 0 0 0.0094435 -3.18868e-12 -0.0178049 0 776 1002 -9.88477e-18 1.05196e-05 1.85397e-17 5.24825e-10 1.04417e-07 
0 0 0 0.00345851 5.60147e-12 -0.016613 0 776 317 7.47438e-18 1.05196e-05 -3.58717e-17 5.24825e-10 1.04417e-07 
0 0 0 0.00516717 -0.000567402 -0.00899567 0 776 1705 -1.72735e-05 1.82221e-05 4.21526e-06 6.45049e-10 1.28339e-07 
0 0 0 0.00386242 -6.11353e-08 -0.0248348 0 776 209 -6.4579e-14 1.05183e-05 4.1523e-13 5.2477e-10 1.04407e-07 
0 0 0 0.00513859 -4.74378e-12 -0.0189535 0 776 2069 5.98952e-19 1.05196e-05 -1.08442e-18 5.24825e-10 1.04417e-07 
0 0 0 -0.00285992 7.02889e-05 -0.000295607 0 776 2352 -1.25211e-06 1.07763e-05 -1.86371e-07 5.48481e-10 1.09124e-07 
0 0 0 0.0274332 -6.09962e-06 -0.0161502 0 776 5313 -4.09168e-10 1.01272e-05 -7.16156e-12 5.10363e-10 1.0154e-07 
0 0 0 0.00382894 -1.59126e-05 -0.0217483 0 776 585 -2.12645e-09 1.0035e-05 1.74089e-09 5.0511e-10 1.00495e-07 
0 0 0 0.0124709 -1.18415e-11 -0.0256252 0 776 553 -4.8714e-17 1.05196e-05 9.99599e-17 5.24825e-10 1.04417e-07 
0 0 0 -0.0205615 6.41423e-05 -0.0241778 0 776 531 2.40847e-07 1.40101e-05 2.08643e-06 6.48522e-10 1.2903e-07 
0 0 0 0.0157143 -1.69874e-05 -0.00880121 0 776 1887 -7.98578e-09 1.10598e-05 2.52633e-09 5.38997e-10 1.07237e-07 
0 0 0 0.0133762 1.11429e-11 -0.0205732 0 776 1470 4.97693e-17 1.05196e-05 -7.6365e-17 5.24825e-10 1.04417e-07 
0 0 0 0.00397666 -2.14153e-11 -0.0176649 0 776 154 -2.28888e-17 1.05196e-05 1.00621e-16 5.24825e-10 1.04417e-07 
0 0 0 0.0173102 4.01896e-05 -0.0075782 0 776 1920 6.24666e-11 1.04933e-05 5.58034e-09 5.32654e-10 1.05975e-07 
0 0 0 0.00720975 -7.95005e-13 -0.00438016 0 776 18 -1.012e-18 1.05196e-05 5.87535e-19 5.24825e-10 1.04417e-07 
0 0 0 0.0102028 6.6968e-12 -0.0072334 0 776 1367 1.20855e-18 1.05196e-05 -1.19804e-18 5.24825e-10 1.04417e-07 
0 0 0 0.000590658 1.86652e-07 -0.00834906 0 776 3087 3.06351e-14 1.05199e-05 -4.3357e-13 5.24875e-10 1.04427e-07 
0 0 0 0.00843075 2.65364e-05 -0.0127322 0 776 4938 -2.98475e-06 1.88771e-05 6.18166e-06 7.80192e-10 1.55229e-07 
0 0 0 0.0163077 -5.22719e-12 -0.00440569 0 776 3742 2.39602e-18 1.05196e-05 -7.39011e-20 5.24825e-10 1.04417e-07 
0 0 0 0.00680004 -0.000169483 -0.0139984 0 776 1890 -2.2803e-07 1.01503e-05 2.05787e-07 4.75583e-10 9.46198e-08 
0 0 0 0.0086372 -5.21523e-12 -0.0115507 0 776 1039 1.19794e-18 1.05196e-05 -1.06124e-18 5.24825e-10 1.04417e-07 
0 0 0 0.0283383 -1.03768e-12 -0.0407822 0 776 833 -4.467e-18 1.05196e-05 -4.79216e-18 5.24825e-10 1.04417e-07 
0 0 0 0.0248045 1.05708e-12 -0.0126983 0 776 1118 2.41725e-18 1.05196e-05 -1.19803e-18 5.24825e-10 1.04417e-07 
0 0 0 0.00833363 0.000215364 -0.00695824 0 776 510 -2.06217e-06 8.50266e-06 1.53123e-06 5.03666e-10 1.00207e-07 
0 0 0 0.0195611 -1.68222e-12 -0.00864273 0 776 2966 1.3688e-18 1.05196e-05 1.19805e-18 5.24825e-10 1.04417e-07 
0 0 0 0.0150703 -0.000204577 0.00970687 0 776 839 -3.83117e-06 1.23841e-05 1.97474e-06 5.42058e-10 1.07846e-07 
0 0 0 0.00458985 5.73673e-13 -0.00138613 0 776 4893 5.99038e-19 1.05196e-05 -1.4976e-19 5.24825e-10 1.04417e-07 
0 0 0 -0.10006 -5.83648e-11 -0.151614 0 776 248 0.000444967 1.05196e-05 0.000598149 5.24825e-10 1.04417e-07 
0 0 0 0.0225831 2.34616e-12 0.0162374 0 776 570 -7.26899e-19 1.05196e-05 -2.41713e-18 5.24825e-10 1.04417e-07 
0 0 0 -0.0848731 3.4741e-12 -0.0039657 0 776 316 -9.58467e-18 1.05196e-05 2.44827e-19 5.24825e-10 1.04417e-07 
0 0 0 0.0477326 4.90078e-12 0.124878 0 776 5632 7.75968e-17 1.05196e-05 2.03776e-16 5.24825e-10 1.04417e-07 
0 0 0 0.0291442 -6.83854e-12 -0.0184799 0 777 3193 2.51818e-18 1.05196e-05 0 5.24825e-10 1.04417e-07 
0 0 0 0.00311745 -0.00435029 -0.0230833 0 775 2116 -2.36643e-07 8.24195e-06 -1.01363e-06 4.3989e-10 8.75181e-08 
0 0 0 0.0579596 -0.00537927 -0.0287648 0 775 3081 -3.49323e-11 1.02899e-05 -1.36168e-06 5.19202e-10 1.03299e-07 
0 0 0 0.079328 -0.0122735 -0.0656575 0 775 5373 -7.76354e-19 1.02659e-05 -1.35713e-06 5.18851e-10 1.03229e-07 
0 0 0 -3.62032e-06 -0.00390369 -0.0208829 0 774 2641 -1.46226e-21 1.02659e-05 -1.35713e-06 5.18851e-10 1.03229e-07 
0 0 0 0.0319205 0.00448028 0.0239674 0 774 1165 4.10149e-18 1.02659e-05 -1.35713e-06 5.18851e-10 1.03229e-07 
0 0 0 0.0178699 0.00621806 0.0332637 0 774 3869 2.15573e-18 1.02659e-05 -1.35713e-06 5.18851e-10 1.03229e-07 
0 0 0 -0.00198861 -0.00259518 -0.014303 0 774 4248 3.21518e-06 6.74118e-06 -3.79146e-06 4.29984e-10 8.55473e-08 
0 0 0 -0.0603832 -0.0457032 -0.244475 0 774 4325 4.69789e-11 1.02787e-05 -1.35927e-06 5.18681e-10 1.03195e-07 
0 0 0 -0.175532 0.0209993 0.112336 0 774 3865 -8.30062e-13 1.02659e-05 -1.35713e-06 5.18851e-10 1.03229e-07 
0 0 0 -2.37633e-302 4.71993e-20 -5.8979e-12 0 884 5230 6.12456e-307 5.25978e-06 -1.62002 1.22522e-06 0.0003 
0 0 0 -0.0263803 -0.00208333 0.00640757 0 884 3115 7.43205e-06 -1.41583e-05 -3.19808e-05 3.84207e-10 7.64392e-08 
0 0 0 0.00721123 0.0328326 0.000720068 0 884 5086 -6.34995e-07 -2.44253e-06 5.04745e-06 4.96101e-10 9.87023e-08 
0 0 0 -1.18566e-302 8.48645e-20 -4.72342e-12 0 884 3064 -4.56746e-307 5.25978e-06 -1.62002 1.22522e-06 0.0003 
0 0 0 1.17136e-302 1.89702e-20 -5.8979e-12 0 884 871 -2.05007e-307 5.25978e-06 -1.62002 1.22522e-06 0.0003 
0 0 0 -1.41897e-302 -4.72298e-20 -1.18146e-12 0 884 2565 -4.15628e-307 5.25978e-06 -1.62002 1.22522e-06 0.0003 
0 0 0 1.43486e-302 8.48586e-20 -5.89794e-12 0 884 3089 -3.32219e-308 5.25978e-06 -1.62002 1.22522e-06 0.0003 
0 0 0 0.0687424 0.0219133 0.0161523 0 884 1328 -0.000114281 -0.000122424 7.2271e-05 4.34267e-09 8.64413e-07 
0 0 0 3.38443e-302 4.70502e-20 -3.53502e-12 0 884 5274 -5.61535e-307 5.25978e-06 -1.62002 1.22522e-06 0.0003 
0 0 0 2.06606e-16 1.2098e-17 5.30964e-12 0 884 2130 0.0516156 0.00278236 -1.61379 1.2228e-06 0.00029923 
0 0 0 -2.38326e-16 -1.22709e-17 5.30943e-12 0 884 4708 -0.0658814 -0.00353939 -1.62626 1.22764e-06 0.00030077 
0 0 0 0.568205 -0.239995 -2.88351 0 870 1833 -0.00222336 -0.000926762 -0.000613961 4.77615e-08 9.55896e-06 
0 0 0 -1.628e-14 -8.50567e-20 4.35535e-302 0 863 2723 -1.62002 5.25978e-06 -2.23978e-308 1.22522e-06 0.0003 
0 0 0 3.49574e-14 -8.5302e-20 -2.15729e-302 0 862 444 -1.62002 5.25978e-06 5.8798e-307 1.22522e-06 0.0003 
0 0 0 3.49065e-14 -6.55878e-20 -1.13875e-302 0 862 927 -1.62002 5.25978e-06 4.79298e-307 1.22522e-06 0.0003 
0 0 0 6.88952e-14 -1.11205e-11 0.0638122 0 854 846 -2.71714e-06 1.05196e-05 -1.45514e-07 5.36245e-10 1.0669e-07 
0 0 0 0.00788988 -0.00563085 -0.0770493 0 854 913 0.000263154 -4.20308e-06 0.00013151 5.48216e-09 1.09139e-06 
0 0 0 -0.122601 0.0223773 -0.0573142 0 854 5109 0.00530524 -0.00259885 -0.000531394 2.38302e-08 4.75499e-06 
0 0 0 0.0102453 0.0497969 0.0350122 0 854 4188 2.1038e-05 -4.56444e-06 -9.47709e-06 2.67711e-09 5.32772e-07 
0 0 0 0.000445618 -0.0123163 -0.00556338 0 854 4251 1.18614e-05 4.88242e-06 3.36678e-06 6.62968e-10 1.31904e-07 
0 0 0 -2.37633e-302 4.71993e-20 -5.8979e-12 0 850 5230 -5.19303e-307 5.25978e-06 1.62002 1.22522e-06 0.0003 
0 0 0 -1.18566e-302 8.48645e-20 -4.72342e-12 0 850 3064 3.6446e-307 5.25978e-06 1.62002 1.22522e-06 0.0003 
0 0 0 3.63745e-303 -6.58876e-20 1.18145e-12 0 850 478 -2.94499e-308 5.25978e-06 1.62002 1.22522e-06 0.0003 
0 0 0 1.17136e-302 1.89702e-20 -5.8979e-12 0 850 871 1.12291e-307 5.25978e-06 1.62002 1.22522e-06 0.0003 
0 0 0 -4.37962e-302 -8.49133e-20 -2.36056e-12 0 850 283 -1.8101e-307 5.25978e-06 1.62002 1.22522e-06 0.0003 
0 0 0 -1.41897e-302 -4.72298e-20 -1.18146e-12 0 850 2565 5.07436e-307 5.25978e-06 1.62002 1.22522e-06 0.0003 
0 0 0 1.71521e-302 5.65733e-20 4.72349e-12 0 850 5520 -2.95527e-307 5.25978e-06 1.62002 1.22522e-06 0.0003 
0 0 0 1.02418e-198 2.83745e-20 2.36055e-12 0 850 2321 -2.47954e-199 5.25978e-06 1.62002 1.22522e-06 0.0003 
0 0 0 1.43486e-302 8.48586e-20 -5.89794e-12 0 850 3089 -5.95988e-308 5.25978e-06 1.62002 1.22522e-06 0.0003 
0 0 0 3.38443e-302 4.70502e-20 -3.53502e-12 0 850 5274 4.69226e-307 5.25978e-06 1.62002 1.22522e-06 0.0003 
0 0 0 2.06606e-16 1.2098e-17 5.30964e-12 0 850 2130 0.0658814 0.00354992 1.62626 1.22764e-06 0.00030077 
0 0 0 -2.38326e-16 -1.22709e-17 5.30943e-12 0 850 4708 -0.0516156 -0.00277185 1.61379 1.2228e-06 0.00029923 
0 0 0 3.49574e-14 -8.5302e-20 -2.15729e-302 0 822 444 1.62002 5.25978e-06 -4.93931e-307 1.22522e-06 0.0003 
0 0 0 3.49065e-14 -6.55878e-20 -1.13875e-302 0 821 927 1.62002 5.25978e-06 -5.71778e-307 1.22522e-06 0.0003 
0 0 0 -1.628e-14 -8.50567e-20 4.35535e-302 0 821 2723 1.62002 5.25978e-06 1.12148e-307 1.22522e-06 0.0003 
0 0 0 3.63745e-303 -6.58876e-20 1.18145e-12 0 885 478 1.23929e-307 5.25978e-06 -1.62002 1.22522e-06 0.0003 
0 0 0 -4.37962e-302 -8.49133e-20 -2.36056e-12 0 885 283 8.92938e-308 5.25978e-06 -1.62002 1.22522e-06 0.0003 
0 0 0 1.71521e-302 5.65733e-20 4.72349e-12 0 885 5520 2.0042e-307 5.25978e-06 -1.62002 1.22522e-06 0.0003 
0 0 0 1.02418e-198 2.83745e-20 2.36055e-12 0 885 2321 -2.47954e-199 5.25978e-06 -1.62002 1.22522e-06 0.0003 
0 0 0 -0.0452639 -0.00331124 -0.0273781 0 853 4215 0.000154067 1.44769e-06 0.000274579 8.87204e-10 1.76523e-07 
0 0 0 0.142805 -0.0243 -0.00443887 0 853 2039 -2.10535e-05 -5.83613e-05 -2.02054e-05 5.32916e-09 1.06091e-06 
0 0 0 -5.40971 5.6689 3.93691 0 796 171 0.0298525 -0.0576273 0.236769 4.83551e-07 0.000102805 
0 0 0 -0.0747304 -0.000415634 0.0523898 0 852 1578 -4.59963e-05 -0.000619585 -0.000306359 7.98299e-09 1.58975e-06 
0 0 0 -0.191564 -0.0935659 -0.14658 0 852 3951 0.000780843 -0.00356679 0.00160337 3.30265e-08 6.59761e-06 
0 0 0 0.662652 0.565013 -0.0314985 0 852 1716 -0.00827195 -0.0137488 0.00040504 2.69756e-08 5.38475e-06 
0 0 0 6.88952e-14 -1.11205e-11 0.0638122 0 819 846 2.71714e-06 3.35876e-16 1.35857e-06 2.12866e-10 4.23496e-08 
0 0 0 0.00254116 -0.0968233 -0.00119775 0 894 4740 9.38426e-09 1.61682e-06 3.23369e-06 1.67334e-11 3.32902e-09 
0 0 0 -0.000889232 -0.049535 5.33378e-05 0 894 3819 -7.21224e-05 0.000225066 -2.0536e-05 8.09416e-10 1.61044e-07 
0 0 0 -0.0137134 -0.143512 0.0137614 0 894 5332 7.83503e-05 0.000214037 -0.000455854 4.88944e-09 9.73316e-07 
0 0 0 -0.00431897 -0.0844665 -0.00325723 0 894 2921 -5.95002e-07 3.0613e-05 -6.91392e-05 2.35443e-09 4.68537e-07 
0 0 0 -0.0507684 -0.12152 -0.0228671 0 894 6056 -2.04177e-05 2.50351e-05 0.000144576 7.41749e-10 1.4758e-07 
0 0 0 0.00723516 -0.115054 0.0218502 0 894 2807 -1.68094e-05 8.0255e-05 -0.000163993 6.44419e-10 1.28213e-07 
0 0 0 -0.0507979 -0.210744 0.0326354 0 894 2827 0.000222412 0.000286785 -0.000391085 2.16746e-09 4.31319e-07 
0 0 0 -0.46261 -0.159417 -0.00611205 0 894 4983 0.000217831 3.29423e-05 -0.000440615 7.03355e-09 1.40051e-06 
0 0 0 0.0991495 -0.282788 -0.0028781 0 894 1512 -0.000654977 0.00132972 -8.44923e-06 1.07539e-09 2.1397e-07 
0 0 0 0.0472462 -0.0276577 0.0837469 0 894 737 -0.000420578 0.00140349 -0.0029303 1.53161e-08 3.05287e-06 
0 0 0 0.0621933 -0.0943185 0.0132983 0 894 908 0.0010488 -6.87129e-05 -0.0021021 1.67145e-08 3.33219e-06 
0 0 0 -0.00869703 -0.158238 0.0103406 0 894 3736 -2.67472e-05 3.53908e-05 -8.87226e-05 7.03333e-10 1.39936e-07 
0 0 0 -0.0722445 -0.289642 -0.0177996 0 894 5671 1.15151e-06 1.55775e-06 3.8743e-06 3.51575e-09 6.99742e-07 
0 0 0 0.0403024 -0.151795 0.00434276 0 894 2490 -0.00015904 0.00021515 -7.31726e-05 1.2386e-09 2.46449e-07 
0 0 0 -0.0340669 -0.268689 -0.000946351 0 894 4435 0.000646021 0.000537641 -6.88448e-06 6.13249e-10 1.22011e-07 
0 0 0 -0.0531275 -0.291536 -0.00463193 0 894 2962 -0.000163722 0.000210907 -0.000533991 7.70911e-09 1.53515e-06 
0 0 0 0.0542347 -0.0978501 -0.00841952 0 894 58 1.20765e-05 9.26036e-05 -0.000186776 4.69331e-09 9.34251e-07 
0 0 0 -0.105285 -0.306462 0.0217527 0 894 3508 8.11421e-05 0.000189143 -0.000411627 3.53038e-09 7.02656e-07 
0 0 0 9.55004e-14 -7.51242e-20 3.81443e-302 0 866 887 -1.62002 5.25978e-06 -2.81469e-307 1.22522e-06 0.0003 
0 0 0 0.0464054 -2.72916 1.43218 0 855 3990 0.00557783 0.00250699 -0.0012219 3.77341e-08 7.54251e-06 
0 0 0 0.00707763 0.0576163 -0.0305405 0 855 4205 0.0012206 -0.000112517 1.00457e-05 1.31581e-08 2.62201e-06 
0 0 0 -0.0349165 -0.00629913 -0.0560692 0 855 3323 0.000817095 0.000149048 -7.55062e-05 5.93416e-09 1.18144e-06 
0 0 0 -0.000668429 -0.128251 -0.0316656 0 855 2038 2.89327e-05 0.000644402 2.46488e-05 9.0808e-10 1.80677e-07 
0 0 0 0.00434106 -0.10061 0.0601261 0 855 3966 0.000227805 0.000113413 -1.0547e-05 4.6374e-09 9.23114e-07 
0 0 0 -0.00302291 -0.187239 -0.0376958 0 855 5308 0.000914887 4.48985e-05 -1.39521e-05 9.97956e-09 1.98784e-06 
0 0 0 0.00295428 -0.053336 -0.00250553 0 855 2068 -3.84979e-06 1.92489e-06 4.45631e-09 7.21882e-10 1.43627e-07 
0 0 0 0.197868 -0.153791 -0.0120265 0 895 2226 -8.45818e-06 5.8825e-06 2.06053e-05 2.22186e-09 4.42148e-07 
0 0 0 -0.295105 -0.171931 0.00844916 0 895 1599 0.000191539 1.70144e-05 -0.000384586 4.77666e-09 9.5085e-07 
0 0 0 0.0135331 -0.109218 -0.00178209 0 895 2749 -1.65574e-06 7.12316e-06 -1.46261e-05 1.01518e-09 2.0199e-07 
0 0 0 -0.022196 -0.179558 0.00144188 0 895 4573 2.63021e-05 4.29647e-05 -0.000100752 2.15244e-09 4.2833e-07 
0 0 0 0.00266316 -0.185328 -0.00518354 0 895 4302 0.000154531 0.0013835 -2.03881e-05 1.78907e-09 3.56004e-07 
0 0 0 2.29567e-15 -4.69949e-20 -1.26765e-302 0 861 3265 -1.62002 5.25978e-06 -9.14456e-307 1.22522e-06 0.0003 
0 0 0 -9.54958e-14 2.0484e-18 -1.51121e-17 0 861 1395 -1.62002 5.25978e-06 -1.04546e-17 1.22522e-06 0.0003 
0 0 0 3.49777e-14 -7.58558e-20 3.68115e-302 0 857 2716 -1.62002 5.25978e-06 -1.4268e-307 1.22522e-06 0.0003 
0 0 0 0.0131271 -0.0824043 0.197382 0 854 3097 -2.14314e-05 4.87194e-06 -9.54415e-06 2.41146e-09 4.79889e-07 
0 0 0 2.29567e-15 -4.69949e-20 -1.26765e-302 0 822 3265 1.62002 5.25978e-06 1.00937e-306 1.22522e-06 0.0003 
0 0 0 -9.54958e-14 2.0484e-18 -1.51121e-17 0 822 1395 1.62002 5.25978e-06 -1.04546e-17 1.22522e-06 0.0003 
0 0 0 3.49777e-14 -7.58558e-20 3.68115e-302 0 820 2716 1.62002 5.25978e-06 2.34593e-307 1.22522e-06 0.0003 
0 0 0 9.55004e-14 -7.51242e-20 3.81443e-302 0 828 887 1.62002 5.25978e-06 3.76662e-307 1.22522e-06 0.0003 
0 0 0 4.10239 -3.47372 11.2734 0 934 5411 0.0167349 0.0301377 -0.0163134 2.53944e-08 5.0681e-06 
0 0 0 0.0101001 0.00316269 -0.0169189 0 778 3877 -2.75049e-16 1.02659e-05 1.35713e-06 5.18851e-10 1.03229e-07 
0 0 0 0.0986468 0.00698893 -0.0373875 0 778 5264 -5.81857e-13 1.0266e-05 1.35715e-06 5.1885e-10 1.03229e-07 
0 0 0 0.0755746 0.00953871 -0.0506712 0 778 731 1.41519e-09 7.75546e-06 8.7757e-07 4.44286e-10 8.83928e-08 
0 0 0 0.0805875 0.00965806 -0.051666 0 778 1313 3.98395e-18 1.02659e-05 1.35713e-06 5.18851e-10 1.03229e-07 
0 0 0 -0.155505 0.00664544 -0.0355499 0 778 221 1.26485e-17 1.02659e-05 1.35713e-06 5.18851e-10 1.03229e-07 
0 0 0 0.00641114 0.00861287 -0.0460748 0 778 1802 -1.02278e-18 1.02659e-05 1.35713e-06 5.18851e-10 1.03229e-07 
0 0 0 0.0202251 0.0159619 -0.0853888 0 778 865 -1.23833e-18 1.02659e-05 1.35713e-06 5.18851e-10 1.03229e-07 
0 0 0 0.00419838 -2.7293e-05 0.0241776 0 776 5360 -2.39311e-11 8.97393e-06 -1.35622e-10 4.66005e-10 9.27142e-08 
0 0 0 0.10641 -5.72414e-12 0.0596226 0 776 4525 -1.81607e-17 1.05196e-05 -8.84041e-18 5.24825e-10 1.04417e-07 
0 0 0 0.105717 1.70162e-12 0.163769 0 776 2951 1.92537e-17 1.05196e-05 -1.55191e-17 5.24825e-10 1.04417e-07 
0 0 0 -0.00640825 -5.22719e-12 -0.0377228 0 776 658 -1.20322e-18 1.05196e-05 -4.7923e-18 5.24825e-10 1.04417e-07 
0 0 0 -0.0233554 6.37453e-12 -0.0538373 0 776 1223 -1.60691e-18 1.05196e-05 5.45678e-19 5.24825e-10 1.04417e-07 
0 0 0 -0.00687468 7.34807e-13 -0.0467417 0 776 1974 -4.63998e-19 1.05196e-05 4.83424e-18 5.24825e-10 1.04417e-07 
0 0 0 -0.0224523 1.54048e-12 -0.0191017 0 776 2205 -2.33841e-18 1.05196e-05 -2.33472e-18 5.24825e-10 1.04417e-07 
0 0 0 -0.0222158 2.34616e-12 -0.0220034 0 776 3551 -2.17839e-18 1.05196e-05 2.39615e-18 5.24825e-10 1.04417e-07 
0 0 0 -0.00500883 -4.90492e-12 -0.0521925 0 776 421 -6.04271e-19 1.05196e-05 4.55277e-18 5.24825e-10 1.04417e-07 
0 0 0 -0.0160271 -4.90492e-12 -0.0145471 0 776 39 1.36851e-18 1.05196e-05 -4.90217e-19 5.24825e-10 1.04417e-07 
0 0 0 -0.00126113 2.18502e-12 -0.0333682 0 776 172 7.1045e-21 1.05196e-05 4.79233e-18 5.24825e-10 1.04417e-07 
0 0 0 0.0137896 -3.93137e-13 0.019995 0 776 1771 -1.11469e-18 1.05196e-05 2.39592e-18 5.24825e-10 1.04417e-07 
0 0 0 -0.0689931 2.82956e-12 -0.0411743 0 776 4289 -1.03125e-18 1.05196e-05 -4.79183e-18 5.24825e-10 1.04417e-07 
0 0 0 -0.0608812 1.70162e-12 0.00932945 0 776 2368 -8.66578e-18 1.05196e-05 1.19795e-18 5.24825e-10 1.04417e-07 
0 0 0 0.0621882 0.0707465 -0.182618 0 781 163 1.59599e-18 9.53905e-06 2.53098e-06 5.00925e-10 9.96621e-08 
0 0 0 -0.019231 -0.0098767 0.0528357 0 779 3631 -5.83131e-18 1.02659e-05 1.35713e-06 5.18851e-10 1.03229e-07 
0 0 0 -0.215556 0.0104626 -0.0559701 0 779 2062 9.87629e-18 1.02659e-05 1.35713e-06 5.18851e-10 1.03229e-07 
0 0 0 0.02683 -2.60625e-12 -0.0774226 0 777 4357 4.63126e-18 1.05196e-05 -9.58424e-18 5.24825e-10 1.04417e-07 
0 0 0 0.00181602 -1.20351e-05 -0.0216395 0 777 607 -6.0309e-12 1.04446e-05 7.18649e-11 5.19722e-10 1.03402e-07 
0 0 0 0.0515704 -1.46904e-10 -0.0102344 0 777 5618 -2.09556e-15 1.05196e-05 4.15897e-16 5.24825e-10 1.04417e-07 
0 0 0 0.00717832 -3.29357e-12 -0.0226434 0 777 12 0 1.05196e-05 2.23994e-18 5.24825e-10 1.04417e-07 
0 0 0 0.0248433 -6.6774e-12 0.0256213 0 777 107 -2.39591e-18 1.05196e-05 -4.8135e-18 5.24825e-10 1.04417e-07 
0 0 0 0.0603097 1.05708e-12 -0.0709366 0 777 5383 0 1.05196e-05 0 5.24825e-10 1.04417e-07 
0 0 0 -0.0376715 4.44091e-12 -0.06427 0 777 300 -3.93089e-18 1.05196e-05 0 5.24825e-10 1.04417e-07 
0 0 0 -0.0585496 -0.0108157 -0.0578589 0 775 1045 2.94928e-18 1.02659e-05 -1.35713e-06 5.18851e-10 1.03229e-07 
0 0 0 -0.0144411 -0.00955816 -0.0511316 0 775 924 -2.71943e-18 1.02659e-05 -1.35713e-06 5.18851e-10 1.03229e-07 
0 0 0 0.0123846 0.00343254 0.0183625 0 775 4532 3.78739e-18 1.02659e-05 -1.35713e-06 5.18851e-10 1.03229e-07 
0 0 0 -0.169585 0.0181246 0.0969578 0 775 1306 1.27135e-17 1.02659e-05 -1.35713e-06 5.18851e-10 1.03229e-07 
0 0 0 -10.4477 44.1407 1.50289 0 952 4083 -0.00626607 0.0315252 -0.0586877 2.88195e-07 5.95511e-05 
0 0 0 9.9107 30.1213 13.8638 0 948 6232 -0.00552556 0.0564824 -0.119103 3.15261e-07 6.53918e-05 
0 0 0 -0.0871864 -0.0138576 -0.0741317 0 774 1937 1.0567e-18 1.02659e-05 -1.35713e-06 5.18851e-10 1.03229e-07 
0 0 0 0.05211 0.0243277 0.130141 0 774 1275 -7.09277e-18 1.02659e-05 -1.35713e-06 5.18851e-10 1.03229e-07 
0 0 0 -0.0309311 0.0469188 0.121111 0 773 2719 -4.97796e-18 9.53905e-06 -2.53098e-06 5.00925e-10 9.96621e-08 
0 65.6304 61.2445 -0.00700569 65.0534 61.8428 1 2697 1830 -1.2944 -0.492449 -0.540162 1.14876e-06 0.000276227 
0 74.7567 61.641 -0.0912677 74.3148 62.2159 1 2706 2651 -1.01262 -0.375107 -0.851779 1.10341e-06 0.000262623 
0 73.7226 59.7192 0.229431 73.3269 60.2371 1 2706 3056 -1.19533 -1.53934 -0.712612 1.34937e-06 0.000341216 
0 76.1384 66.1267 -0.0873725 75.7103 66.3995 1 2706 4033 -1.58354 -1.35952 -1.34262 1.50364e-06 0.000398284 
0 73.5464 64.6828 -1.67684 72.0262 63.8361 1 2706 2661 -1.46026 -1.09476 -1.10144 1.43901e-06 0.000373444 
0 65.8527 60.4501 -0.00700569 65.0534 61.8428 1 2706 1830 -0.0133664 -0.0522712 -0.076146 2.03361e-07 4.15355e-05 
0 92.2333 58.029 -0.035302 91.1328 56.9882 1 2682 1300 0.174444 0.260184 -0.186964 4.91478e-07 0.000104617 
0 89.7205 54.6231 -0.528512 89.1277 54.5689 1 2680 53 1.2228 -2.40643 -1.92445 1.63762e-06 0.00045543 
0 87.9101 52.7201 -0.0385481 87.388 53.2501 1 2680 123 0.35912 -0.775077 -0.748151 9.52309e-07 0.000219594 
0 84.2797 49.0621 -0.00839786 83.7242 49.6193 1 2680 97 0.408189 -0.886421 -0.844118 1.02292e-06 0.000239292 
0 85.9087 50.8039 0.0189002 85.4453 51.292 1 2680 1299 0.698796 -1.59832 -1.27345 1.33827e-06 0.000337383 
0 82.4744 47.309 0.040649 81.8728 47.8953 1 2680 717 0.316838 -0.658773 -0.682428 8.87872e-07 0.000202186 
0 91.8799 56.4472 -0.035302 91.1328 56.9882 1 2680 1300 0.0405915 -0.0097894 -0.00934272 1.26799e-07 2.56367e-05 
0 71.8102 37.6625 -0.0612116 72.795 38.6954 1 2677 5227 -0.000397192 -0.218729 0.0694605 3.61294e-07 7.54336e-05 
0 70.7257 38.7718 0.0051695 71.5823 39.6856 1 2677 3831 -0.40786 -0.649916 0.518793 8.48209e-07 0.000191718 
0 68.2606 41.2936 -0.084677 69.1299 42.1414 1 2677 5630 -0.366007 -1.0514 0.552416 1.01109e-06 0.000235944 
0 89.0058 55.3542 -0.528512 89.1277 54.5689 1 2709 53 1.12787 2.32947 1.5382 1.56091e-06 0.000421651 
0 86.8957 53.7578 -0.0385481 87.388 53.2501 1 2709 123 1.4102 1.53659 0.619437 1.38644e-06 0.000354262 
0 83.2302 50.1357 -0.00839786 83.7242 49.6193 1 2709 97 0.66356 1.46276 0.818365 1.22242e-06 0.00029911 
0 85.0309 51.7019 0.0189002 85.4453 51.292 1 2709 1299 0.989361 2.09818 1.0104 1.44226e-06 0.00037466 
0 81.3941 48.4142 0.040649 81.8728 47.8953 1 2709 717 0.789162 1.16813 1.03472 1.2409e-06 0.000305016 
0 76.9061 43.8148 -0.0183628 77.4014 43.3373 1 2709 3437 0.628676 1.43877 0.942134 1.23209e-06 0.000302192 
0 75.0204 41.8374 -0.0575126 75.419 41.4345 1 2709 5050 1.25734 2.48366 1.02975 1.54904e-06 0.000416694 
0 72.3839 39.1486 -0.0612116 72.795 38.6954 1 2709 5227 0.798657 1.73067 0.911723 1.32308e-06 0.000332185 
0 88.2145 56.472 -0.564207 88.2078 55.6057 1 2709 282 0.720508 1.2322 0.856647 1.18424e-06 0.000287121 
0 86.0034 55.6759 -0.0410651 86.4877 55.2447 1 2709 500 0.985035 1.73494 0.602044 1.31751e-06 0.000330294 
0 82.9411 52.3428 -0.0428551 83.4467 51.894 1 2709 2710 1.02963 1.615 0.479381 1.28575e-06 0.000319654 
0 85.0191 53.6914 0.0343714 85.4939 53.1828 1 2709 2302 0.579806 1.13811 0.463802 1.05227e-06 0.000247684 
0 81.3527 50.6366 0.0532552 81.8968 50.0212 1 2709 2095 0.942506 0.625736 0.829379 1.13247e-06 0.000271301 
0 76.8147 46.155 -0.0252128 77.3857 45.5501 1 2709 258 1.46493 0.99748 0.0979055 1.21243e-06 0.000295945 
0 79.2202 46.7211 -0.00258059 79.7681 46.1741 1 2709 2399 1.25088 0.854678 0.548549 1.21273e-06 0.000296039 
0 75.0429 44.1812 -0.0570146 75.6233 43.6482 1 2709 3400 1.26687 1.41589 0.208744 1.26107e-06 0.000311545 
0 73.2895 43.0432 0.129614 73.7526 42.4052 1 2709 4918 0.562154 1.0996 1.09341 1.1751e-06 0.000284292 
0 71.0866 40.143 0.0051695 71.5823 39.6856 1 2709 3831 0.849964 1.18186 0.608209 1.17761e-06 0.000285066 
0 73.4586 41.1139 0.0869022 73.9297 40.5702 1 2709 4454 0.509802 0.960525 0.358456 9.57645e-07 0.000221059 
0 83.6069 55.1683 -0.0737113 84.1785 54.6481 1 2709 1252 1.61884 1.27731 0.293178 1.33909e-06 0.000337664 
0 80.437 51.8749 -0.00310502 80.8453 51.443 1 2709 34 0.663874 1.38459 1.16503 1.27235e-06 0.000315233 
0 77.6065 48.141 -0.0596059 78.1253 47.702 1 2709 3382 1.01532 1.70465 0.630349 1.32446e-06 0.000332656 
0 73.0936 45.917 0.11147 73.5324 45.2887 1 2709 4081 0.537595 0.483332 0.747327 9.41164e-07 0.000216546 
0 74.6511 47.838 -0.0462722 75.1056 47.4429 1 2709 83 1.02196 1.79183 0.575917 1.33194e-06 0.000335208 
0 74.7483 45.7816 0.0253854 75.2658 45.2964 1 2709 76 1.34395 1.53649 0.724337 1.3891e-06 0.000355214 
0 81.6956 54.7492 0.0625513 82.1468 54.2075 1 2709 44 0.769933 0.648638 0.813744 1.07991e-06 0.000255709 
0 76.4329 50.0505 -0.0299913 76.9633 49.542 1 2709 4700 1.15619 1.06403 0.638265 1.24471e-06 0.000306243 
0 68.6029 42.5572 -0.084677 69.1299 42.1414 1 2709 5630 1.33897 1.592 0.242412 1.31756e-06 0.000330312 
0 68.1354 49.6007 -0.00920373 68.6671 49.0699 1 2709 6430 1.14446 0.871407 0.729485 1.2215e-06 0.000298818 
0 77.8832 42.8153 -0.0183628 77.4014 43.3373 1 2681 3437 0.957644 -0.983761 -1.05995 1.25464e-06 0.000309454 
0 75.8173 41.0222 -0.0575126 75.419 41.4345 1 2681 5050 0.988822 -1.58047 -1.59439 1.44911e-06 0.000377231 
0 73.2086 38.305 -0.0612116 72.795 38.6954 1 2681 5227 1.69002 -2.09974 -1.13261 1.58891e-06 0.000433621 
0 89.9944 54.3429 -0.528512 89.1277 54.5689 1 2691 53 -0.539141 -0.0808919 -0.58915 7.96588e-07 0.000178359 
0 87.8842 52.7465 -0.0385481 87.388 53.2501 1 2691 123 -0.722695 -0.747379 -0.628828 1.04554e-06 0.000245748 
0 84.2188 49.1244 -0.00839786 83.7242 49.6193 1 2691 97 -0.961183 -1.12751 -0.762695 1.22805e-06 0.0003009 
0 86.0194 50.6906 0.0189002 85.4453 51.292 1 2691 1299 -0.616007 -0.642145 -0.597433 9.73192e-07 0.000225349 
0 82.3826 47.4029 0.040649 81.8728 47.8953 1 2691 717 -1.08115 -1.20427 -0.418564 1.20941e-06 0.000294993 
0 77.8947 42.8035 -0.0183628 77.4014 43.3373 1 2691 3437 -1.16258 -0.625271 -0.939138 1.21835e-06 0.000297818 
0 76.009 40.8261 -0.0575126 75.419 41.4345 1 2691 5050 -0.576829 -0.32196 -0.407709 8.15873e-07 0.000183316 
0 73.3725 38.1373 -0.0612116 72.795 38.6954 1 2691 5227 -1.31624 -0.384226 -0.483037 1.12089e-06 0.000267825 
0 89.2031 55.4607 -0.564207 88.2078 55.6057 1 2691 282 -1.7446 -0.368635 -0.537186 1.26519e-06 0.000312889 
0 86.992 54.6646 -0.0410651 86.4877 55.2447 1 2691 500 -1.31396 -0.465925 -0.437848 1.12719e-06 0.000269714 
0 83.9296 51.3315 -0.0428551 83.4467 51.894 1 2691 2710 -1.34699 -0.599484 -0.421021 1.16229e-06 0.000280355 
0 86.0076 52.6801 0.0343714 85.4939 53.1828 1 2691 2302 -1.69181 -1.30385 -0.418576 1.381e-06 0.000352325 
0 82.3413 49.6253 0.0532552 81.8968 50.0212 1 2691 2095 -0.838556 -1.71365 -0.807236 1.31282e-06 0.000328708 
0 77.8033 45.1437 -0.0252128 77.3857 45.5501 1 2691 258 -0.842224 -1.39076 -0.71402 1.23794e-06 0.000304064 
0 80.2088 45.7098 -0.00258059 79.7681 46.1741 1 2691 2399 -1.1275 -0.938437 -0.770274 1.23765e-06 0.000303971 
0 76.0315 43.1699 -0.0570146 75.6233 43.6482 1 2691 3400 -0.547791 -1.23842 -1.03875 1.18856e-06 0.000288464 
0 74.2781 42.032 0.129614 73.7526 42.4052 1 2691 4918 -1.56401 -1.1699 -0.10522 1.27382e-06 0.000315717 
0 72.0752 39.1317 0.0051695 71.5823 39.6856 1 2691 3831 -1.74909 -0.628344 -0.383177 1.27146e-06 0.000314943 
0 74.4472 40.1026 0.0869022 73.9297 40.5702 1 2691 4454 -1.76803 -1.70987 -0.37771 1.45367e-06 0.00037895 
0 84.5954 54.157 -0.0737113 84.1785 54.6481 1 2691 1252 -0.936571 -0.572473 -0.752872 1.10247e-06 0.000262345 
0 81.4256 50.8636 -0.00310502 80.8453 51.443 1 2691 34 -1.48219 -0.432658 -0.467359 1.17666e-06 0.000284776 
0 78.595 47.1297 -0.0596059 78.1253 47.702 1 2691 3382 -1.0817 -0.379762 -0.821678 1.11931e-06 0.000267352 
0 74.0822 44.9057 0.11147 73.5324 45.2887 1 2691 4081 -2.17169 -1.45315 -0.142055 1.46554e-06 0.000383462 
0 75.6397 46.8267 -0.0462722 75.1056 47.4429 1 2691 83 -1.04421 -0.492948 -0.720004 1.11074e-06 0.0002648 
0 75.7368 44.7703 0.0253854 75.2658 45.2964 1 2691 76 -0.99664 -0.782083 -0.193651 1.04221e-06 0.000244795 
0 82.6841 53.738 0.0625513 82.1468 54.2075 1 2691 44 -1.79886 -1.10343 -0.327923 1.35823e-06 0.0003443 
0 77.4215 49.0392 -0.0299913 76.9633 49.542 1 2691 4700 -1.10991 -0.689127 -0.882681 1.20551e-06 0.000293766 
0 69.1239 48.5894 -0.00920373 68.6671 49.0699 1 2691 6430 -1.14444 -0.7684 -0.873732 1.22895e-06 0.000301189 
0 90.6247 57.8304 -0.035302 91.1328 56.9882 1 2720 1300 0.949461 0.92503 0.552531 1.1446e-06 0.000274965 
0 81.6225 58.4034 -2.19547 81.3277 56.0002 1 2720 5538 0.719429 0.710632 0.492792 9.30641e-07 0.000213683 
0 76.7769 58.7118 4.376 81.0175 60.6973 1 2720 2549 0.224204 0.227288 0.0779983 6.415e-07 0.000139845 
0 79.1617 58.56 4.93577 83.9158 61.0245 1 2720 370 0.342663 0.312519 0.187748 7.84503e-07 0.000175272 
0 72.2359 59.0009 -2.74001 70.1672 55.6882 1 2720 675 0.0892907 0.0896984 0.0636357 1.21322e-07 2.45117e-05 
0 73.7681 62.6522 -0.0912677 74.3148 62.2159 1 2720 2651 1.14689 1.70592 0.523334 1.33827e-06 0.000337381 
0 72.734 60.7305 0.229431 73.3269 60.2371 1 2720 3056 0.994872 0.480872 0.690485 1.09042e-06 0.000258789 
0 75.1499 67.138 -0.0873725 75.7103 66.3995 1 2720 4033 0.647281 0.453382 0.429838 8.86121e-07 0.00020172 
0 89.5143 56.5382 -0.564207 88.2078 55.6057 1 2692 282 0.0196583 0.0281076 -0.00656011 3.71493e-08 7.42508e-06 
0 91.5855 56.7483 -0.035302 91.1328 56.9882 1 2708 1300 -1.29486 -0.887637 -0.895229 1.29712e-06 0.000323435 
0 82.418 56.8997 -2.19547 81.3277 56.0002 1 2708 5538 -0.990533 -0.962682 -0.824539 1.26216e-06 0.000311899 