ITEM: TIMESTEP
12050000
ITEM: NUMBER OF ENTRIES
3128
ITEM: BOX BOUNDS ff ff ff
-0.01 0.45
-0.15 0.15
-0.08 0.1
ITEM: ENTRIES c_pwc[1] c_pwc[2] c_pwc[3] c_pwc[4] c_pwc[5] c_pwc[6] c_pwc[7] c_pwc[8] c_pwc[9] c_pwc[10] c_pwc[11] c_pwc[12] c_pwc[13] c_pwc[14] 
0 0 0 -0.00588531 -1.97925e-06 -4.06303e-05 0 776 7649 1.24151e-07 1.20339e-05 -1.20073e-06 5.73634e-10 1.14129e-07 
0 0 0 -0.000309418 6.09763e-07 -4.1067e-06 0 776 7937 -2.13264e-08 1.05426e-05 8.22852e-08 5.25722e-10 1.04596e-07 
0 0 0 -9.6633e-06 5.92001e-07 -1.5328e-06 0 776 5540 2.11064e-08 1.06981e-05 2.68958e-07 5.30874e-10 1.05621e-07 
0 0 0 -0.000144437 2.54219e-06 1.34073e-06 0 776 1200 -4.39049e-08 1.14761e-05 1.39662e-06 5.56717e-10 1.10763e-07 
0 0 0 -3.13171e-06 2.05677e-06 9.94052e-06 0 776 1871 3.46899e-06 1.06814e-05 2.5521e-06 5.30636e-10 1.05574e-07 
0 0 0 9.55169e-06 -2.66704e-06 8.29079e-06 0 776 1972 -1.31826e-07 1.149e-05 1.42471e-06 5.56053e-10 1.10631e-07 
0 0 0 2.83136e-06 -3.46775e-06 2.39693e-06 0 776 733 1.5093e-06 1.22345e-05 3.5353e-06 5.79681e-10 1.15332e-07 
0 0 0 -0.00307464 5.89079e-12 0.00121921 0 776 10595 -1.79238e-19 1.05196e-05 -1.49742e-19 5.24825e-10 1.04417e-07 
0 0 0 -0.00155406 -3.45495e-12 0.00175049 0 776 894 1.51069e-19 1.05196e-05 2.39928e-19 5.24825e-10 1.04417e-07 
0 0 0 -0.00123931 5.40796e-12 0.00180733 0 776 9680 1.49758e-19 1.05196e-05 -2.57867e-19 5.24825e-10 1.04417e-07 
0 0 0 -8.42271e-05 3.15119e-12 0.000210805 0 776 414 7.49862e-21 1.05196e-05 -3.36149e-20 5.24825e-10 1.04417e-07 
0 0 0 6.73795e-05 8.69598e-07 -0.000121766 0 776 206 2.72685e-06 8.67954e-06 1.50331e-06 4.61884e-10 9.18942e-08 
0 0 0 -0.000103516 8.57115e-06 0.00028549 0 776 1894 -8.27966e-08 1.05716e-05 -4.93974e-08 5.28406e-10 1.0513e-07 
0 0 0 -5.52126e-05 2.43965e-06 8.40842e-05 0 776 210 1.6343e-08 8.19232e-06 8.45177e-08 4.44798e-10 8.84946e-08 
0 0 0 -0.00152503 -0.000495683 0.00549288 0 776 4413 2.43065e-06 2.77723e-05 -1.36718e-05 9.11255e-10 1.81309e-07 
0 0 0 -0.00270948 -0.000259401 0.00177799 0 776 9977 1.99258e-06 1.43122e-05 -9.85654e-06 5.91076e-10 1.17599e-07 
0 0 0 -0.00100389 -1.06968e-07 0.00114741 0 776 1225 -7.62527e-14 1.05183e-05 -3.81195e-13 5.2476e-10 1.04405e-07 
0 0 0 -0.000669527 -6.83866e-12 0.00136421 0 776 3512 7.55386e-20 1.05196e-05 -1.28072e-19 5.24825e-10 1.04417e-07 
0 0 0 1.72186e-05 3.00079e-12 1.92733e-05 0 776 690 -2.01951e-21 1.05196e-05 2.36059e-21 5.24825e-10 1.04417e-07 
0 0 0 2.86204e-05 -4.7469e-06 -6.04501e-05 0 776 280 7.88174e-07 1.01311e-05 4.82543e-07 5.1079e-10 1.01625e-07 
0 0 0 -0.000230761 -5.21976e-06 0.0006001 0 776 2352 -1.52939e-09 1.05477e-05 -4.59735e-10 5.2463e-10 1.04379e-07 
0 0 0 -0.000555844 -3.73402e-05 0.000363498 0 776 5611 2.55389e-07 1.11984e-05 -2.75302e-06 5.39169e-10 1.07271e-07 
0 0 0 -0.000774815 -5.62926e-06 8.5946e-05 0 776 9269 -4.57287e-08 1.05538e-05 -1.06218e-07 5.24745e-10 1.04402e-07 
0 0 0 -0.000289687 5.04451e-07 0.00013365 0 776 6408 3.34594e-12 1.0522e-05 3.15305e-11 5.25014e-10 1.04455e-07 
0 0 0 0.00068214 -4.52635e-07 0.000164758 0 776 101 -2.58212e-12 1.05193e-05 -5.6713e-11 5.2472e-10 1.04396e-07 
0 0 0 -0.000200951 2.06676e-06 0.000297632 0 776 317 -1.67792e-08 1.04765e-05 8.17786e-09 5.23838e-10 1.04221e-07 
0 0 0 -0.000165798 -1.40911e-05 0.000237977 0 776 1705 1.36529e-06 1.15131e-05 8.16707e-07 5.54364e-10 1.10295e-07 
0 0 0 0.000202446 -1.00213e-05 -8.54288e-06 0 776 2116 -6.09498e-07 1.12465e-05 3.39743e-07 5.46585e-10 1.08747e-07 
0 0 0 -0.000845699 -3.30693e-06 -9.93518e-05 0 776 8455 8.65195e-08 1.07046e-05 -1.78098e-07 5.30248e-10 1.05497e-07 
0 0 0 0.000145542 1.70784e-06 -0.000219599 0 776 11208 -3.41375e-08 1.07049e-05 2.46756e-07 5.31341e-10 1.05714e-07 
0 0 0 0.000242834 1.12051e-05 -0.000205642 0 776 553 -1.23698e-08 1.07959e-05 6.61104e-07 5.36391e-10 1.06719e-07 
0 0 0 -0.000342795 1.32765e-05 -0.000125602 0 776 585 1.40857e-08 1.21872e-05 2.52336e-06 5.81721e-10 1.15738e-07 
0 0 0 8.08633e-06 -3.44842e-05 -3.9941e-05 0 776 2069 1.07817e-08 8.39357e-06 2.31766e-06 4.43743e-10 8.82848e-08 
0 0 0 -9.64465e-05 -9.71383e-06 -3.41196e-06 0 776 531 2.57253e-06 1.38987e-05 4.17232e-06 6.29909e-10 1.25326e-07 
0 0 0 -0.00351969 -1.42497e-13 -0.00134029 0 776 10613 -5.91278e-19 1.05196e-05 -1.49765e-19 5.24825e-10 1.04417e-07 
0 0 0 -0.000225212 -4.19664e-05 0.000128333 0 776 6702 1.03857e-06 1.08338e-05 -2.23834e-07 5.26187e-10 1.04688e-07 
0 0 0 0.0048225 1.05708e-12 -0.00133004 0 776 1002 -8.24483e-20 1.05196e-05 -1.49742e-19 5.24825e-10 1.04417e-07 
0 0 0 -2.4815e-05 -1.78445e-09 -0.000340852 0 776 1470 2.13478e-18 1.05196e-05 1.42856e-16 5.24825e-10 1.04417e-07 
0 0 0 0.000290947 2.83965e-05 -0.000654332 0 776 154 -2.99844e-07 1.08606e-05 -1.11669e-07 5.4222e-10 1.07879e-07 
0 0 0 -3.37539e-05 4.52303e-05 -0.000131841 0 776 1045 5.17558e-06 1.49522e-05 2.8022e-06 6.72686e-10 1.33838e-07 
0 0 0 -0.00219819 -9.1454e-06 0.00331564 0 776 12304 -1.73403e-08 1.0628e-05 -1.49135e-07 5.26449e-10 1.04741e-07 
0 0 0 0.000214213 0.000154652 0.00490012 0 776 4634 4.27263e-06 8.60502e-06 5.0619e-07 4.93645e-10 9.82136e-08 
0 0 0 0.000781038 0.0001094 -0.00402678 0 776 4165 1.76106e-07 9.93518e-06 2.34295e-07 5.29106e-10 1.05269e-07 
0 0 0 0.000752216 -1.53854e-09 -0.0015495 0 776 1920 -3.07892e-16 1.05196e-05 6.99442e-16 5.24825e-10 1.04417e-07 
0 0 0 0.000399417 -7.6676e-06 -0.000365471 0 776 3087 -5.54944e-07 1.04374e-05 -9.32509e-08 5.20427e-10 1.03542e-07 
0 0 0 -0.00128078 -1.17898e-08 0.00394523 0 776 12917 4.60243e-15 1.05208e-05 -1.41778e-14 5.24863e-10 1.04425e-07 
0 0 0 -0.000688536 5.20657e-09 0.00170334 0 776 1063 -9.93693e-16 1.05196e-05 2.49078e-15 5.24828e-10 1.04418e-07 
0 0 0 0.000547859 -0.000111779 0.000828394 0 776 72 -1.30472e-05 1.21641e-05 -5.98865e-06 5.54573e-10 1.10336e-07 
0 0 0 -0.00284772 -6.51626e-12 0.00149493 0 776 4185 -2.99521e-19 1.05196e-05 -7.85386e-20 5.24825e-10 1.04417e-07 
0 0 0 0.00123298 -0.000304517 -0.00136301 0 776 4938 5.85593e-08 1.16603e-05 1.31544e-08 4.97375e-10 9.89557e-08 
0 0 0 0.00418563 4.40625e-05 9.0642e-06 0 776 18 7.05536e-09 9.77841e-06 -7.5043e-08 5.0953e-10 1.01374e-07 
0 0 0 6.46694e-05 2.07137e-05 -0.00044329 0 776 4248 -3.61242e-06 1.06681e-05 1.92739e-06 5.34227e-10 1.06288e-07 
0 0 0 -0.000313495 -3.52599e-05 0.00249187 0 776 10360 1.39206e-06 1.17914e-05 -5.23685e-07 5.58827e-10 1.11183e-07 
0 0 0 -0.000733246 -3.13243e-12 0.00107815 0 776 9715 7.48781e-20 1.05196e-05 1.5107e-19 5.24825e-10 1.04417e-07 
0 0 0 -0.0003114 5.08676e-12 -0.000741974 0 776 4095 3.74368e-20 1.05196e-05 7.48797e-20 5.24825e-10 1.04417e-07 
0 0 0 -0.000506808 4.70877e-12 -0.000745325 0 776 1367 -8.45524e-19 1.05196e-05 -1.23033e-18 5.24825e-10 1.04417e-07 
0 0 0 0.00189378 9.1259e-07 -0.00045533 0 776 1036 -3.31367e-09 1.03403e-05 1.8662e-10 5.19043e-10 1.03267e-07 
0 0 0 -0.000124276 6.02516e-05 -0.000744649 0 776 6544 -3.07953e-06 1.1645e-05 9.93531e-07 5.74439e-10 1.14289e-07 
0 0 0 -0.00038676 0.000138963 0.00263927 0 776 12116 2.03159e-07 8.20703e-06 2.2932e-08 4.76118e-10 9.47262e-08 
0 0 0 0.000444274 -2.94778e-08 0.00286207 0 776 12691 -8.49603e-14 1.05204e-05 -2.36553e-14 5.24847e-10 1.04422e-07 
0 0 0 -0.000737903 6.2134e-12 -0.00304829 0 776 8603 -9.02347e-22 1.05196e-05 -2.99519e-19 5.24825e-10 1.04417e-07 
0 0 0 -0.00120062 -1.96328e-07 -0.00256336 0 776 9639 6.4837e-14 1.05174e-05 1.38979e-13 5.24711e-10 1.04395e-07 
0 0 0 0.000641775 -1.78138e-05 -0.000789317 0 776 7185 -6.64189e-08 1.08629e-05 5.34033e-07 5.32348e-10 1.05914e-07 
0 0 0 -0.000241008 -3.69442e-05 -0.00118527 0 776 4532 -2.03627e-06 1.17163e-05 5.29145e-07 5.56053e-10 1.10631e-07 
0 0 0 0.000118744 1.71091e-08 0.00181505 0 776 14724 1.31111e-13 1.0513e-05 -9.98831e-15 5.24609e-10 1.04374e-07 
0 0 0 -9.16912e-05 4.88452e-06 -0.00012826 0 776 3983 -2.05757e-07 1.0913e-05 4.66638e-07 5.38881e-10 1.07214e-07 
0 0 0 -0.000748362 3.73864e-06 -7.00846e-05 0 776 3427 -6.97612e-08 1.04182e-05 7.35571e-07 5.22259e-10 1.03907e-07 
0 0 0 -3.9943e-05 3.20554e-05 -5.5723e-05 0 776 1118 -2.55597e-07 1.2281e-05 1.6149e-06 5.88643e-10 1.17115e-07 
0 0 0 0.000268294 4.92403e-07 1.36522e-05 0 776 10496 -1.12696e-09 1.04612e-05 1.50467e-09 5.2299e-10 1.04052e-07 
0 0 0 -0.000362264 6.67967e-07 6.2217e-05 0 776 9279 6.64809e-08 1.06085e-05 8.91014e-08 5.27922e-10 1.05034e-07 
0 0 0 -0.000136531 2.44711e-06 -1.89099e-05 0 776 7286 -2.16105e-07 1.10892e-05 1.80529e-06 5.44127e-10 1.08258e-07 
0 0 0 -4.67397e-05 -1.82295e-05 2.94738e-06 0 776 7431 -4.06394e-07 1.02302e-05 2.16872e-06 5.11192e-10 1.01705e-07 
0 0 0 -4.8732e-05 -1.3034e-05 -4.42599e-05 0 776 1366 3.18286e-07 9.3869e-06 1.22721e-06 4.83569e-10 9.62087e-08 
0 0 0 2.03424e-05 4.02689e-06 2.17713e-06 0 776 10907 -5.26175e-07 1.19366e-05 8.22986e-07 5.71808e-10 1.13766e-07 
0 0 0 0.000463945 -7.24708e-06 0.000120008 0 776 7764 -2.16687e-07 1.05819e-05 -4.45055e-08 5.25328e-10 1.04518e-07 
0 0 0 0.00049145 3.33461e-07 0.000107918 0 776 9160 -6.0731e-08 1.1141e-05 6.39633e-07 5.45365e-10 1.08504e-07 
0 0 0 -0.00060407 5.99635e-06 -9.73212e-05 0 776 5560 4.97662e-07 1.9267e-05 -1.54677e-06 7.86791e-10 1.56542e-07 
0 0 0 -2.37302e-05 -2.57676e-06 -1.16382e-05 0 776 215 -6.70825e-07 6.27586e-06 3.12066e-06 3.71332e-10 7.38776e-08 
0 0 0 -9.4296e-06 4.26444e-06 -1.21574e-05 0 776 1887 -4.30633e-07 1.35527e-05 1.70165e-06 6.2227e-10 1.23806e-07 
0 0 0 -2.61639e-05 6.8546e-07 -4.16986e-06 0 776 4164 -7.22039e-07 8.71798e-06 2.03983e-06 4.63205e-10 9.2157e-08 
0 0 0 -5.61608e-06 -1.32199e-05 6.65863e-05 0 776 5953 3.86337e-07 4.38394e-07 -5.50646e-07 5.82304e-11 1.15847e-08 
0 0 0 4.03856e-05 2.32996e-06 -3.85343e-06 0 776 7893 -9.68287e-08 1.05955e-05 -1.47987e-07 5.2785e-10 1.05019e-07 
0 0 0 -0.000131467 -1.46612e-07 -3.78675e-05 0 776 11531 7.41043e-09 1.05319e-05 -1.68981e-08 5.25203e-10 1.04493e-07 
0 0 0 -8.98556e-05 7.36177e-07 7.37391e-07 0 776 12872 5.14119e-08 1.05635e-05 2.88318e-08 5.26443e-10 1.04739e-07 
0 0 0 4.9794e-05 -1.17609e-06 -7.70317e-05 0 776 11571 1.37833e-07 1.05766e-05 3.07045e-08 5.26466e-10 1.04744e-07 
0 0 0 -4.13055e-05 2.88064e-09 0.000227774 0 776 14434 -3.49837e-17 1.05196e-05 1.8206e-16 5.24825e-10 1.04417e-07 
0 0 0 -0.000735316 -4.87864e-12 -0.000122792 0 776 634 -7.48737e-20 1.05196e-05 -1.71338e-20 5.24825e-10 1.04417e-07 
0 0 0 -8.67584e-05 1.66639e-07 -7.05679e-05 0 776 7313 -4.04959e-08 1.0667e-05 1.85956e-07 5.29751e-10 1.05398e-07 
0 0 0 -5.2624e-05 -3.38368e-06 -5.48928e-05 0 776 5950 -4.50413e-08 1.07813e-05 5.97077e-07 5.32766e-10 1.05997e-07 
0 0 0 -8.74255e-06 1.74464e-06 -6.00654e-05 0 776 7844 -2.58714e-07 1.18617e-05 1.70403e-06 5.68931e-10 1.13193e-07 
0 0 0 0.000207132 -6.09731e-10 4.35278e-05 0 776 5167 -3.50978e-17 1.05196e-05 -7.38741e-18 5.24824e-10 1.04417e-07 
0 0 0 -0.000423322 2.32947e-05 -0.000105446 0 776 10156 6.04319e-07 1.05977e-05 -2.24902e-06 5.32455e-10 1.05936e-07 
0 0 0 -1.10263e-05 5.04432e-06 -1.82803e-05 0 776 9271 -4.74824e-07 1.46753e-05 2.09502e-06 6.56272e-10 1.30572e-07 
0 0 0 -0.000186951 1.30173e-05 -4.8047e-05 0 776 3509 1.38681e-07 3.97491e-06 -1.21412e-08 2.77627e-10 5.52341e-08 
0 0 0 -9.15307e-05 8.25493e-06 -1.81985e-05 0 776 4298 1.64246e-06 1.2844e-05 -4.90297e-06 6.0126e-10 1.19626e-07 
0 0 0 -7.24404e-05 6.47655e-05 -0.000119555 0 776 14186 4.89256e-06 7.02613e-06 2.5955e-06 4.16012e-10 8.27673e-08 
0 0 0 0.000698567 5.9157e-08 -0.000369982 0 776 209 1.15745e-14 1.05195e-05 -6.08476e-15 5.24835e-10 1.04419e-07 
0 0 0 -0.000236899 -4.69793e-07 0.000272692 0 776 8382 6.51656e-09 1.05317e-05 3.15132e-09 5.25128e-10 1.04478e-07 
0 0 0 -6.42624e-05 -3.4291e-06 -0.000169158 0 776 2799 1.90797e-07 1.09255e-05 4.87515e-07 5.37502e-10 1.0694e-07 
0 0 0 -0.000137969 -6.71042e-05 0.000512771 0 776 7053 4.77364e-06 1.18552e-05 4.16617e-07 5.54117e-10 1.10246e-07 
0 0 0 0.00133079 -5.54946e-12 0.00115834 0 776 13004 1.49763e-19 1.05196e-05 1.49743e-19 5.24825e-10 1.04417e-07 
0 0 0 0.000726232 -2.00449e-12 -0.000682178 0 776 7800 7.4882e-20 1.05196e-05 -7.48817e-20 5.24825e-10 1.04417e-07 
0 0 0 -0.00020117 -3.19685e-12 -0.000645895 0 776 9721 -3.79727e-20 1.05196e-05 6.15122e-20 5.24825e-10 1.04417e-07 
0 0 0 -6.71988e-05 2.54159e-06 -0.000143232 0 776 7390 7.61152e-07 1.19787e-05 7.96521e-07 5.72831e-10 1.13969e-07 
0 0 0 -9.88032e-05 1.21093e-05 0.00019482 0 776 3286 1.21766e-06 5.07584e-06 -2.22673e-06 3.25832e-10 6.48249e-08 
0 0 0 -0.000295751 -2.09716e-05 0.000296625 0 776 1306 -2.86696e-06 1.11105e-05 -3.6852e-06 5.39801e-10 1.07397e-07 
0 0 0 -0.00184011 1.86275e-12 0.000973132 0 776 9809 3.00845e-19 1.05196e-05 -1.50411e-19 5.24825e-10 1.04417e-07 
0 0 0 0.000117936 -4.58265e-12 0.000159225 0 776 5373 4.41141e-21 1.05196e-05 1.87186e-20 5.24825e-10 1.04417e-07 
0 0 0 -6.01203e-05 2.76876e-06 -0.000150388 0 776 163 2.51028e-06 1.25738e-05 -1.34021e-07 5.91676e-10 1.17719e-07 
0 0 0 -4.79312e-05 5.62622e-06 -2.54252e-06 0 776 7072 -3.72882e-06 9.8098e-06 -3.7974e-07 5.02178e-10 9.99113e-08 
0 0 0 9.18795e-05 -2.47977e-06 4.26276e-05 0 776 3631 9.85656e-07 8.28929e-06 -2.54995e-06 4.47187e-10 8.89701e-08 
0 0 0 3.59685e-06 -2.27092e-06 3.17294e-05 0 776 7750 1.41725e-06 9.27527e-06 -3.82526e-06 4.82078e-10 9.59121e-08 
0 0 0 0.000491954 2.1856e-12 5.82648e-07 0 776 7121 7.48767e-20 1.05196e-05 7.37644e-23 5.24825e-10 1.04417e-07 
0 0 0 3.61658e-06 -1.15751e-05 -0.000112214 0 776 7763 -2.13195e-06 1.32085e-05 3.51266e-06 6.08408e-10 1.21048e-07 
0 0 0 -0.000213803 -4.10102e-12 -0.000128015 0 776 7846 -3.16955e-20 1.05196e-05 -1.58584e-20 5.24825e-10 1.04417e-07 
0 0 0 3.58425e-05 6.37331e-12 -8.88259e-05 0 776 9654 -4.72104e-21 1.05196e-05 9.35916e-21 5.24825e-10 1.04417e-07 
0 0 0 1.14013e-05 -3.02303e-06 -1.72123e-06 0 776 6920 -1.37029e-06 1.29298e-05 -6.0626e-07 6.01565e-10 1.19686e-07 
0 0 0 0.000888855 5.77861e-05 0.000248319 0 776 7804 -9.21647e-07 1.19356e-05 9.06681e-07 5.83166e-10 1.16026e-07 
0 0 0 -7.25187e-05 2.16619e-05 6.31025e-05 0 776 4357 2.06662e-06 1.1882e-05 3.24241e-06 5.73805e-10 1.14163e-07 
0 0 0 4.01002e-05 -5.19657e-06 3.39624e-05 0 776 7583 9.88679e-07 9.65348e-06 2.29222e-06 4.94469e-10 9.83775e-08 
0 0 0 1.86965e-05 -2.9798e-06 2.00304e-05 0 776 2843 6.35143e-07 1.02387e-05 -5.3309e-07 5.14795e-10 1.02422e-07 
0 0 0 0.000527168 6.99777e-07 0.000519226 0 776 9156 -4.11989e-13 1.05026e-05 6.36104e-13 5.24412e-10 1.04335e-07 
0 0 0 3.60799e-05 1.04838e-05 3.83725e-06 0 776 6792 1.9758e-06 1.14217e-05 -2.81581e-06 5.56653e-10 1.1075e-07 
0 0 0 -1.75712e-05 -8.83489e-07 -6.36926e-05 0 776 1969 3.95666e-07 1.09277e-05 -6.67348e-07 5.38121e-10 1.07063e-07 
0 0 0 1.94348e-05 -1.024e-05 7.04205e-06 0 776 1352 7.34664e-07 1.44521e-05 3.44408e-06 6.46479e-10 1.28623e-07 
0 0 0 0.000637629 4.63263e-05 0.000101776 0 776 8712 -2.01993e-06 1.22583e-05 1.97518e-06 5.9094e-10 1.17572e-07 
0 0 0 0.00111311 -2.53094e-05 0.000578362 0 776 221 -3.26733e-07 5.33178e-06 5.50297e-09 3.27502e-10 6.51572e-08 
0 0 0 -7.25865e-06 -1.83875e-07 -0.000177674 0 776 3055 1.04324e-12 1.05223e-05 2.02768e-12 5.24875e-10 1.04427e-07 
0 0 0 -4.17558e-06 5.41113e-06 -4.82211e-05 0 776 570 -1.84329e-06 1.23017e-05 3.1516e-06 5.83677e-10 1.16127e-07 
0 0 0 -8.2154e-06 -2.20588e-06 -3.14106e-05 0 776 6387 -9.79184e-07 7.57364e-06 8.25254e-07 4.21087e-10 8.37769e-08 
0 0 0 0.000405705 -1.65811e-05 0.000171841 0 776 4008 -7.08531e-07 1.0831e-05 1.24868e-07 5.3156e-10 1.05758e-07 
0 0 0 -8.92231e-05 -2.81016e-12 -0.000410159 0 776 6055 -9.35974e-21 1.05196e-05 -6.17681e-20 5.24825e-10 1.04417e-07 
0 0 0 7.3646e-05 -6.17799e-06 -2.34209e-05 0 776 8814 -2.72263e-06 7.8386e-06 2.56621e-06 4.29962e-10 8.55428e-08 
0 0 0 -0.000108945 -3.76314e-11 -0.000155314 0 776 8325 1.14169e-18 1.05196e-05 1.62665e-18 5.24825e-10 1.04417e-07 
0 0 0 -8.5467e-05 -1.95164e-05 -0.000336432 0 776 2925 -2.28863e-06 1.28775e-05 2.75656e-06 5.96491e-10 1.18677e-07 
0 0 0 -0.000336021 1.85885e-06 5.08343e-05 0 776 7454 -5.71832e-10 1.05401e-05 5.65641e-10 5.25908e-10 1.04633e-07 
0 0 0 2.74397e-05 -1.42715e-05 -1.40488e-05 0 776 8088 4.2555e-07 1.14762e-05 6.00543e-07 5.53132e-10 1.1005e-07 
0 0 0 0.000447772 6.41749e-06 -0.000215231 0 776 5213 -9.77594e-07 1.12348e-05 7.65041e-07 5.49723e-10 1.09371e-07 
0 0 0 -0.000304609 -1.8903e-06 -4.86804e-05 0 776 1376 1.79347e-09 1.04975e-05 -1.86078e-09 5.23682e-10 1.0419e-07 
0 0 0 -0.000277841 -1.04037e-07 5.91608e-05 0 776 6636 1.193e-12 1.05191e-05 2.17848e-13 5.24786e-10 1.0441e-07 
0 0 0 -1.6366e-05 -6.2964e-06 -9.59676e-05 0 776 3905 8.14448e-08 1.06387e-05 1.43772e-07 5.2742e-10 1.04934e-07 
0 0 0 -2.88065e-06 -4.78114e-08 9.20663e-05 0 776 7120 -2.21532e-14 1.0521e-05 5.1378e-14 5.24863e-10 1.04425e-07 
0 0 0 -2.24011e-06 -1.60337e-07 0.000237404 0 776 2205 -3.65024e-16 1.05194e-05 -1.2019e-14 5.24786e-10 1.0441e-07 
0 0 0 -0.000276465 -2.27912e-05 -0.000357005 0 776 382 -3.59858e-07 1.10329e-05 9.15656e-07 5.36866e-10 1.06813e-07 
0 0 0 -6.25329e-05 -7.62534e-06 -0.000354184 0 776 4654 -7.65388e-07 1.16443e-05 1.77072e-06 5.5997e-10 1.1141e-07 
0 0 0 -0.00122913 4.43859e-08 0.000627124 0 776 4821 -1.54274e-14 1.05187e-05 7.89225e-15 5.24806e-10 1.04414e-07 
0 0 0 -0.000231827 6.60074e-06 -0.000287216 0 776 4483 6.66225e-07 1.19206e-05 4.83258e-07 5.71843e-10 1.13773e-07 
0 0 0 0.000195493 1.54343e-05 -0.00022947 0 776 6601 6.09417e-08 1.13601e-05 8.37431e-07 5.55716e-10 1.10564e-07 
0 0 0 -0.000427376 1.35906e-05 -0.000840401 0 776 758 1.13859e-09 1.05943e-05 7.14681e-10 5.30245e-10 1.05496e-07 
0 0 0 -0.000232932 7.43173e-06 -6.93408e-05 0 776 112 1.06494e-06 1.03297e-05 3.88973e-07 5.20103e-10 1.03478e-07 
0 0 0 -0.000112063 -9.97403e-06 -0.000354451 0 776 3641 6.47205e-08 1.10677e-05 5.79594e-07 5.4076e-10 1.07588e-07 
0 0 0 -4.09637e-05 -2.76789e-05 -1.94532e-05 0 776 7706 6.61971e-07 1.08351e-05 -1.33926e-07 5.29307e-10 1.05309e-07 
0 0 0 9.59606e-05 4.32384e-06 1.73991e-05 0 776 7811 -4.4903e-07 1.09222e-05 4.61618e-07 5.39061e-10 1.0725e-07 
0 0 0 -2.29824e-05 -1.75042e-05 -0.000175807 0 776 3393 -2.21957e-07 1.16305e-05 2.03629e-06 5.57427e-10 1.10904e-07 
0 0 0 7.53427e-05 -1.33943e-05 -8.75806e-05 0 776 39 -8.67374e-08 9.59975e-06 7.86481e-07 4.90826e-10 9.76527e-08 
0 0 0 -0.000328286 -1.3414e-05 -0.00018336 0 776 5889 1.18765e-07 1.10083e-05 7.07064e-07 5.38075e-10 1.07054e-07 
0 0 0 0.000113275 3.57454e-06 -2.96188e-05 0 776 9095 4.30435e-07 1.22198e-05 1.37054e-06 5.80703e-10 1.15535e-07 
0 0 0 -0.000115196 -1.91772e-05 -0.000156135 0 776 9394 7.91352e-07 1.22426e-05 2.01952e-06 5.76624e-10 1.14724e-07 
0 0 0 2.59081e-05 -0.000251995 0.00146145 0 778 4719 -6.75457e-07 1.03857e-05 4.86528e-07 5.21965e-10 1.03848e-07 
0 0 0 -0.00138619 -0.000436004 0.00189234 0 778 14170 2.19457e-06 1.07062e-05 1.8557e-07 5.08612e-10 1.01192e-07 
0 0 0 0.00227124 -0.00037295 0.00206722 0 778 12757 5.58358e-07 1.01624e-05 -3.89603e-07 5.07512e-10 1.00973e-07 
0 0 0 -0.00465265 -2.96585e-06 1.84005e-05 0 778 3129 3.94122e-07 1.11285e-05 -5.47337e-07 5.35476e-10 1.06537e-07 
0 0 0 0.00641197 -0.00945189 0.0505631 0 778 16349 4.76304e-19 1.02659e-05 1.35713e-06 5.18851e-10 1.03229e-07 
0 0 0 0.00652242 -0.000388014 0.00196973 0 778 11726 -7.20055e-08 9.66019e-06 1.17018e-06 4.93297e-10 9.81443e-08 
0 0 0 0.00314358 -0.000243232 0.00414507 0 778 7654 8.84043e-07 1.64463e-05 -4.66105e-06 7.80109e-10 1.55213e-07 
0 0 0 0.00542371 -0.00966303 0.0516926 0 778 14539 6.18409e-19 1.02659e-05 1.35713e-06 5.18851e-10 1.03229e-07 
0 0 0 -0.000515525 0.00303898 0.00302645 0 778 5338 1.13576e-05 -1.24821e-05 -1.75905e-05 3.0026e-10 5.97371e-08 
0 0 0 0.00114964 -0.00112053 0.0108086 0 778 14580 4.14837e-07 1.14815e-05 -3.27223e-06 7.20333e-10 1.43319e-07 
0 0 0 -0.00139781 -3.50073e-05 0.000335627 0 778 988 2.34081e-08 1.06807e-05 1.60224e-06 5.39764e-10 1.0739e-07 
0 0 0 0.00382077 -0.000272272 0.00390705 0 778 15828 -1.42902e-05 9.03182e-06 -1.7738e-05 4.53281e-10 9.01825e-08 
0 0 0 -0.0527915 -0.00293064 0.0156775 0 778 16870 4.42304e-18 1.02659e-05 1.35713e-06 5.18851e-10 1.03229e-07 
0 0 0 0.0164506 -0.00314297 0.0181084 0 778 8467 -9.38417e-08 8.70053e-06 1.00702e-06 5.16829e-10 1.02826e-07 
0 0 0 0.00158294 -0.000406642 0.00194274 0 778 15381 -1.85154e-06 1.07113e-05 3.26766e-06 5.3575e-10 1.06591e-07 
0 0 0 0.000348174 -4.47216e-05 0.000243425 0 778 12332 -4.35301e-09 9.90831e-06 1.23084e-06 5.06409e-10 1.00753e-07 
0 0 0 0.00693594 -0.00978365 0.0523378 0 778 752 6.57805e-19 1.02659e-05 1.35713e-06 5.18851e-10 1.03229e-07 
0 0 0 0.000535748 -0.000184945 0.000993113 0 778 17589 3.19827e-08 9.31832e-06 1.06328e-06 4.85494e-10 9.65918e-08 
0 0 0 -0.0239997 -0.00298747 0.0159834 0 778 8496 -2.2123e-12 1.02673e-05 1.35744e-06 5.18975e-10 1.03254e-07 
0 0 0 -0.000548294 -0.000691848 0.00369926 0 778 12335 1.43955e-13 1.02631e-05 1.35657e-06 5.18685e-10 1.03196e-07 
0 0 0 0.00171624 -0.000621071 0.00326801 0 778 2108 -4.74969e-10 1.00868e-05 1.31324e-06 5.10497e-10 1.01567e-07 
0 0 0 -0.000119997 -0.000617053 0.00335845 0 778 16821 6.27914e-11 1.01769e-05 1.29576e-06 5.1784e-10 1.03028e-07 
0 0 0 -0.00368506 -0.00166397 0.00731083 0 778 11974 -1.21677e-07 1.43669e-05 2.4449e-06 5.92265e-10 1.17836e-07 
0 0 0 -0.00392621 -0.00142135 0.00778494 0 778 15203 -1.43107e-07 5.73828e-06 9.44505e-07 3.6143e-10 7.19074e-08 
0 0 0 -0.000840577 -0.00136867 0.00796658 0 778 15785 1.04474e-07 1.03137e-05 -1.10952e-08 5.3779e-10 1.06997e-07 
0 0 0 -0.00547031 -0.00127796 0.00684261 0 778 7470 -1.71224e-12 1.02699e-05 1.35798e-06 5.19232e-10 1.03305e-07 
0 0 0 -0.00970734 -0.00388487 0.0207842 0 778 7967 -1.18038e-12 1.02602e-05 1.35604e-06 5.18737e-10 1.03206e-07 
0 0 0 -0.00231156 -0.00130385 0.00739536 0 778 4848 -3.34529e-09 9.66745e-06 1.11287e-06 5.14393e-10 1.02342e-07 
0 0 0 -0.00519932 -0.00152985 0.0081255 0 778 13645 1.5503e-11 1.02782e-05 1.35886e-06 5.16934e-10 1.02847e-07 
0 0 0 -0.00560155 -0.00154321 0.00825077 0 778 18001 8.02345e-13 1.02943e-05 1.36263e-06 5.19631e-10 1.03384e-07 
0 0 0 -0.000784273 -0.00183224 0.00979965 0 778 16369 1.38635e-13 1.02702e-05 1.35796e-06 5.18922e-10 1.03243e-07 
0 0 0 -0.00465445 -0.000561693 0.00311867 0 778 13193 -2.88985e-11 1.0362e-05 1.37711e-06 5.26663e-10 1.04783e-07 
0 0 0 -0.00401082 -0.000862212 0.00388747 0 778 13527 3.84634e-06 1.38179e-05 1.33191e-07 5.9543e-10 1.18466e-07 
0 0 0 -0.00480725 -0.00125427 0.00681426 0 778 1637 -1.11856e-08 9.7155e-06 1.22382e-06 5.03967e-10 1.00267e-07 
0 0 0 0.0299134 -0.00558731 0.0298895 0 778 13872 -4.84346e-18 1.02659e-05 1.35713e-06 5.18851e-10 1.03229e-07 
0 0 0 -0.00404977 -0.000751601 0.00398521 0 778 16168 7.8872e-10 1.13613e-05 1.56257e-06 5.54098e-10 1.10242e-07 
0 0 0 -0.00441059 -0.000675805 0.00402373 0 778 17147 1.44486e-06 7.87538e-06 3.59165e-06 4.68633e-10 9.3237e-08 
0 0 0 -0.000346869 -0.000105762 0.000615028 0 778 13175 -1.06205e-08 9.03522e-06 9.58396e-07 4.77005e-10 9.49027e-08 
0 0 0 0.0359873 -0.00467782 0.0250241 0 778 874 -1.23072e-18 1.02659e-05 1.35713e-06 5.18851e-10 1.03229e-07 
0 0 0 -0.00240229 -0.000473453 0.00261241 0 778 12749 -1.06751e-07 9.31612e-06 1.13674e-06 4.88964e-10 9.72823e-08 
0 0 0 -0.000505037 -1.51412e-05 0.000289999 0 778 15517 2.6973e-06 8.1701e-06 2.94314e-06 4.66462e-10 9.2805e-08 
0 0 0 4.66984e-05 -6.70388e-05 0.000191285 0 778 5399 3.21497e-07 1.18156e-05 -1.20328e-06 5.46928e-10 1.08815e-07 
0 0 0 -0.00336115 -0.000408352 0.00215475 0 778 17453 -8.55071e-10 1.03956e-05 1.38373e-06 5.22086e-10 1.03873e-07 
0 0 0 0.000907168 -0.000202662 0.00129506 0 778 10441 -4.5915e-07 1.06389e-05 7.25468e-07 5.35579e-10 1.06557e-07 
0 0 0 -3.46973e-05 5.54181e-05 -7.45928e-05 0 778 15806 -1.05647e-06 8.70757e-06 8.26645e-06 5.1893e-10 1.03244e-07 
0 0 0 -0.000993611 -8.97511e-05 0.000526693 0 778 1903 6.13796e-11 1.00567e-05 1.31682e-06 5.13565e-10 1.02177e-07 
0 0 0 0.000417386 -8.29578e-05 -1.83415e-05 0 778 2010 -2.59557e-07 7.52281e-06 5.61992e-07 3.99335e-10 7.94492e-08 
0 0 0 0.000960534 -7.53488e-05 0.000438388 0 778 9574 -1.7893e-06 1.48034e-05 2.94296e-06 6.68908e-10 1.33086e-07 
0 0 0 -0.00589501 0.00115843 -0.00503199 0 778 8602 -3.39426e-10 7.95041e-06 9.08065e-07 4.85094e-10 9.65121e-08 
0 0 0 0.00101851 -5.3543e-05 0.000408161 0 778 18020 -1.23707e-06 1.20777e-05 2.93093e-06 5.90678e-10 1.1752e-07 
0 0 0 0.000819101 -5.52351e-05 0.000296845 0 778 3783 -7.13446e-07 1.14103e-05 3.62662e-06 5.69276e-10 1.13262e-07 
0 0 0 0.00114447 -5.30753e-05 0.000344508 0 778 7627 -1.29774e-07 7.434e-06 1.42851e-06 4.23997e-10 8.4356e-08 
0 0 0 -0.000510657 -7.31345e-05 -0.000294853 0 778 702 3.52544e-07 9.74377e-06 1.98688e-06 4.7793e-10 9.50868e-08 
0 0 0 0.000264891 -8.33796e-05 0.000432538 0 778 16602 1.38384e-06 1.02548e-05 1.66984e-07 5.10604e-10 1.01588e-07 
0 0 0 0.000101004 -3.4518e-05 -0.000194272 0 778 9644 -1.22426e-07 9.61267e-06 1.42842e-06 4.82322e-10 9.59606e-08 
0 0 0 0.000613316 0.000137513 -0.000708297 0 778 6537 6.47473e-07 1.08546e-05 2.45498e-06 5.45713e-10 1.08574e-07 
0 0 0 -7.56793e-05 0.000143486 5.81743e-06 0 778 6441 1.16517e-06 8.62778e-06 1.3026e-06 4.94858e-10 9.8455e-08 
0 0 0 0.000139443 4.81016e-05 -0.000272707 0 778 5728 -3.74899e-07 1.20251e-05 1.80811e-06 5.77221e-10 1.14843e-07 
0 0 0 -4.36942e-05 -7.11833e-06 -5.25687e-05 0 778 11852 7.39149e-07 1.21188e-05 6.7864e-06 6.05835e-10 1.20536e-07 
0 0 0 -7.37938e-05 1.55444e-05 -1.76282e-05 0 778 17490 -1.12897e-06 3.40261e-06 7.26681e-07 2.54092e-10 5.05516e-08 
0 0 0 0.0483978 -0.00429803 0.0229924 0 778 6436 -3.18642e-18 1.02659e-05 1.35713e-06 5.18851e-10 1.03229e-07 
0 0 0 0.00714537 -1.10502e-05 5.9283e-05 0 778 8211 6.05982e-14 1.02667e-05 1.3573e-06 5.18886e-10 1.03236e-07 
0 0 0 -0.0960722 -0.0408328 0.218436 0 778 10781 -1.74177e-18 1.02659e-05 1.35713e-06 5.18851e-10 1.03229e-07 
0 0 0 -0.0763541 -0.00204737 0.0109526 0 778 15810 5.82468e-05 1.38409e-05 -1.77676e-05 5.18854e-10 1.03229e-07 
0 0 0 -0.000271091 -2.98053e-05 -3.09771e-05 0 778 4132 -1.82644e-07 8.83785e-06 1.05515e-06 4.61026e-10 9.17234e-08 
0 0 0 -0.0075534 -8.68745e-05 0.000221755 0 778 18396 1.68039e-07 1.09666e-05 3.03581e-06 5.42149e-10 1.07864e-07 
0 0 0 0.000631711 -0.000240837 0.000959667 0 778 9557 -3.67268e-08 9.64174e-06 1.16439e-06 4.8366e-10 9.62269e-08 
0 0 0 0.0127762 -0.0050373 0.0267034 0 778 6450 -2.25134e-06 1.2743e-05 -3.23799e-06 5.61283e-10 1.11672e-07 
0 0 0 0.0142473 0.0204277 -0.0299536 0 778 14062 -4.75416e-06 1.70186e-05 -3.42683e-06 3.30572e-09 6.57923e-07 
0 0 0 0.00347475 -0.000249226 0.00108472 0 778 8100 3.08084e-11 1.02566e-05 1.34672e-06 5.08567e-10 1.01183e-07 
0 0 0 0.0446181 0.00185305 -0.00972388 0 778 4777 1.11002e-08 8.63102e-06 1.03235e-06 4.69248e-10 9.33594e-08 
0 0 0 0.000704202 -0.000803033 0.00530399 0 778 10802 -1.72354e-06 9.84799e-06 1.32291e-06 5.45277e-10 1.08487e-07 
0 0 0 0.00656194 -5.06084e-05 0.000178301 0 778 924 3.37447e-08 1.12841e-05 1.54463e-06 5.49299e-10 1.09287e-07 
0 0 0 -0.00221796 -0.000548281 0.000591583 0 778 9184 1.75816e-05 2.07254e-05 -7.12261e-06 6.95813e-10 1.3844e-07 
0 0 0 0.00311539 -0.000488851 0.00365095 0 778 2102 -5.65419e-07 1.17471e-05 2.21961e-06 6.11852e-10 1.21733e-07 
0 0 0 -0.00183418 -0.00148565 0.0101751 0 778 6612 8.12508e-07 1.17045e-05 -3.29443e-06 6.25355e-10 1.2442e-07 
0 0 0 -0.00170087 4.96072e-05 -0.000617413 0 778 7257 3.74164e-07 5.30691e-06 3.73852e-07 3.15992e-10 6.28671e-08 
0 0 0 -0.0040493 0.000183385 -0.00286201 0 778 8832 3.12885e-07 1.59208e-05 2.2011e-06 6.2599e-10 1.24547e-07 
0 0 0 -0.000792728 -0.00117716 0.00691856 0 778 4160 4.5536e-05 7.73435e-06 -8.15904e-06 3.92146e-10 7.80187e-08 
0 0 0 -0.00269466 -0.00035631 0.00186509 0 778 13493 5.03665e-06 1.34445e-05 -1.60291e-06 6.0035e-10 1.19445e-07 
0 0 0 0.00116664 0.000142046 0.000416922 0 778 4952 7.43076e-07 1.01518e-05 1.17568e-06 5.61e-10 1.11615e-07 
0 0 0 -0.000856823 -0.000502155 0.00428742 0 778 11962 2.35765e-06 9.21794e-06 2.17163e-06 5.53726e-10 1.10168e-07 
0 0 0 -0.00882481 -0.00151688 0.00811458 0 778 14994 2.77115e-15 1.02658e-05 1.35712e-06 5.18848e-10 1.03228e-07 
0 0 0 -0.0136702 -0.000485102 0.00247001 0 778 15835 -4.61164e-10 1.02245e-05 1.35199e-06 5.12468e-10 1.01959e-07 
0 0 0 0.000777591 -9.14171e-05 0.000774895 0 778 10116 1.32655e-07 1.02744e-05 1.41093e-06 5.30859e-10 1.05618e-07 
0 0 0 0.00654594 -0.0111974 0.059901 0 778 1313 -5.60065e-19 1.02956e-05 1.19817e-06 5.18851e-10 1.03229e-07 
0 0 0 -0.0128848 -0.000839035 0.00456837 0 778 15146 -4.13373e-11 1.00432e-05 1.31431e-06 5.14438e-10 1.02351e-07 
0 0 0 -0.000265578 -4.30413e-05 0.000347543 0 778 14048 -2.40607e-08 8.9815e-06 1.13924e-06 4.79096e-10 9.53188e-08 
0 0 0 -0.000553499 2.96511e-05 0.000259588 0 778 14597 6.05372e-06 1.25647e-05 5.92942e-06 6.33911e-10 1.26122e-07 
0 0 0 0.00270558 -0.00297242 0.00767271 0 780 17363 1.27908e-19 9.53905e-06 2.53098e-06 5.00925e-10 9.96621e-08 
0 0 0 0.00208674 -0.00606782 0.0156628 0 780 10209 1.58228e-18 9.53905e-06 2.53098e-06 5.00925e-10 9.96621e-08 
0 0 0 2.45335 -12.0148 -0.165599 0 920 4417 -0.0229601 0.0551045 0.0978691 1.76071e-07 3.58305e-05 
0 0 0 -0.210447 -8.21114 3.70377 0 924 16270 0.000791406 0.0108518 0.0197746 6.59871e-08 1.32372e-05 
0 0 0 0.000157354 -1.26257e-05 -2.9867e-05 0 775 6076 1.47959e-06 1.43362e-05 3.90026e-06 6.14517e-10 1.22264e-07 
0 0 0 0.000104002 2.40597e-06 -0.000467468 0 775 12 -1.07142e-06 6.51934e-07 3.09838e-06 5.98732e-11 1.19115e-08 
0 0 0 -0.00068373 -0.000390557 -0.00203685 0 775 3998 6.14397e-07 1.08089e-05 -1.621e-06 5.36076e-10 1.06656e-07 
0 0 0 -0.000341432 -0.000213929 -0.0011843 0 775 9210 9.05946e-07 9.83326e-06 -1.56934e-06 5.0745e-10 1.0096e-07 
0 0 0 9.31754e-05 4.17981e-05 0.00014369 0 775 5900 -4.35751e-07 8.85028e-06 1.12719e-06 4.58326e-10 9.11862e-08 
0 0 0 1.05819e-05 2.02287e-05 4.92391e-05 0 775 1890 -8.57558e-07 1.2721e-05 2.18695e-06 5.78523e-10 1.15102e-07 
0 0 0 5.3828e-06 -1.17177e-06 1.45232e-05 0 775 6574 3.09071e-06 1.12366e-05 -2.12753e-06 5.54068e-10 1.10236e-07 
0 0 0 -6.38372e-06 3.71748e-07 -1.38257e-05 0 775 1749 2.75529e-06 1.01123e-05 -1.93545e-06 5.17986e-10 1.03057e-07 