ITEM: TIMESTEP
4500000
ITEM: NUMBER OF ENTRIES
1536
ITEM: BOX BOUNDS ff ff ff
-0.01 0.45
-0.15 0.15
-0.08 0.1
ITEM: ENTRIES c_pwc[1] c_pwc[2] c_pwc[3] c_pwc[4] c_pwc[5] c_pwc[6] c_pwc[7] c_pwc[8] c_pwc[9] c_pwc[10] c_pwc[11] c_pwc[12] c_pwc[13] c_pwc[14] 
0 0 0 1.07684 -13.2641 16.9418 0 928 8656 -0.00139467 0.00189344 0.00326399 1.37905e-07 2.79227e-05 
0 0 0 0.810633 -6.71465 6.431 0 926 465 0.0103703 0.0305716 0.0213575 1.74215e-07 3.54442e-05 
0 0 0 -0.000650675 -0.283256 0.141045 0 788 8128 -2.6772e-10 0.000340763 -0.000164442 3.06252e-10 6.09293e-08 
0 0 0 0.108009 -0.0149788 0.0386647 0 780 1225 -8.32358e-20 9.53905e-06 2.53098e-06 5.00925e-10 9.96621e-08 
0 0 0 -0.0158363 -0.0128269 0.0692392 0 778 5540 4.98574e-05 2.76459e-05 -0.000119838 3.54032e-10 7.04355e-08 
0 0 0 0.00371534 -0.00545925 0.0292044 0 778 6702 -2.07426e-18 1.02659e-05 1.35713e-06 5.18851e-10 1.03229e-07 
0 0 0 -0.134676 0.0116993 -0.0625894 0 778 634 -5.04013e-06 1.03898e-05 7.47549e-07 5.19028e-10 1.03264e-07 
0 0 0 -0.124154 0.0294933 -0.157775 0 778 7390 7.5646e-15 1.02659e-05 1.35713e-06 5.1885e-10 1.03229e-07 
0 0 0 0.0192157 6.69285e-07 0.00355514 0 776 4164 3.58024e-12 1.05201e-05 6.59758e-13 5.24989e-10 1.0445e-07 
0 0 0 0.0196906 2.19358e-08 0.00476982 0 776 72 1.20644e-13 1.05195e-05 2.92246e-14 5.24827e-10 1.04418e-07 
0 0 0 -5.97976e-05 -1.96645e-08 -0.000789212 0 776 1200 3.27098e-16 1.05195e-05 4.31705e-15 5.24819e-10 1.04416e-07 
0 0 0 0.00107841 -1.60903e-07 -0.000463884 0 776 1871 -4.86199e-14 1.05206e-05 2.0914e-14 5.24824e-10 1.04417e-07 
0 0 0 0.000149517 8.10887e-06 -0.000299797 0 776 206 1.00593e-07 1.1157e-05 5.27527e-07 5.47555e-10 1.0894e-07 
0 0 0 0.000601307 2.24074e-06 -0.000292618 0 776 1972 -1.48695e-08 1.02242e-05 9.11177e-07 5.15442e-10 1.02551e-07 
0 0 0 3.77223e-05 3.00806e-05 -0.000388605 0 776 733 1.35725e-07 1.08906e-05 9.48448e-07 5.43567e-10 1.08146e-07 
0 0 0 0.00609172 -3.36444e-09 0.0176661 0 776 690 -5.65626e-15 1.05195e-05 -1.64033e-14 5.24823e-10 1.04417e-07 
0 0 0 0.00107047 -2.81016e-12 -0.00641553 0 776 280 -1.14286e-19 1.05196e-05 5.13006e-19 5.24825e-10 1.04417e-07 
0 0 0 0.000249228 2.50729e-12 -0.0017322 0 776 210 3.66506e-20 1.05196e-05 3.00843e-19 5.24825e-10 1.04417e-07 
0 0 0 -0.00872076 1.00217e-05 0.0117434 0 776 414 -2.43896e-11 1.04728e-05 3.2843e-11 5.2544e-10 1.0454e-07 
0 0 0 0.000563336 7.31023e-07 -0.00252037 0 776 1894 -5.87587e-08 1.10789e-05 4.86533e-08 5.43422e-10 1.08118e-07 
0 0 0 0.0236623 5.0752e-12 -0.00200794 0 776 553 -3.29806e-18 1.05196e-05 3.01188e-19 5.24825e-10 1.04417e-07 
0 0 0 -0.00917994 4.12542e-13 0.00567148 0 776 101 -7.94372e-19 1.05196e-05 5.99016e-19 5.24825e-10 1.04417e-07 
0 0 0 0.00343425 4.12537e-13 0.000149255 0 776 317 -3.62008e-19 1.05196e-05 -1.87187e-20 5.24825e-10 1.04417e-07 
0 0 0 0.00101588 5.23394e-06 -0.00329922 0 776 1705 -2.45146e-07 9.93446e-06 1.11366e-06 5.06324e-10 1.00736e-07 
0 0 0 0.00727747 2.9907e-12 0.0043267 0 776 4095 9.7018e-20 1.05196e-05 -5.99042e-19 5.24825e-10 1.04417e-07 
0 0 0 -0.0104776 4.76317e-12 -0.000817976 0 776 1002 8.01851e-19 1.05196e-05 1.00296e-19 5.24825e-10 1.04417e-07 
0 0 0 -0.00258738 -4.79105e-05 -0.00165911 0 776 585 2.04025e-08 1.09924e-05 1.03625e-06 5.30141e-10 1.05475e-07 
0 0 0 0.00106566 -2.28998e-06 -0.0023014 0 776 2069 9.21753e-07 1.0967e-05 3.09423e-06 5.3911e-10 1.0726e-07 
0 0 0 -0.000125337 -9.32048e-05 -0.00112784 0 776 531 -1.604e-07 1.55192e-05 3.4606e-06 6.61218e-10 1.31556e-07 
0 0 0 -0.013257 -0.000123041 -0.0108201 0 776 3491 6.02247e-05 5.98996e-06 6.10594e-05 3.31316e-10 6.5916e-08 
0 0 0 -0.0160638 7.05304e-05 0.00672808 0 776 4165 -7.80356e-07 9.61237e-06 -1.76181e-05 5.09697e-10 1.01408e-07 
0 0 0 -0.0066791 -1.52984e-10 -0.00173145 0 776 1470 2.92404e-16 1.05196e-05 7.57794e-17 5.24825e-10 1.04417e-07 
0 0 0 0.000199773 -8.54836e-06 0.000252223 0 776 154 -3.03549e-06 1.07835e-05 -1.44621e-06 5.31725e-10 1.0579e-07 
0 0 0 -0.0123237 -0.000328555 0.00437301 0 776 3630 8.58829e-06 1.93282e-05 -4.43129e-06 7.23056e-10 1.4386e-07 
0 0 0 -0.0133901 -0.000564221 0.0018377 0 776 1920 1.20321e-05 8.5669e-06 -3.76606e-06 3.31993e-10 6.60507e-08 
0 0 0 -0.0118184 0.00134213 0.00303162 0 776 18 1.14765e-06 -3.10951e-06 -1.04888e-06 2.96237e-10 5.89366e-08 
0 0 0 -0.00425888 5.25574e-06 -0.00775699 0 776 1890 -2.85343e-11 1.03056e-05 -4.9324e-12 5.18825e-10 1.03224e-07 
0 0 0 0.00211702 0.00198243 0.0157622 0 776 1887 9.79351e-06 2.89466e-05 -1.06566e-05 1.39121e-09 2.76819e-07 
0 0 0 -0.0148 0.000437771 0.0117542 0 776 7185 5.71871e-07 1.71846e-06 -6.41279e-07 2.82722e-10 5.62477e-08 
0 0 0 -0.0012269 7.48348e-05 0.015014 0 776 5892 -9.97288e-09 9.70393e-06 2.12814e-08 5.1375e-10 1.02214e-07 
0 0 0 -0.00215747 -3.63588e-05 -0.00691813 0 776 5191 2.60938e-11 1.07005e-05 7.31669e-11 5.2298e-10 1.0405e-07 
0 0 0 -0.00304002 -2.25134e-06 -0.000401816 0 776 5313 5.00387e-05 1.04264e-05 5.54789e-05 5.21234e-10 1.03703e-07 
0 0 0 2.81545e-05 -1.5996e-05 0.0154381 0 776 2966 -4.1019e-10 9.27603e-06 9.47823e-11 4.79071e-10 9.53138e-08 
0 0 0 0.0169503 5.66293e-06 0.0129795 0 776 1039 4.58584e-09 1.06186e-05 -6.83345e-09 5.29337e-10 1.05315e-07 
0 0 0 0.000967588 2.25183e-06 0.00909217 0 776 4298 -3.58739e-06 1.06106e-05 -3.90855e-06 5.28334e-10 1.05116e-07 
0 0 0 0.0122786 7.12016e-08 0.00852911 0 776 604 2.32417e-13 1.05232e-05 1.61431e-13 5.24962e-10 1.04445e-07 
0 0 0 0.00494647 -5.22719e-12 -0.0230521 0 776 5729 3.73147e-19 1.05196e-05 -2.39594e-18 5.24825e-10 1.04417e-07 
0 0 0 0.0531791 2.20916e-13 0.0152301 0 776 4183 -2.34935e-17 1.05196e-05 -6.86583e-18 5.24825e-10 1.04417e-07 
0 0 0 -0.00757593 -1.67561e-12 -0.004169 0 776 7053 -3.28316e-18 1.05196e-05 -1.81766e-18 5.24825e-10 1.04417e-07 
0 0 0 0.00537101 -2.62258e-07 0.0150163 0 776 1937 -3.85705e-13 1.05147e-05 -1.07844e-12 5.24607e-10 1.04374e-07 
0 0 0 -0.00179794 -2.48789e-12 -0.0105252 0 776 7843 -2.9953e-19 1.05196e-05 -1.20864e-18 5.24825e-10 1.04417e-07 
0 0 0 -0.00302007 2.80401e-12 0.00292656 0 776 316 -3.0673e-18 1.05196e-05 2.97694e-18 5.24825e-10 1.04417e-07 
0 0 0 0.0202893 5.73673e-13 -0.0148521 0 776 221 2.41725e-18 1.05196e-05 -1.09602e-18 5.24825e-10 1.04417e-07 
0 0 0 0.00674696 2.99175e-12 -0.00368004 0 776 398 -1.09315e-18 1.05196e-05 5.46922e-19 5.24825e-10 1.04417e-07 
0 0 0 0.00163224 5.10249e-09 -0.00128088 0 776 163 2.35159e-15 1.05195e-05 -1.84536e-15 5.24823e-10 1.04417e-07 
0 0 0 0.0120418 1.60644e-08 0.00125614 0 776 6920 5.35949e-14 1.05197e-05 5.59072e-15 5.24831e-10 1.04419e-07 
0 0 0 -0.0489123 -0.146792 0.21031 0 783 3512 -0.000100067 0.000171081 0.000103921 1.9161e-09 3.81287e-07 
0 0 0 0.0332779 -1.20226e-05 0.00261858 0 777 7431 -1.08373e-10 1.03524e-05 -8.58193e-12 5.16641e-10 1.02789e-07 
0 0 0 -0.00517691 0.000902938 0.00190873 0 775 3087 6.41766e-06 1.34251e-05 -5.63759e-06 7.52319e-10 1.49683e-07 
0 0 0 0.00393272 0.0012393 0.00566952 0 775 4938 -3.16776e-06 1.37805e-05 -4.21081e-06 6.80872e-10 1.35467e-07 
0 0 0 -0.000197414 -0.000778265 -0.00416462 0 775 6574 1.81957e-14 1.02797e-05 -1.35984e-06 5.19371e-10 1.03332e-07 
0 0 0 0.0026006 0.00110844 0.0059511 0 775 570 3.28063e-08 1.01267e-05 -1.39562e-06 5.13643e-10 1.02193e-07 
0 0 0 0.00304898 0.00193577 0.0103546 0 775 510 1.3727e-13 1.02653e-05 -1.35704e-06 5.18867e-10 1.03232e-07 
0 0 0 0.0154294 0.00192173 0.0102803 0 775 833 1.48344e-18 1.02659e-05 -1.35713e-06 5.18851e-10 1.03229e-07 
0 0 0 0.0211709 0.00185095 0.00990169 0 775 5373 -1.20097e-18 1.02659e-05 -1.35713e-06 5.18851e-10 1.03229e-07 
0 0 0 -3.54549e-05 2.23017e-06 -0.000256936 0 774 2641 2.61504e-07 1.04038e-05 -9.44209e-07 5.31558e-10 1.05757e-07 
0 0 0 0.000230541 -2.46063e-05 -0.00015031 0 774 5113 4.36409e-09 9.82752e-06 -1.26827e-06 5.04532e-10 1.0038e-07 
0 0 0 0.000558787 -0.000592115 -0.00297019 0 774 3865 2.74054e-07 1.04123e-05 -1.28738e-06 5.15374e-10 1.02537e-07 
0 0 0 -0.00746215 -0.00124753 -0.00668717 0 774 1165 1.44534e-13 1.02439e-05 -1.35299e-06 5.18638e-10 1.03187e-07 
0 0 0 -0.000162456 -0.000646484 -0.00357076 0 774 2352 -6.00071e-09 9.77832e-06 -1.15334e-06 5.05941e-10 1.0066e-07 
0 0 0 -0.00102611 -0.000153216 -0.00092135 0 774 3869 7.1164e-07 9.6747e-06 -1.31315e-06 5.03047e-10 1.00084e-07 
0 0 0 -0.000514476 -0.000109846 -0.00121324 0 774 2116 -5.17188e-07 6.84764e-06 -2.19778e-08 4.16663e-10 8.28967e-08 
0 0 0 -0.000702133 -4.85518e-05 -0.000553828 0 774 1045 -3.90011e-08 1.00841e-05 -1.34881e-06 5.24567e-10 1.04366e-07 
0 0 0 -0.000725781 -0.000282436 -0.000990484 0 774 4248 -2.09243e-09 1.04263e-05 -1.38261e-06 5.03567e-10 1.00188e-07 
0 0 0 -0.000847589 -0.000595668 -0.00318993 0 774 3081 -1.50566e-13 1.02632e-05 -1.35665e-06 5.18896e-10 1.03238e-07 
0 0 0 0.00094792 -0.000963023 -0.00514803 0 774 5900 -2.17268e-13 1.02671e-05 -1.35733e-06 5.18745e-10 1.03208e-07 
0 0 0 0.0014766 0.00202974 0.0108589 0 774 1352 -5.80282e-14 1.0267e-05 -1.35735e-06 5.1886e-10 1.03231e-07 
0 0 0 0.00241716 0.00172435 0.00922345 0 774 2951 1.23963e-13 1.02649e-05 -1.35695e-06 5.18858e-10 1.0323e-07 
0 0 0 0.00444929 0.00031838 0.00170318 0 774 6135 -4.27697e-18 1.02659e-05 -1.35713e-06 5.18851e-10 1.03229e-07 
0 0 0 0.000126489 -4.96596e-05 0.000359664 0 839 4325 2.85778e-06 -3.37985e-07 3.24277e-07 2.54132e-10 5.05596e-08 
0 0 0 0.000126489 -4.96596e-05 0.000359664 0 774 4325 -1.24905e-06 9.3321e-06 -1.12048e-06 4.60829e-10 9.16843e-08 
0 0 0 0.00114325 -0.000296425 -0.00180784 0 774 6076 -5.60952e-07 1.11261e-05 -1.74811e-06 5.57834e-10 1.10985e-07 
0 0 0 -0.0964623 -0.0928071 -0.0148617 0 884 4903 0.000239318 8.51118e-05 0.0014748 1.27337e-08 2.5373e-06 
0 0 0 -4.14358e-302 3.78143e-20 -3.53501e-12 0 884 5230 -1.53617e-307 5.25978e-06 -1.62002 1.22522e-06 0.0003 
0 0 0 -0.0640283 -0.0550335 0.0556459 0 884 2834 4.01798e-05 2.79869e-05 -9.79323e-05 7.9032e-09 1.57384e-06 
0 0 0 0.110573 -0.14557 0.0575786 0 884 1886 -0.000108385 -0.000116873 -4.16193e-05 8.7351e-09 1.73968e-06 
0 0 0 0.0242178 -0.12281 -0.0330167 0 884 5823 0.000597579 0.00135328 0.0029587 1.96929e-08 3.92742e-06 
0 0 0 -7.62648e-303 7.55911e-20 -3.53498e-12 0 884 3064 1.08247e-307 5.25978e-06 -1.62002 1.22522e-06 0.0003 
0 0 0 -0.0243139 -0.108286 0.0913323 0 884 8131 -0.000257768 -0.000108422 0.000559285 1.72149e-08 3.43217e-06 
0 0 0 0.0958798 -0.428634 -0.0561035 0 884 6502 -0.00366205 0.00874228 0.00177967 1.09155e-08 2.17453e-06 
0 0 0 5.95896e-303 -5.7127e-20 -2.16043e-15 0 884 871 -2.63259e-307 5.25978e-06 -1.62002 1.22522e-06 0.0003 
0 0 0 2.62534e-83 8.49689e-20 3.53502e-12 0 884 1962 4.429e-85 5.25978e-06 -1.62002 1.22522e-06 0.0003 
0 0 0 -0.107412 -0.0573774 0.0301803 0 884 7884 -0.000814007 0.000149945 0.00232175 2.17643e-08 4.34166e-06 
0 0 0 2.62806e-17 -1.35252e-16 4.13098e-12 0 884 2565 -0.00154447 -0.00856134 -1.62159 1.22583e-06 0.000300194 
0 0 0 1.27823e-302 4.7171e-20 -4.72349e-12 0 884 7394 -9.96278e-308 5.25978e-06 -1.62002 1.22522e-06 0.0003 
0 0 0 2.17779e-301 6.58947e-20 -2.30868e-15 0 884 3089 -1.4968e-304 5.25978e-06 -1.62002 1.22522e-06 0.0003 
0 0 0 3.95763e-244 5.67321e-20 -4.72344e-12 0 884 7839 -8.21585e-245 5.25978e-06 -1.62002 1.22522e-06 0.0003 
0 0 0 -3.72354e-303 3.77278e-20 3.53498e-12 0 884 5274 -7.21779e-307 5.25978e-06 -1.62002 1.22522e-06 0.0003 
0 0 0 1.15664e-16 7.81189e-17 -2.35868e-12 0 884 2130 0.0518806 0.00277484 -1.61412 1.22293e-06 0.000299271 
0 0 0 -1.84449e-16 -7.86601e-17 -2.3592e-12 0 884 4708 -0.0653871 -0.00348535 -1.62593 1.22751e-06 0.000300729 
0 0 0 -7.68883e-14 4.74431e-20 -3.5978e-302 0 863 2723 -1.62002 5.25978e-06 -8.49908e-307 1.22522e-06 0.0003 
0 0 0 1.63037e-14 4.72763e-20 -1.59719e-302 0 862 444 -1.62002 5.25978e-06 -8.44422e-307 1.22522e-06 0.0003 
0 0 0 -3.49913e-14 -4.7524e-20 2.5424e-302 0 862 927 -1.62002 5.25978e-06 5.82505e-307 1.22522e-06 0.0003 
0 0 0 0.19902 -1.82568 0.224927 0 854 2664 0.0316743 0.000118932 0.00374336 1.18959e-07 2.40269e-05 
0 0 0 0.800591 2.37818 1.38219 0 854 6098 -0.00987703 0.00291114 0.000294719 9.1221e-09 1.81685e-06 
0 0 0 0.0124833 -0.183802 0.0345886 0 854 1699 0.00574825 0.00043467 -0.00143387 3.58643e-08 7.16708e-06 
0 0 0 0.0335669 -0.0434369 0.112257 0 854 6613 0.00149862 -0.000167319 -0.000108228 1.74512e-08 3.47937e-06 
0 0 0 0.0377639 -0.0100615 -0.0639098 0 854 2480 0.00600442 0.000143025 -0.000952473 3.8764e-08 7.74938e-06 
0 0 0 0.0110175 0.0209502 0.134712 0 854 1034 0.00283644 -0.00131869 0.000521915 2.27791e-08 4.54467e-06 
0 0 0 -0.0408097 0.0210262 0.0676048 0 854 4068 0.00504201 -0.000605795 -0.000367944 2.88846e-08 5.7672e-06 
0 0 0 0.0227058 -0.0061503 0.142533 0 854 4232 -0.000127669 2.59761e-07 -4.45013e-05 2.01537e-09 4.01047e-07 
0 0 0 0.00509604 0.0232309 0.149786 0 854 7748 0.000113003 -0.000729054 -0.00159066 3.29404e-09 6.55596e-07 
0 0 0 0.0858358 0.0906823 0.0475386 0 854 1390 -0.000685064 2.14275e-05 4.60853e-05 1.64827e-09 3.2798e-07 
0 0 0 -0.0119996 -4.85099e-05 -0.0526111 0 854 3980 0.000549501 0.000126589 0.000105998 5.98923e-09 1.19241e-06 
0 0 0 0.000286313 -0.0527211 0.135626 0 854 4961 3.66306e-05 4.00242e-05 -6.92086e-05 1.25593e-09 2.49899e-07 
0 0 0 -0.0141709 -0.0515946 -0.0119125 0 854 6325 0.00145498 0.000144872 2.68885e-05 1.26692e-08 2.52443e-06 
0 0 0 0.000348295 0.047151 0.0395269 0 854 6819 6.62365e-05 2.63675e-05 2.00393e-05 1.84474e-09 3.67083e-07 
0 0 0 0.054542 0.16082 0.034598 0 854 3229 0.0040044 -0.00125665 -0.000294886 3.18214e-08 6.35591e-06 
0 0 0 -0.00494834 0.00549559 0.0274641 0 854 6992 0.00494051 8.04405e-05 -0.000655973 3.12059e-08 6.23249e-06 
0 0 0 0.0175188 -0.0142159 0.0307237 0 854 6916 -0.000106905 5.34296e-05 1.57025e-06 8.71102e-10 1.73319e-07 
0 0 0 0.0117669 0.00985965 0.0595123 0 854 970 0.000139784 -0.000198139 -0.000264821 4.58019e-09 9.1172e-07 
0 0 0 -0.00506682 -0.00481027 0.11987 0 854 2452 0.000297943 -0.000100075 0.000110351 4.24697e-09 8.45355e-07 
0 0 0 -0.0193565 0.113816 0.0994198 0 854 8284 0.000435955 -0.000157828 -0.000150348 4.05344e-09 8.06814e-07 
0 0 0 -4.14358e-302 3.78143e-20 -3.53501e-12 0 850 5230 2.47642e-307 5.25978e-06 1.62002 1.22522e-06 0.0003 
0 0 0 -7.62648e-303 7.55911e-20 -3.53498e-12 0 850 3064 -2.00688e-307 5.25978e-06 1.62002 1.22522e-06 0.0003 
0 0 0 -2.63373e-302 -2.82717e-20 5.89789e-12 0 850 478 1.23674e-307 5.25978e-06 1.62002 1.22522e-06 0.0003 
0 0 0 5.95896e-303 -5.7127e-20 -2.16043e-15 0 850 871 1.68322e-307 5.25978e-06 1.62002 1.22522e-06 0.0003 
0 0 0 2.62534e-83 8.49689e-20 3.53502e-12 0 850 1962 4.429e-85 5.25978e-06 1.62002 1.22522e-06 0.0003 
0 0 0 2.55172e-302 -9.46541e-21 -2.36057e-12 0 850 283 -9.55737e-307 5.25978e-06 1.62002 1.22522e-06 0.0003 
0 0 0 -2.65322e-17 1.30625e-16 4.13044e-12 0 850 6540 0.00154447 0.00857186 1.62159 1.22583e-06 0.000300194 
0 0 0 2.62806e-17 -1.35252e-16 4.13098e-12 0 850 2565 -0.000868719 -0.00481319 1.61845 1.22461e-06 0.000299806 
0 0 0 1.57811e-302 -8.49594e-20 3.53501e-12 0 850 5520 -3.56448e-307 5.25978e-06 1.62002 1.22522e-06 0.0003 
0 0 0 1.27823e-302 4.7171e-20 -4.72349e-12 0 850 7394 2.25078e-308 5.25978e-06 1.62002 1.22522e-06 0.0003 
0 0 0 -4.03465e-302 -1.40897e-22 -5.89792e-12 0 850 2321 5.08163e-307 5.25978e-06 1.62002 1.22522e-06 0.0003 
0 0 0 2.17779e-301 6.58947e-20 -2.30868e-15 0 850 3089 -1.61881e-304 5.25978e-06 1.62002 1.22522e-06 0.0003 
0 0 0 3.95763e-244 5.67321e-20 -4.72344e-12 0 850 7839 -8.21585e-245 5.25978e-06 1.62002 1.22522e-06 0.0003 
0 0 0 3.60872e-302 -8.49671e-20 -2.36053e-12 0 850 1583 -8.37295e-307 5.25978e-06 1.62002 1.22522e-06 0.0003 
0 0 0 1.27555e-302 -7.53151e-20 -5.8979e-12 0 850 8195 8.04713e-307 5.25978e-06 1.62002 1.22522e-06 0.0003 
0 0 0 -3.72354e-303 3.77278e-20 3.53498e-12 0 850 5274 6.28232e-307 5.25978e-06 1.62002 1.22522e-06 0.0003 
0 0 0 1.15664e-16 7.81189e-17 -2.35868e-12 0 850 2130 0.0653871 0.00349588 1.62593 1.22751e-06 0.000300729 
0 0 0 -1.84449e-16 -7.86601e-17 -2.3592e-12 0 850 4708 -0.0518806 -0.00276433 1.61412 1.22293e-06 0.000299271 
0 0 0 1.63037e-14 4.72763e-20 -1.59719e-302 0 822 444 1.62002 5.25978e-06 7.51136e-307 1.22522e-06 0.0003 
0 0 0 -3.49913e-14 -4.7524e-20 2.5424e-302 0 821 927 1.62002 5.25978e-06 -4.88502e-307 1.22522e-06 0.0003 
0 0 0 -7.68883e-14 4.74431e-20 -3.5978e-302 0 821 2723 1.62002 5.25978e-06 7.56129e-307 1.22522e-06 0.0003 
0 0 0 -0.0511174 -19.8667 -3.5506 0 918 8517 -0.000106978 -0.0140525 0.401669 4.9617e-07 0.000105692 
0 0 0 -2.63373e-302 -2.82717e-20 5.89789e-12 0 885 478 -2.16878e-307 5.25978e-06 -1.62002 1.22522e-06 0.0003 
0 0 0 2.55172e-302 -9.46541e-21 -2.36057e-12 0 885 283 1.05011e-306 5.25978e-06 -1.62002 1.22522e-06 0.0003 
0 0 0 -2.65322e-17 1.30625e-16 4.13044e-12 0 885 6540 0.000868719 0.00482371 -1.61845 1.22461e-06 0.000299806 
0 0 0 1.57811e-302 -8.49594e-20 3.53501e-12 0 885 5520 2.6228e-307 5.25978e-06 -1.62002 1.22522e-06 0.0003 
0 0 0 -4.03465e-302 -1.40897e-22 -5.89792e-12 0 885 2321 -4.16522e-307 5.25978e-06 -1.62002 1.22522e-06 0.0003 
0 0 0 3.60872e-302 -8.49671e-20 -2.36053e-12 0 885 1583 9.31326e-307 5.25978e-06 -1.62002 1.22522e-06 0.0003 
0 0 0 1.27555e-302 -7.53151e-20 -5.8979e-12 0 885 8195 -8.98223e-307 5.25978e-06 -1.62002 1.22522e-06 0.0003 
0 0 0 -0.113474 -0.0076259 0.0262592 0 853 2820 -0.000147204 -0.000207979 -0.00126609 4.83569e-09 9.6261e-07 
0 0 0 -0.0941015 0.064307 0.222109 0 853 6396 4.57814e-05 -0.00196819 0.000475195 1.13833e-08 2.26785e-06 
0 0 0 -0.361848 -0.272874 -0.156718 0 853 4609 -0.00132875 0.00240587 5.72171e-05 1.59294e-08 3.17535e-06 
0 0 0 0.0349205 0.0745161 0.275595 0 853 1718 -0.00102362 -0.00157343 -0.00217054 7.91943e-09 1.57708e-06 
0 0 0 -0.0290491 -0.0579422 0.188114 0 853 7528 0.000213345 0.00037624 8.75741e-05 4.58971e-09 9.13616e-07 
0 0 0 0.0411766 -0.033008 -0.0267295 0 853 3221 0.000109694 -0.00121705 -0.000100433 1.56591e-08 3.12136e-06 
0 0 0 -0.0576165 -0.011542 -0.0143779 0 852 4670 2.85099e-05 5.90853e-05 -7.74311e-06 1.07185e-09 2.13266e-07 
0 0 0 0.0175188 -0.0142159 0.0307237 0 852 6916 0.000506704 -0.00127515 -0.000252632 1.42126e-08 2.83253e-06 
0 0 0 0.0117669 0.00985965 0.0595123 0 852 970 -0.000137413 -0.000373549 -0.0001265 4.49394e-09 8.94541e-07 
0 0 0 -0.0993405 -0.00564215 0.125681 0 852 7345 0.000810746 -0.00198115 -0.00056915 1.77156e-08 3.5322e-06 
0 0 0 -0.0193565 0.113816 0.0994198 0 852 8284 0.000513606 -0.0018931 -0.000795089 6.77762e-09 1.3495e-06 
0 0 0 -0.0013581 -0.00248121 0.0469903 0 852 8079 -0.000164657 -0.000286238 0.000408247 5.05463e-09 1.00622e-06 
0 0 0 0.0260582 -0.0317444 0.0329139 0 852 3950 -5.33162e-05 -0.000255615 0.000221848 8.34749e-09 1.66241e-06 
0 0 0 -0.0520906 0.0811697 0.104325 0 852 313 0.00101918 -0.000862394 -0.00108517 2.31065e-09 4.59821e-07 
0 0 0 0.0579012 -0.0440125 0.0697944 0 852 2804 -0.000851538 -6.19521e-05 0.00012667 8.01084e-09 1.5953e-06 
0 0 0 0.0222741 0.0194294 0.141801 0 852 7935 -3.87114e-05 -0.00101325 -0.000313806 9.05798e-09 1.80406e-06 
0 0 0 0.0107686 -0.0301618 0.0644605 0 852 4845 -7.48723e-05 -0.000472198 -0.000263768 1.00487e-08 2.00162e-06 
0 0 0 -0.448224 0.0585438 0.3588 0 852 3010 -7.53421e-05 -0.00421152 -0.00210441 2.37796e-08 4.74488e-06 
0 0 0 -0.0238209 0.0411859 0.0324631 0 894 3492 -6.00783e-05 0.000495938 -0.00250521 1.73089e-08 3.45094e-06 
0 0 0 0.00321276 -0.0793956 -0.0130073 0 894 3249 7.09839e-07 2.03896e-05 4.08039e-05 1.98145e-09 3.94295e-07 
0 0 0 -0.00424796 -0.0609751 0.00479875 0 894 1891 1.73344e-05 0.000211768 -0.000424952 5.61485e-09 1.11782e-06 
0 0 0 0.0109156 -0.106753 -5.31325e-05 0 894 4390 -3.78804e-05 2.03399e-05 -7.40196e-05 1.93511e-09 3.85071e-07 
0 0 0 0.00847228 -0.0748059 -0.00355461 0 894 5007 -2.50031e-05 8.63869e-05 -6.42606e-05 2.32e-09 4.61683e-07 
0 0 0 -0.0189445 -0.106459 0.00248317 0 894 6213 4.45431e-05 -5.12333e-05 -0.000224752 3.71696e-09 7.39808e-07 
0 0 0 -0.040848 -0.116846 0.00217484 0 894 3209 0.000295652 0.0002097 -5.21831e-06 9.51086e-12 1.89213e-09 
0 0 0 -0.00999937 -0.0734868 -0.00278571 0 894 22 -7.00984e-05 2.96373e-05 -0.000495358 7.15512e-09 1.42473e-06 
0 0 0 0.00206728 -0.100971 0.00722853 0 894 5067 4.57592e-05 0.000238193 -0.000485098 5.91949e-09 1.17851e-06 
0 0 0 0.171719 0.00397447 -0.14622 0 894 7073 0.000747718 -0.00105861 -0.00337928 3.64474e-08 7.28415e-06 
0 0 0 2.47232e-05 -0.217186 0.00250802 0 894 6375 5.02763e-05 1.44042e-05 -2.03109e-05 3.45242e-10 6.86867e-08 
0 0 0 0.0576641 -0.13845 0.0153503 0 894 2479 -0.00189662 0.00187776 -0.00119199 1.07666e-08 2.14483e-06 
0 0 0 0.00882547 -0.0244236 0.026245 0 894 4284 -0.000176243 0.000425433 -0.000920989 7.65794e-09 1.52495e-06 
0 0 0 0.0706474 -0.118703 -0.00388159 0 894 3313 -1.07532e-05 0.000655556 1.26817e-05 6.26547e-10 1.24657e-07 
0 0 0 -0.0308308 -0.0879898 0.0294124 0 894 2363 4.98315e-05 0.000223656 -0.000458281 3.19007e-09 6.34897e-07 
0 0 0 0.103036 -0.183906 0.00242433 0 894 274 -2.54536e-05 2.64068e-05 -7.33541e-05 1.53671e-09 3.05776e-07 
0 0 0 -0.00695171 -0.12405 -0.00587045 0 894 2773 3.25113e-05 6.65538e-06 -2.76327e-06 1.5372e-09 3.05874e-07 
0 0 0 -0.025625 -0.114409 -0.00132738 0 894 5107 0.000170207 0.00020957 -0.000474591 6.79809e-09 1.35358e-06 
0 0 0 0.0230125 -0.237641 -0.003247 0 894 246 2.40462e-05 5.06947e-05 -0.000112217 3.01527e-09 6.00094e-07 
0 0 0 -0.0102361 -0.146477 -0.017416 0 894 279 2.73123e-05 -1.56068e-05 -2.85659e-07 3.51796e-09 7.00183e-07 
0 0 0 0.00054155 -0.106165 -0.00404271 0 894 680 -4.38624e-05 0.000191841 -0.000393583 6.34464e-09 1.26322e-06 
0 0 0 0.00867937 -0.15806 -0.0307602 0 894 8040 0.000269508 0.000427438 -0.00283259 2.44298e-08 4.875e-06 
0 0 0 0.0534081 -0.143257 -0.00414002 0 894 3529 -6.90587e-06 1.36045e-05 -3.05138e-05 1.80683e-09 3.59539e-07 
0 0 0 0.0361545 -0.107731 -0.0153683 0 894 5116 -6.69392e-05 0.000641218 -4.66753e-05 3.88018e-09 7.72309e-07 
0 0 0 0.0404403 -0.110026 -0.00307672 0 894 2327 1.0486e-06 3.42366e-05 -6.85052e-05 2.31559e-09 4.60806e-07 
0 0 0 0.0275159 -0.198426 0.00301097 0 894 3295 1.40259e-05 5.82989e-05 -0.000119925 2.22425e-09 4.42623e-07 
0 0 0 0.0522341 -0.0614695 -0.00280625 0 894 8202 -9.26201e-05 -0.000195723 -0.00149852 1.45553e-08 2.90094e-06 
0 0 0 0.0167832 -0.223285 -0.0236071 0 894 5915 -9.77398e-06 7.41534e-05 0.00014959 7.30526e-10 1.45347e-07 
0 0 0 -0.022901 -0.12957 -0.0136012 0 894 2768 -7.28712e-05 0.000654745 -2.05725e-05 3.21901e-09 6.40659e-07 
0 0 0 0.0269629 -0.287393 0.0110672 0 894 1507 -0.000584887 0.000953218 -0.00012201 1.15408e-09 2.29629e-07 
0 0 0 0.00735154 -0.0594888 -0.0367092 0 894 6575 -0.000114032 -0.00113449 -0.00428751 3.16436e-08 6.32026e-06 
0 0 0 -0.00287709 -0.183224 -0.00651197 0 894 365 -0.000303932 0.000234 3.03263e-05 1.80353e-10 3.58809e-08 
0 0 0 5.37571e-14 7.46083e-20 1.18542e-302 0 866 887 -1.62002 5.25978e-06 -3.44972e-307 1.22522e-06 0.0003 
0 0 0 1.61449e-14 -8.56476e-20 1.03676e-306 0 866 964 -1.62002 5.25978e-06 6.44025e-307 1.22522e-06 0.0003 
0 0 0 0.085081 -0.00421626 0.15029 0 855 6053 -0.000107629 0.000248109 0.000148358 1.15819e-08 2.30748e-06 
0 0 0 0.0100753 -0.115624 0.0258887 0 855 2851 7.24759e-05 3.88051e-06 -1.34261e-05 3.45108e-09 6.86865e-07 
0 0 0 -0.011266 -0.0575054 0.00309577 0 855 6476 0.0001385 5.91671e-05 -3.59835e-05 1.38424e-09 2.75432e-07 
0 0 0 0.00221672 -0.0790597 0.0496026 0 855 2465 -6.73616e-06 2.66868e-06 -2.05477e-06 3.85278e-10 7.66522e-08 
0 0 0 0.00353186 -0.0805537 -0.0021152 0 855 6860 0.00013035 5.07595e-05 4.08808e-05 3.31099e-09 6.58973e-07 
0 0 0 -0.00424796 -0.0609751 0.00479875 0 855 1891 9.22973e-05 4.61468e-05 -4.125e-07 1.5959e-09 3.17557e-07 
0 0 0 0.0640759 0.176289 0.000780183 0 855 5226 0.00137424 -3.30462e-05 -0.000394902 1.95781e-08 3.90446e-06 
0 0 0 -0.0125651 -0.254936 -0.017052 0 855 4725 0.000398001 0.000198818 8.5238e-06 4.43466e-09 8.82735e-07 
0 0 0 0.0241104 -0.309228 0.0725143 0 855 6572 4.85633e-05 2.40796e-05 -3.12568e-06 5.18282e-09 1.03176e-06 
0 0 0 0.00413648 -0.138602 0.0166607 0 855 7677 0.000181553 4.87574e-05 7.65707e-05 4.05949e-09 8.08019e-07 
0 0 0 -0.000317736 -0.113966 0.0614414 0 855 5359 5.93304e-05 1.00627e-06 9.41786e-06 1.61114e-09 3.20591e-07 
0 0 0 -0.0860255 0.0927325 0.35602 0 852 4188 -0.000490758 -0.00176073 -0.000730888 7.61835e-09 1.51706e-06 
0 0 0 -5.89628e-14 4.56696e-14 0.0782538 0 819 846 2.71714e-06 3.95108e-14 -5.06849e-18 2.12866e-10 4.23496e-08 
0 0 0 2.17098 15.4741 -3.1813 0 956 8577 -0.0061324 -0.0499342 -0.0553454 1.19712e-07 2.41815e-05 
0 0 0 -0.0232263 -0.185927 0.000327824 0 895 3689 -1.40446e-05 7.23495e-05 -0.0001474 3.00371e-09 5.97793e-07 
0 0 0 0.0288555 -0.173281 -0.00205596 0 895 5693 -4.9543e-07 1.87975e-06 -3.88788e-06 7.67391e-10 1.52682e-07 
0 0 0 0.0106534 -0.184249 -0.00744187 0 895 5965 -2.5235e-06 1.18857e-05 2.43012e-05 1.16553e-09 2.31909e-07 
0 0 0 0.04646 -0.134989 -0.00523897 0 895 987 -2.07076e-06 6.97336e-06 -3.01914e-05 1.99145e-09 3.96284e-07 
0 0 0 0.0273272 -0.148692 -0.00203028 0 895 7568 -0.000479676 0.000599769 -0.00019076 3.8919e-09 7.74644e-07 
0 0 0 0.0207564 -0.148637 -0.000420414 0 895 4475 -0.000243618 0.000468072 -0.000408687 6.06544e-09 1.20759e-06 
0 0 0 -0.0182106 -0.193959 0.00476473 0 895 1082 2.74152e-05 0.000186545 -0.000377098 5.13526e-09 1.02228e-06 
0 0 0 2.22692e-15 -8.43807e-20 2.84434e-205 0 861 1395 -1.62002 5.25978e-06 -5.3078e-207 1.22522e-06 0.0003 
0 0 0 -1.63076e-14 -4.72622e-20 4.36586e-302 0 857 2716 -1.62002 5.25978e-06 5.56196e-307 1.22522e-06 0.0003 
0 0 0 -5.89628e-14 4.56696e-14 0.0782538 0 854 846 -2.71714e-06 1.05196e-05 2.75821e-18 5.36245e-10 1.0669e-07 
0 0 0 0.000892586 -0.103377 0.13606 0 854 6328 5.8986e-07 1.53701e-07 -2.51714e-07 3.55262e-10 7.06803e-08 
0 0 0 2.22692e-15 -8.43807e-20 2.84434e-205 0 822 1395 1.62002 5.25978e-06 -5.3078e-207 1.22522e-06 0.0003 
0 0 0 -1.63076e-14 -4.72622e-20 4.36586e-302 0 820 2716 1.62002 5.25978e-06 -4.64599e-307 1.22522e-06 0.0003 
0 0 0 5.37571e-14 7.46083e-20 1.18542e-302 0 828 887 1.62002 5.25978e-06 4.37274e-307 1.22522e-06 0.0003 
0 0 0 1.61449e-14 -8.56476e-20 1.03676e-306 0 828 964 1.62002 5.25978e-06 -7.37165e-307 1.22522e-06 0.0003 
0 0 0 0.0744338 0.00160872 -0.00860584 0 778 5618 1.12382e-13 1.02658e-05 1.35711e-06 5.18848e-10 1.03228e-07 
0 0 0 0.117475 0.0076737 -0.0410506 0 778 6537 -1.55426e-17 1.02659e-05 1.35713e-06 5.18851e-10 1.03229e-07 
0 0 0 0.089414 -0.000711052 0.00380379 0 778 839 -6.0609e-18 1.02659e-05 1.35713e-06 5.18851e-10 1.03229e-07 
0 0 0 0.0887849 0.00705684 -0.0377507 0 778 4550 1.64985e-17 1.02659e-05 1.35713e-06 5.18851e-10 1.03229e-07 
0 0 0 0.0212121 -2.86292e-10 0.00070854 0 776 3055 -1.71341e-15 1.05196e-05 -5.7221e-17 5.24825e-10 1.04417e-07 
0 0 0 0.0106029 -4.38457e-09 0.00257445 0 776 4357 -1.31445e-14 1.05196e-05 -3.19157e-15 5.24826e-10 1.04418e-07 
0 0 0 0.0120363 -1.64772e-09 -0.0393014 0 776 2843 1.24212e-07 1.05196e-05 -1.21698e-06 5.24827e-10 1.04418e-07 
0 0 0 0.0198011 7.60188e-08 -0.0169576 0 776 3193 4.2069e-13 1.05193e-05 -3.60277e-13 5.24832e-10 1.04419e-07 
0 0 0 0.0829033 1.79559e-07 0.222296 0 776 7846 -1.42159e-06 1.05212e-05 -5.06489e-06 5.24919e-10 1.04436e-07 
0 0 0 0.00353419 3.31547e-12 -0.0297114 0 776 3877 -5.56579e-19 1.05196e-05 4.81319e-18 5.24825e-10 1.04417e-07 
0 0 0 0.0697565 2.73519e-05 0.00221539 0 776 2062 -4.7215e-06 1.05415e-05 -2.34265e-06 5.3147e-10 1.0574e-07 
0 0 0 0.0961451 0.0046533 0.104778 0 776 4050 -3.95572e-05 0.000126427 -4.93069e-05 3.41628e-09 6.79936e-07 
0 0 0 0.0163589 -1.42056e-10 -0.0294645 0 776 2719 -6.37029e-16 1.05196e-05 1.14794e-15 5.24825e-10 1.04417e-07 
0 0 0 0.0496199 3.02013e-07 0.0267932 0 776 2748 1.11643e-08 1.05162e-05 2.07488e-08 5.24777e-10 1.04408e-07 
0 0 0 0.0152024 -1.56287e-10 0.00728881 0 776 4507 -6.7683e-16 1.05196e-05 -3.24417e-16 5.24825e-10 1.04417e-07 
0 0 0 0.0116429 2.9907e-12 -0.00356605 0 776 4008 2.61576e-19 1.05196e-05 6.0165e-19 5.24825e-10 1.04417e-07 
0 0 0 0.0417057 -3.7817e-06 0.000235099 0 776 6486 4.62696e-08 1.12918e-05 -3.15616e-08 5.49393e-10 1.09306e-07 
0 0 0 0.0242962 -5.54945e-12 0.00954781 0 776 4459 4.92384e-19 1.05196e-05 1.19805e-18 5.24825e-10 1.04417e-07 
0 0 0 0.0195261 4.53136e-12 0.0134223 0 776 4483 2.15508e-17 1.05196e-05 1.29329e-17 5.24825e-10 1.04417e-07 
0 0 0 0.0167686 2.82956e-12 -0.0201645 0 776 481 -2.41727e-18 1.05196e-05 9.75931e-19 5.24825e-10 1.04417e-07 
0 0 0 -0.000426237 9.76802e-09 0.00123931 0 776 1073 -1.20646e-15 1.05191e-05 3.50783e-15 5.24812e-10 1.04415e-07 
0 0 0 0.0173981 -4.26038e-12 -0.010194 0 776 1969 -3.81225e-21 1.05196e-05 -1.19807e-18 5.24825e-10 1.04417e-07 
0 0 0 0.0129347 1.2333e-09 -0.00684179 0 776 2925 3.46158e-15 1.05199e-05 -1.83086e-15 5.24835e-10 1.04419e-07 
0 0 0 0.00588384 1.70162e-12 -0.0192699 0 776 7120 -5.99061e-19 1.05196e-05 2.41729e-18 5.24825e-10 1.04417e-07 
0 0 0 0.0155775 1.06891e-10 -0.0076452 0 776 4893 4.62732e-16 1.05196e-05 -2.27216e-16 5.24825e-10 1.04417e-07 
0 0 0 0.0237151 -2.32002e-13 -0.0209113 0 776 1771 2.23919e-18 1.05196e-05 -2.23581e-18 5.24825e-10 1.04417e-07 
0 0 0 0.0146744 -0.00308577 -0.0101553 0 776 6636 7.89943e-06 2.04364e-05 -6.48155e-06 2.57906e-10 5.13103e-08 
0 0 0 0.0106626 -0.00114613 -0.00901456 0 776 2205 -5.52702e-06 1.11912e-05 -8.73446e-07 3.05669e-10 6.08133e-08 
0 0 0 0.0221744 -6.83854e-12 -0.000128421 0 776 4821 2.3958e-18 1.05196e-05 1.44756e-20 5.24825e-10 1.04417e-07 
0 0 0 0.0353132 0.000308111 -0.00882845 0 776 5213 -5.17835e-05 3.54864e-06 5.46972e-05 3.33955e-10 6.6441e-08 
0 0 0 0.0195776 5.24659e-12 0.0213074 0 776 112 -2.39604e-18 1.05196e-05 -1.68347e-18 5.24825e-10 1.04417e-07 
0 0 0 -0.113738 6.52096e-07 -0.097743 0 776 1974 3.12319e-06 1.0536e-05 4.24232e-06 5.25511e-10 1.04554e-07 
0 0 0 -0.0927318 0.00116291 -0.099963 0 776 758 -3.04334e-08 1.23017e-05 -3.17155e-08 8.26181e-10 1.6438e-07 
0 0 0 0.0116748 0.00117267 -0.0148675 0 776 7392 -2.60731e-05 1.88708e-08 -1.46235e-05 4.06828e-10 8.094e-08 
0 0 0 0.00990613 -4.52246e-12 -0.00143229 0 776 6001 1.21687e-18 1.05196e-05 -1.51269e-19 5.24825e-10 1.04417e-07 
0 0 0 -0.0175251 -4.77674e-08 0.00693561 0 776 1502 1.98111e-10 1.05189e-05 4.01947e-10 5.24792e-10 1.04411e-07 