ITEM: TIMESTEP
12650000
ITEM: NUMBER OF ENTRIES
399
ITEM: BOX BOUNDS ff ff ff
-0.01 0.45
-0.15 0.15
-0.08 0.1
ITEM: ENTRIES c_pwc[1] c_pwc[2] c_pwc[3] 
0 960 416 
0 850 41 
0 850 480 
0 885 41 
0 885 480 
0 855 1178 
0 894 1178 
0 854 488 
0 852 1015 
0 894 1255 
0 894 985 
0 894 1066 
0 894 707 
0 894 123 
0 894 741 
0 852 92 
0 852 1254 
0 855 1426 
0 855 1356 
0 855 1371 
0 855 176 
0 855 1328 
0 854 516 
0 854 914 
0 854 1053 
0 854 1494 
0 854 1204 
0 946 1575 
1 2707 1377 
1 134 1377 
1 2722 1377 
1 2721 1377 
1 136 1377 
1 120 1377 
1 123 1377 
1 2650 1377 
1 2698 752 
1 2649 1377 
1 125 1377 
1 2717 752 
1 126 1377 
1 2647 1377 
1 2644 1377 
1 2702 1377 
1 2703 1377 
1 2672 1377 
1 2673 1377 
1 2674 1377 
1 2724 1377 
1 2726 1377 
0 885 270 
0 885 969 
0 885 48 
0 885 127 
0 885 52 
0 885 908 
0 885 276 
0 885 6 
0 885 79 
0 885 351 
0 885 45 
0 885 393 
0 885 39 
0 850 270 
0 850 969 
0 850 48 
0 850 127 
0 850 52 
0 850 908 
0 850 276 
0 850 6 
0 850 79 
0 850 351 
0 850 45 
0 851 393 
0 851 39 
1 1828 417 
1 1861 417 
1 529 417 
1 530 417 
1 1874 417 
1 1873 417 
1 1883 417 
1 1831 417 
1 1890 417 
1 1889 417 
1 1827 417 
1 1830 417 
1 1842 417 
1 526 417 
1 527 417 
1 525 417 
1 541 417 
1 1871 417 
1 1870 417 
1 1869 417 
1 1868 417 
1 1892 417 
1 1893 417 
1 1885 417 
0 962 257 
0 895 383 
0 853 1558 
0 853 425 
0 853 214 
0 853 262 
0 884 788 
0 884 310 
0 884 1485 
0 850 788 
0 894 1138 
0 894 803 
0 894 104 
0 894 131 
0 894 324 
0 894 453 
0 894 111 
0 894 455 
0 852 1014 
0 895 1441 
0 895 844 
0 895 240 
0 895 552 
0 895 541 
0 895 747 
0 895 456 
0 895 1433 
0 945 1287 
0 949 140 
1 480 146 
1 497 146 
1 481 146 
1 499 146 
1 1854 146 
0 961 1029 
0 961 40 
0 753 1029 
0 753 40 
0 886 15 
0 885 15 
0 850 15 
0 888 204 
0 888 563 
0 888 545 
0 888 1369 
0 885 1280 
0 891 904 
0 891 800 
0 891 1437 
0 892 1170 
0 892 396 
0 888 945 
0 888 621 
0 888 1089 
0 888 54 
0 888 1301 
0 888 447 
0 383 648 
0 375 500 
0 391 1515 
0 372 850 
0 395 612 
0 435 743 
0 403 421 
0 403 863 
0 427 386 
0 421 215 
0 384 431 
0 379 82 
0 377 1001 
0 388 939 
0 391 1091 
0 366 1043 
0 400 1357 
0 401 226 
0 395 1082 
0 438 700 
0 437 1194 
0 410 631 
0 430 1439 
0 426 542 
0 420 1079 
0 420 907 
0 421 1573 
0 419 33 
0 416 915 
0 413 74 
0 537 683 
0 533 840 
0 527 1535 
0 527 754 
0 384 975 
0 378 1447 
0 378 132 
0 376 210 
0 545 327 
0 543 494 
0 392 528 
0 370 412 
0 374 187 
0 547 405 
0 398 976 
0 583 1114 
0 559 284 
0 557 1543 
0 478 834 
0 410 1190 
0 406 334 
0 404 834 
0 430 1457 
0 569 406 
0 567 409 
0 416 1022 
0 537 1077 
0 535 599 
0 533 1315 
0 529 24 
0 529 1525 
0 529 464 
0 527 721 
0 527 1052 
0 543 875 
0 543 615 
0 543 670 
0 541 1069 
0 541 1177 
0 539 443 
0 539 420 
0 521 822 
0 519 1216 
0 519 158 
0 526 1429 
0 553 223 
0 551 1501 
0 585 950 
0 586 221 
0 584 190 
0 584 1145 
0 583 190 
0 583 1145 
0 557 593 
0 557 65 
0 579 810 
0 575 610 
0 573 1308 
0 580 628 
0 569 876 
0 567 1402 
0 565 148 
0 565 251 
0 563 212 
0 538 235 
0 536 366 
0 536 837 
0 528 706 
0 528 160 
0 537 66 
0 531 440 
0 527 1045 
0 546 280 
0 546 558 
0 544 388 
0 545 46 
0 520 1353 
0 526 770 
0 554 25 
0 548 1420 
0 551 186 
0 586 35 
0 517 578 
0 562 103 
0 560 1037 
0 560 913 
0 558 236 
0 558 1407 
0 556 521 
0 557 358 
0 578 686 
0 576 518 
0 576 1257 
0 572 1165 
0 577 1167 
0 570 208 
0 570 848 
0 568 1453 
0 566 367 
0 566 600 
0 564 1397 
0 564 487 
0 1063 282 
0 1059 893 
0 1055 532 
0 536 62 
0 1071 88 
0 1071 1182 
0 1069 134 
0 1067 1048 
0 1065 246 
0 1065 697 
0 544 36 
0 544 1085 
0 1051 1246 
0 1051 946 
0 1047 885 
0 1047 994 
0 1047 1309 
1 1370 885 
0 1079 780 
0 1079 90 
0 1077 478 
0 1077 880 
0 1075 1171 
0 1073 454 
0 1111 85 
0 1111 295 
0 590 737 
0 588 422 
0 1109 958 
0 1085 155 
0 1081 23 
0 1081 1054 
0 1081 153 
0 556 608 
0 1101 180 
0 1101 408 
0 1097 804 
0 1091 10 
0 1091 255 
0 1097 162 
0 1061 100 
0 1059 530 
0 1058 1425 
0 1058 279 
0 1057 921 
0 1055 259 
0 1068 851 
0 1065 277 
0 1065 689 
0 1050 50 
0 1049 97 
0 1046 642 
0 1045 795 
0 1044 795 
0 1076 119 
0 1076 873 
0 1075 119 
0 1073 936 
0 1112 109 
0 1111 672 
0 1110 847 
0 1083 646 
0 1108 234 
0 1107 520 
0 1106 509 
0 1103 1277 
0 1102 736 
0 1102 476 
0 1102 202 
0 1099 120 
0 1093 248 
0 1090 170 
0 1089 1087 
0 1097 1 
0 1283 232 
0 1064 1157 
0 1062 656 
0 1060 115 
0 1054 418 
0 1070 485 
0 1068 1035 
0 1067 220 
0 1042 219 
0 1080 166 
0 1076 315 
0 1076 201 
0 1341 11 
0 1084 1109 
0 1082 292 
0 1108 428 
0 1108 95 
0 1100 774 
0 1098 667 
0 1096 1307 
0 1285 504 
0 1305 163 
0 1339 858 
0 1337 363 
0 1308 785 
0 1307 785 
0 1327 444 
0 1325 93 
0 1323 1168 
0 145 725 
0 1300 335 
0 1312 241 
0 127 812 
0 1334 404 
0 113 91 
0 121 1403 
