ITEM: TIMESTEP
2250000
ITEM: NUMBER OF ENTRIES
874
ITEM: BOX BOUNDS ff ff ff
-0.01 0.45
-0.15 0.15
-0.08 0.1
ITEM: ENTRIES c_pwc[1] c_pwc[2] c_pwc[3] c_pwc[4] c_pwc[5] c_pwc[6] c_pwc[7] c_pwc[8] c_pwc[9] c_pwc[10] c_pwc[11] c_pwc[12] c_pwc[13] c_pwc[14] 
0 0 0 0.049069 -0.388662 0.293576 0 786 510 4.45764e-05 0.000543956 -0.000404049 3.49203e-10 6.94747e-08 
0 0 0 0.190396 0.0338288 -0.0546355 0 782 2925 -4.46729e-17 8.43728e-06 3.363e-06 4.71018e-10 9.37115e-08 
0 0 0 0.133968 -0.0127461 0.0681856 0 778 3631 -4.01338e-17 1.02659e-05 1.35713e-06 5.18851e-10 1.03229e-07 
0 0 0 -0.0113097 -0.00985773 0.0527342 0 778 604 2.75244e-19 1.02659e-05 1.35713e-06 5.18851e-10 1.03229e-07 
0 0 0 0.0583594 -0.00975454 0.0521821 0 778 924 -7.79381e-18 1.02659e-05 1.35713e-06 5.18851e-10 1.03229e-07 
0 0 0 0.0580513 -0.0102463 0.054813 0 778 421 -2.15158e-18 1.02659e-05 1.35713e-06 5.18851e-10 1.03229e-07 
0 0 0 -0.00579064 1.97821e-06 0.0161997 0 776 690 1.38181e-12 1.05236e-05 1.03046e-11 5.25387e-10 1.04529e-07 
0 0 0 -0.0154905 5.56732e-12 0.0257951 0 776 72 1.96697e-18 1.05196e-05 -4.38481e-18 5.24825e-10 1.04417e-07 
0 0 0 0.00743086 -2.32676e-12 0.0297143 0 776 1200 1.20329e-18 1.05196e-05 2.6467e-18 5.24825e-10 1.04417e-07 
0 0 0 0.000854874 4.76318e-12 -0.00764424 0 776 1871 -1.50412e-19 1.05196e-05 9.47551e-19 5.24825e-10 1.04417e-07 
0 0 0 -0.00568027 -4.09924e-12 0.0345844 0 776 733 -5.99036e-19 1.05196e-05 4.79205e-18 5.24825e-10 1.04417e-07 
0 0 0 -0.0066267 -1.03294e-05 0.0420392 0 776 1920 -1.71404e-08 1.06572e-05 -2.56348e-08 5.27161e-10 1.04882e-07 
0 0 0 0.0141061 1.80289e-06 0.0207624 0 776 1118 4.12492e-09 1.04467e-05 1.31532e-08 5.2279e-10 1.04013e-07 
0 0 0 0.0283247 7.34807e-13 0.0292941 0 776 731 -4.81331e-18 1.05196e-05 -4.79222e-18 5.24825e-10 1.04417e-07 
0 0 0 0.00470185 4.12538e-13 0.0293045 0 776 101 5.98955e-19 1.05196e-05 -3.1812e-18 5.24825e-10 1.04417e-07 
0 0 0 0.00679047 4.44091e-12 0.0297729 0 776 206 -1.19794e-19 1.05196e-05 -4.81335e-18 5.24825e-10 1.04417e-07 
0 0 0 0.00167843 -1.35995e-12 0.00859988 0 776 1002 1.52377e-19 1.05196e-05 5.87653e-19 5.24825e-10 1.04417e-07 
0 0 0 -0.0242053 3.15183e-12 -0.00454264 0 776 1972 -2.09322e-18 1.05196e-05 5.99046e-19 5.24825e-10 1.04417e-07 
0 0 0 -0.00831504 3.15183e-12 -0.0278889 0 776 414 1.19811e-18 1.05196e-05 4.8131e-18 5.24825e-10 1.04417e-07 
0 0 0 0.042157 4.92432e-12 0.00590788 0 776 1887 4.73163e-18 1.05196e-05 -5.98955e-19 5.24825e-10 1.04417e-07 
0 0 0 0.00313074 -7.15407e-13 0.00793374 0 776 209 -2.99476e-19 1.05196e-05 -1.19804e-18 5.24825e-10 1.04417e-07 
0 0 0 -0.0216875 -4.42151e-12 -0.00513084 0 776 280 2.09021e-18 1.05196e-05 -5.9904e-19 5.24825e-10 1.04417e-07 
0 0 0 -0.0127825 -7.34724e-07 -0.0270079 0 776 317 2.7705e-12 1.05226e-05 5.76854e-12 5.24766e-10 1.04406e-07 
0 0 0 -0.0305454 4.27978e-12 0.0375674 0 776 553 4.81303e-18 1.05196e-05 -4.79183e-18 5.24825e-10 1.04417e-07 
0 0 0 0.0287421 -1.29152e-13 0.213016 0 776 585 4.99667e-18 1.05196e-05 3.75262e-17 5.24825e-10 1.04417e-07 
0 0 0 -0.0210909 -4.90492e-12 0.0201148 0 776 1470 -1.71298e-18 1.05196e-05 2.396e-18 5.24825e-10 1.04417e-07 
0 0 0 -0.000210596 1.21821e-12 0.0299547 0 776 839 3.76046e-20 1.05196e-05 8.8171e-19 5.24825e-10 1.04417e-07 
0 0 0 -0.0196613 0.000638911 0.0149597 0 776 154 -3.55646e-09 1.50419e-05 2.79969e-09 7.96162e-10 1.58407e-07 
0 0 0 0.118602 -2.9713e-12 -0.214154 0 776 1802 1.91692e-17 1.05196e-05 5.76711e-18 5.24825e-10 1.04417e-07 
0 0 0 -0.240942 -8.76542e-13 0.0100443 0 776 18 -3.85081e-17 1.05196e-05 1.19794e-18 5.24825e-10 1.04417e-07 
0 0 0 0.0223565 2.18502e-12 0.0569083 0 776 1890 -2.41712e-18 1.05196e-05 -9.62607e-18 5.24825e-10 1.04417e-07 
0 0 0 0.020162 7.34807e-13 -0.014845 0 776 1774 1.79385e-19 1.05196e-05 1.18161e-18 5.24825e-10 1.04417e-07 
0 0 0 -0.249489 -0.303859 0.60535 0 783 3742 -0.000231235 -0.000378819 -0.000277641 2.71961e-09 5.41232e-07 
0 0 0 -0.0550432 0.00378598 0.0200713 0 775 1894 -5.10851e-10 1.01652e-05 -1.33909e-06 5.2269e-10 1.03993e-07 
0 0 0 -0.07273 0.00882855 0.0472285 0 775 2966 2.31373e-19 1.02659e-05 -1.35713e-06 5.18851e-10 1.03229e-07 
0 0 0 -0.0428643 -0.00640968 -0.0342887 0 774 2069 4.36461e-10 1.02661e-05 -1.35626e-06 5.18854e-10 1.03229e-07 
0 0 0 -0.0297908 0.0147499 0.078907 0 774 210 4.93469e-06 9.88464e-06 -3.42663e-06 5.18955e-10 1.03249e-07 
0 0 0 0.00250092 0.00244734 0.0130898 0 774 570 -0.000234941 3.13096e-05 0.000111246 5.18765e-10 1.03212e-07 
0 0 0 9.99099 -2.97989 -2.32321 0 952 2116 -0.10967 0.0146953 0.233305 3.14958e-07 6.5326e-05 
0 0 0 0.803182 16.7609 8.59109 0 948 4201 -0.000258022 0.0377472 -0.0884458 2.1286e-07 4.35314e-05 
0 0 0 -0.0185856 0.0126246 0.0675356 0 774 248 2.46613e-18 1.02659e-05 -1.35713e-06 5.18851e-10 1.03229e-07 
0 0 0 -0.075801 0.0289023 0.154614 0 774 2656 -1.93943e-17 1.02659e-05 -1.35713e-06 5.18851e-10 1.03229e-07 
0 0 0 7.5848e-82 -8.48578e-20 -3.535e-12 0 884 871 -4.44468e-83 5.25978e-06 -1.62002 1.22522e-06 0.0003 
0 0 0 5.9e-76 -8.49519e-20 2.36053e-12 0 884 2565 3.23607e-78 5.25978e-06 -1.62002 1.22522e-06 0.0003 
0 0 0 -3.31462e-302 -1.87969e-20 -4.72344e-12 0 884 3089 -1.63013e-307 5.25978e-06 -1.62002 1.22522e-06 0.0003 
0 0 0 1.20089 -2.32397 0.0199922 0 884 3737 8.13316e-06 5.40662e-05 -0.000103341 2.00451e-09 3.98885e-07 
0 0 0 0.681359 0.136639 -0.051587 0 884 3906 -5.25368e-05 1.33804e-05 0.0121307 5.39029e-08 1.07965e-05 
0 0 0 0.331266 -0.227233 0.0546427 0 884 1500 -0.000207276 9.35744e-06 -0.000414974 2.56934e-09 5.11318e-07 
0 0 0 -1.59694e-302 -9.41954e-21 5.89788e-12 0 884 2130 -2.00538e-307 5.25978e-06 -1.62002 1.22522e-06 0.0003 
0 0 0 7.66996e-14 9.76948e-21 -1.41443e-302 0 862 444 -1.62002 5.25978e-06 3.66977e-307 1.22522e-06 0.0003 
0 0 0 -9.08362e-14 -6.59602e-20 -2.51017e-302 0 862 927 -1.62002 5.25978e-06 1.12853e-307 1.22522e-06 0.0003 
0 0 0 0.413923 -1.06757 0.175845 0 854 2425 -0.00343833 7.24046e-05 0.00171764 2.61929e-08 5.22799e-06 
0 0 0 0.116856 0.226426 0.28852 0 854 3658 -0.000920779 6.13543e-05 0.00056833 7.32734e-09 1.45906e-06 
0 0 0 1.27128e-302 2.83311e-20 -2.36062e-12 0 850 478 -1.44536e-307 5.25978e-06 1.62002 1.22522e-06 0.0003 
0 0 0 7.5848e-82 -8.48578e-20 -3.535e-12 0 850 871 -4.44468e-83 5.25978e-06 1.62002 1.22522e-06 0.0003 
0 0 0 1.02374e-88 -8.49831e-20 5.89795e-12 0 850 283 -2.31068e-90 5.25978e-06 1.62002 1.22522e-06 0.0003 
0 0 0 5.9e-76 -8.49519e-20 2.36053e-12 0 850 2565 3.23607e-78 5.25978e-06 1.62002 1.22522e-06 0.0003 
0 0 0 -6.89376e-266 8.49421e-20 -4.72348e-12 0 850 2321 -2.64265e-266 5.25978e-06 1.62002 1.22522e-06 0.0003 
0 0 0 -3.31462e-302 -1.87969e-20 -4.72344e-12 0 850 3089 2.56062e-307 5.25978e-06 1.62002 1.22522e-06 0.0003 
0 0 0 -1.59694e-302 -9.41954e-21 5.89788e-12 0 850 2130 1.0716e-307 5.25978e-06 1.62002 1.22522e-06 0.0003 
0 0 0 7.66996e-14 9.76948e-21 -1.41443e-302 0 822 444 1.62002 5.25978e-06 -2.75494e-307 1.22522e-06 0.0003 
0 0 0 -9.08362e-14 -6.59602e-20 -2.51017e-302 0 821 927 1.62002 5.25978e-06 -2.05562e-307 1.22522e-06 0.0003 
0 0 0 1.27128e-302 2.83311e-20 -2.36062e-12 0 885 478 5.1801e-308 5.25978e-06 -1.62002 1.22522e-06 0.0003 
0 0 0 1.02374e-88 -8.49831e-20 5.89795e-12 0 885 283 -2.31068e-90 5.25978e-06 -1.62002 1.22522e-06 0.0003 
0 0 0 -6.89376e-266 8.49421e-20 -4.72348e-12 0 885 2321 -2.64265e-266 5.25978e-06 -1.62002 1.22522e-06 0.0003 
0 0 0 -0.0163606 4.76318e-12 -0.0952093 0 852 846 2.41713e-18 1.05196e-05 -9.58364e-18 5.24825e-10 1.04417e-07 
0 0 0 0.0153815 -0.060494 -0.0151989 0 894 916 -0.000844202 0.000139092 -0.0018982 1.81025e-08 3.60952e-06 
0 0 0 -0.0188653 -0.103459 -0.00663598 0 894 1652 -1.07136e-06 6.05345e-06 -1.22951e-05 1.88751e-09 3.75597e-07 
0 0 0 -0.0170132 0.100307 -0.00271984 0 894 965 -0.000373563 -0.000473484 -0.00120621 1.2635e-08 2.51761e-06 
0 0 0 3.60556 -4.31531 1.469 0 894 2562 -0.00653891 -0.00917799 -0.261221 3.69215e-07 7.71755e-05 
0 0 0 -5.37009e-14 7.60443e-20 -3.78643e-302 0 866 887 -1.62002 5.25978e-06 -4.8624e-307 1.22522e-06 0.0003 
0 0 0 0.0153815 -0.060494 -0.0151989 0 855 916 0.0038089 0.000366518 0.000394695 2.78132e-08 5.55253e-06 
0 0 0 -0.141286 -0.0182242 0.200755 0 855 3412 0.00183378 0.00215788 -0.00357559 4.47705e-09 8.91177e-07 
0 0 0 1.95505 14.1409 -16.6325 0 962 3663 -0.0133394 -0.0344593 -0.0253084 1.70204e-07 3.46097e-05 
0 0 0 -0.348193 1.69907 -3.36676 0 954 4265 4.42254e-05 0.00353794 0.0354983 4.68704e-09 9.33002e-07 
0 0 0 -1.63484e-14 -4.71753e-20 2.10983e-302 0 857 2716 -1.62002 5.25978e-06 2.58785e-307 1.22522e-06 0.0003 
0 0 0 -1.63484e-14 -4.71753e-20 2.10983e-302 0 820 2716 1.62002 5.25978e-06 -3.52969e-307 1.22522e-06 0.0003 
0 0 0 -5.37009e-14 7.60443e-20 -3.78643e-302 0 828 887 1.62002 5.25978e-06 5.80655e-307 1.22522e-06 0.0003 
0 0 0 2.63487 -11.0068 10.13 0 926 1449 -0.000680267 0.030016 0.0148999 1.83121e-07 3.73004e-05 
0 0 0 0.234267 -0.365988 0.401535 0 784 1576 0.000198806 0.000171149 -0.000177613 4.03652e-10 8.03081e-08 
0 0 0 0.306785 0.00703094 -0.0376122 0 778 3614 -3.37539e-17 1.02659e-05 1.35713e-06 5.18851e-10 1.03229e-07 
0 0 0 -0.0384521 7.34807e-13 0.0581176 0 776 2205 -4.79189e-18 1.05196e-05 6.69095e-18 5.24825e-10 1.04417e-07 
0 0 0 0.0148166 5.7143e-13 0.170388 0 776 607 -2.94407e-06 1.05196e-05 -1.75323e-06 5.24825e-10 1.04417e-07 
0 0 0 -0.10587 1.21821e-12 0.142326 0 776 1376 0 1.05196e-05 0 5.24825e-10 1.04417e-07 
0 0 0 -0.0130983 -5.71059e-12 -0.00610713 0 776 1275 2.39614e-18 1.05196e-05 -6.04279e-19 5.24825e-10 1.04417e-07 
0 0 0 0.0590993 -5.71059e-12 0.00590102 0 776 949 -1.46738e-18 1.05196e-05 5.98988e-19 5.24825e-10 1.04417e-07 
0 0 0 0.284028 -0.208618 0.228842 0 785 2125 -3.43036e-17 7.10933e-06 3.74085e-06 4.28995e-10 8.53504e-08 
0 0 0 0.0453602 0.0373079 0.199589 0 775 833 -2.19152e-11 1.02724e-05 -1.3584e-06 5.18697e-10 1.03198e-07 
0 0 0 -0.0287125 0.0089541 0.0479001 0 775 39 2.97691e-18 1.02659e-05 -1.35713e-06 5.18851e-10 1.03229e-07 
0 0 0 -8.43047 22.9322 9.71553 0 948 495 0.00812987 0.010083 -0.0141363 1.62215e-07 3.29503e-05 
0 0 0 -13.532 32.3268 13.838 0 948 2197 -0.0059611 1.37448e-06 0.0356263 3.91396e-08 7.82484e-06 
0 0 0 -0.175887 0.0157296 0.0841457 0 774 1591 2.67889e-16 1.02659e-05 -1.35713e-06 5.18851e-10 1.03229e-07 
0 0 0 0.0911114 0.00948317 0.0507304 0 774 693 7.82813e-18 1.02659e-05 -1.35713e-06 5.18851e-10 1.03229e-07 
0 0 0 -0.0236298 0.0387563 0.207328 0 774 172 6.35238e-17 1.02659e-05 -1.35713e-06 5.18851e-10 1.03229e-07 
0 0 0 0.0584155 0.00841422 0.045012 0 774 2861 -4.51465e-06 9.70138e-06 -4.3769e-06 5.18851e-10 1.03229e-07 
0 0 0 0.0750972 0.0312015 0.166913 0 774 163 3.30897e-18 1.02659e-05 -1.35713e-06 5.18851e-10 1.03229e-07 
0 0 0 -0.0589261 -0.00644685 -0.0344876 0 774 1555 -2.53223e-18 1.02659e-05 -1.35713e-06 5.18851e-10 1.03229e-07 
0 0 0 -0.155737 0.0312191 0.0805856 0 772 1306 -1.29893e-18 9.53905e-06 -2.53098e-06 5.00925e-10 9.96621e-08 
0 0 0 -0.264834 0.0594803 0.153536 0 773 531 5.04104e-18 9.53905e-06 -2.53098e-06 5.00925e-10 9.96621e-08 
0 66.4384 76.9107 -0.0128879 65.9127 77.3016 1 2706 2710 -1.14293 -0.585601 -1.00397 1.22776e-06 0.000300809 
0 63.8908 78.8004 0.0493299 63.3976 79.2695 1 2706 3382 -1.5472 -1.0809 -1.62643 1.50114e-06 0.000397294 
0 61.5564 77.0788 0.939224 61.4537 78.1181 1 2706 2800 -1.78625 -1.03239 -1.54592 1.51337e-06 0.000402155 
0 59.2788 75.2133 1.59535 59.8968 76.9044 1 2706 3056 -1.52883 -0.965615 -1.34528 1.40394e-06 0.000360553 
0 56.9594 73.3148 -0.0664308 56.6425 73.7586 1 2706 4033 -1.39432 -0.910265 -1.29436 1.39343e-06 0.000356764 
0 78.845 69.5422 0.315588 78.2549 70.2534 1 2691 123 -1.02148 -0.634462 -0.744547 1.13251e-06 0.000271313 
0 77.1187 67.2061 -0.0341519 76.4721 67.647 1 2691 76 -0.993115 -0.462907 -0.624672 1.07013e-06 0.000252855 
0 75.4862 64.6372 -0.0199203 74.8477 65.1128 1 2691 34 -0.991842 -0.237175 -0.552897 1.00475e-06 0.000234157 
0 71.8314 59.8319 -0.00463674 71.2182 60.2696 1 2691 717 -1.10125 -0.537168 -0.793058 1.15913e-06 0.000279387 
0 69.5401 56.5693 -0.00542668 68.8946 57.0336 1 2691 258 -1.22824 -0.365867 -0.665827 1.1363e-06 0.000272454 
0 67.7418 53.6546 -0.042716 67.0615 54.1731 1 2691 1252 -0.52631 0.0215443 -0.361716 6.82732e-07 0.000149862 
0 77.0725 70.3787 0.0922431 76.5829 70.7627 1 2691 2399 -0.885372 -1.19409 -0.950172 1.24032e-06 0.000304829 
0 75.1523 67.495 -0.0108414 74.5803 67.9121 1 2691 1299 -1.46188 -0.531984 -0.807587 1.26209e-06 0.000311877 
0 73.7904 64.9675 -0.000529029 73.1822 65.4157 1 2691 53 -1.66927 -0.578385 -0.574748 1.27359e-06 0.000315639 
0 71.2803 62.0509 -0.00197548 70.7172 62.4574 1 2691 97 -1.28087 -0.579298 -0.851649 1.23054e-06 0.000301697 
0 73.6185 62.5283 0.00805524 73.0594 62.9056 1 2691 500 -1.0433 -0.887605 -0.863016 1.21716e-06 0.00029744 
0 66.5127 54.964 -0.0200427 65.7911 55.481 1 2691 282 -1.36088 -0.164099 -0.746711 1.16087e-06 0.000279919 
0 66.1423 52.7784 0.124956 65.5546 53.052 1 2691 3437 -1.91654 -1.95804 -0.620435 1.51385e-06 0.00040235 
0 58.289 65.471 -0.0107955 57.7564 65.8642 1 2691 44 -1.14566 -0.596032 -0.993176 1.22776e-06 0.000300809 
0 81.0107 73.0764 -2.84167 77.8544 70.1338 1 2683 1300 0.0624382 0.0502056 0.0379173 5.8465e-08 1.17171e-05 
0 80.639 73.3256 -2.84167 77.8544 70.1338 1 2682 1300 0.0679816 0.199937 -0.190638 4.37149e-07 9.22916e-05 
0 71.89 59.7901 -0.00463674 71.2182 60.2696 1 2681 717 0.423212 -0.660711 -0.879994 9.84591e-07 0.000228515 
0 69.5667 56.5503 -0.00542668 68.8946 57.0336 1 2681 258 0.528788 -0.7028 -0.981954 1.058e-06 0.000249337 
0 67.441 53.8692 -0.042716 67.0615 54.1731 1 2681 1252 1.00362 -1.51904 -2.20216 1.53544e-06 0.000411085 
0 77.6937 70.3635 0.315588 78.2549 70.2534 1 2709 123 0.657174 1.33792 1.43283 1.31279e-06 0.000328696 
0 75.9675 68.0274 -0.0341519 76.4721 67.647 1 2709 76 1.02829 1.24372 1.35595 1.36638e-06 0.000347155 
0 74.3349 65.4585 -0.0199203 74.8477 65.1128 1 2709 34 0.958181 1.56326 1.49805 1.41848e-06 0.000365852 
0 70.6802 60.6532 -0.00463674 71.2182 60.2696 1 2709 717 0.750856 1.10747 1.39728 1.28867e-06 0.000320623 
0 68.3888 57.3906 -0.00542668 68.8946 57.0336 1 2709 258 0.699475 1.1873 1.50472 1.3094e-06 0.000327556 
0 66.5905 54.4759 -0.042716 67.0615 54.1731 1 2709 1252 1.41203 2.31151 1.79022 1.6261e-06 0.000450148 
0 75.9212 71.2 0.0922431 76.5829 70.7627 1 2709 2399 0.963022 0.655216 1.08933 1.21001e-06 0.00029518 
0 74.0011 68.3163 -0.0108414 74.5803 67.9121 1 2709 1299 0.985052 0.870323 0.818263 1.1875e-06 0.000288132 
0 72.6392 65.7888 -0.000529029 73.1822 65.4157 1 2709 53 0.663784 0.98235 1.08041 1.17535e-06 0.00028437 
0 70.129 62.8722 -0.00197548 70.7172 62.4574 1 2709 97 1.00044 0.867767 0.942484 1.21991e-06 0.000298312 
0 72.4672 63.3496 0.00805524 73.0594 62.9056 1 2709 500 1.0343 0.846537 0.976644 1.23327e-06 0.000302569 
0 65.3614 55.7853 -0.0200427 65.7911 55.481 1 2709 282 0.815841 1.51785 1.01777 1.28707e-06 0.00032009 
0 64.991 53.5997 0.124956 65.5546 53.052 1 2709 3437 0.571433 0.144009 0.700083 8.70804e-07 0.000197659 
0 59.9685 53.9299 -0.104177 60.6071 53.6059 1 2709 2302 1.16706 1.32502 0.452154 1.22899e-06 0.0003012 
0 78.8371 69.5478 0.315588 78.2549 70.2534 1 2680 123 0.547307 -0.876911 -1.20988 1.15503e-06 0.000278137 
0 77.1292 67.1987 -0.0341519 76.4721 67.647 1 2680 76 0.420429 -0.724446 -1.0292 1.03867e-06 0.000243779 
0 75.3425 64.7397 -0.0199203 74.8477 65.1128 1 2680 34 0.995717 -1.1209 -1.66287 1.39952e-06 0.000358956 
0 80.5697 71.6769 -2.84167 77.8544 70.1338 1 2680 1300 0.0614751 0.0304296 0.0337442 5.50652e-08 1.10309e-05 
0 73.7884 62.4071 0.00805524 73.0594 62.9056 1 2680 500 0.211506 -0.416966 -0.435068 6.8272e-07 0.000149859 
0 59.9317 52.6635 -0.104177 60.6071 53.6059 1 2677 2302 -0.0326398 -1.16907 0.794402 1.14095e-06 0.000273858 
0 78.992 72.8877 -2.84167 77.8544 70.1338 1 2720 1300 0.702902 0.593191 0.58096 8.95691e-07 0.000204271 
0 67.9715 71.6312 0.753941 68.481 71.0619 1 2720 370 0.038583 0.0780178 0.051176 2.49348e-07 5.12476e-05 
0 65.6493 71.3665 1.17924 66.2307 70.9387 1 2720 2095 0.126717 0.180294 0.0771706 4.16148e-07 8.75845e-05 
0 63.3158 71.1004 0.317117 63.8435 69.6848 1 2720 83 0.0925709 0.0898315 0.073365 2.78767e-07 5.75274e-05 
0 65.2871 77.7321 -0.0128879 65.9127 77.3016 1 2720 2710 1.14294 0.747892 0.865473 1.22269e-06 0.000299196 
0 59.3582 70.6492 5.96833 63.1125 74.0265 1 2720 4081 -0.0604497 -0.0847556 -0.0575172 9.95376e-08 2.00537e-05 
0 61.1855 70.8575 0.602357 62.2004 70.7358 1 2720 3400 0.678599 0.961357 0.596366 1.08707e-06 0.000257806 
0 62.7396 79.6217 0.0493299 63.3976 79.2695 1 2720 3382 0.620973 0.360779 0.535291 8.89839e-07 0.00020271 
0 60.4052 77.9001 0.939224 61.4537 78.1181 1 2720 2800 0.587688 0.317156 0.468083 8.71521e-07 0.000197849 
0 55.7415 70.293 2.85501 57.8838 72.3446 1 2720 2549 0.939844 1.02004 1.16918 1.34669e-06 0.000340287 
0 58.1276 76.0346 1.59535 59.8968 76.9044 1 2720 3056 0.744539 0.42378 0.60567 1.02348e-06 0.00023945 
0 77.1574 71.1918 0.0922431 76.5829 70.7627 1 2692 2399 -0.397323 0.297468 -0.0665583 5.87822e-07 0.000127029 
0 77.1953 71.3327 0.0922431 76.5829 70.7627 1 2693 2399 -0.139301 0.161921 -0.0527966 3.51638e-07 7.33157e-05 
0 77.2292 71.4421 0.0922431 76.5829 70.7627 1 2708 2399 -0.031718 0.0436332 -0.0146897 1.44313e-07 2.92448e-05 
0 80.1282 71.9907 -2.84167 77.8544 70.1338 1 2708 1300 -1.58355 -0.796265 -1.37221 1.49357e-06 0.000394313 
0 68.9597 69.9911 0.753941 68.481 71.0619 1 2708 370 -1.6729 -1.03297 -1.58503 1.50165e-06 0.000397497 
0 66.6532 69.8046 1.17924 66.2307 70.9387 1 2708 2095 -1.73039 -0.96595 -1.37539 1.46677e-06 0.000383933 
0 64.2975 69.4273 0.317117 63.8435 69.6848 1 2708 83 -1.60612 -0.953445 -1.3 1.4438e-06 0.000375238 
0 60.3 68.7757 5.96833 63.1125 74.0265 1 2708 4081 -1.70047 -0.935927 -1.0747 1.29168e-06 0.000321622 
0 62.1806 69.0879 0.602357 62.2004 70.7358 1 2708 3400 -0.22501 -0.376534 -0.356166 6.11143e-07 0.000132567 
0 58.0854 68.2618 1.02454 58.2668 69.2265 1 2708 675 -1.38337 -1.25471 -1.34809 1.42451e-06 0.000368068 
0 51.8298 67.1774 0.000650341 50.3246 67.5019 1 2708 739 0.0173894 -0.00593087 -0.0432296 1.29835e-07 2.62609e-05 
0 80.1284 71.9917 -2.84167 77.8544 70.1338 1 2707 1300 -1.58117 -0.892139 -1.30649 1.49357e-06 0.000394313 
0 62.3219 69.9619 0.602357 62.2004 70.7358 1 2707 3400 -1.45969 -0.654595 -1.21537 1.34773e-06 0.000340648 
0 56.8928 69.4717 2.85501 57.8838 72.3446 1 2707 2549 -1.37132 -0.305574 -0.690122 1.09357e-06 0.000259717 
0 51.8075 67.6306 0.000650341 50.3246 67.5019 1 2707 739 0.0097367 0.00708332 -0.0484449 1.35167e-07 2.73585e-05 
0 61.1198 53.1085 -0.104177 60.6071 53.6059 1 2690 2302 -1.12928 -0.0447347 -1.37862 1.22147e-06 0.000298809 
0 50.5207 63.8836 0.00335847 49.2835 64.7734 1 2690 134 0.000624698 -0.00782409 -0.0473328 1.3148e-07 2.65994e-05 
0 57.1378 66.2923 -0.0107955 57.7564 65.8642 1 2710 44 1.14567 0.734312 0.871824 1.2227e-06 0.000299197 
0 49.3694 64.7049 0.00335847 49.2835 64.7734 1 2710 134 0.0116326 0.00414886 -0.00423667 5.60703e-08 1.12337e-05 
0 76.0061 72.0131 0.0922431 76.5829 70.7627 1 2711 2399 0.290465 0.323929 0.129674 5.57507e-07 0.000119897 
0 76.082 72.2757 0.0922431 76.5829 70.7627 1 2718 2399 0.0091736 0.017465 0.0142341 8.92628e-08 1.79599e-05 
0 67.8085 70.8124 0.753941 68.481 71.0619 1 2718 370 0.690699 0.291489 0.432955 8.89088e-07 0.00020251 
0 65.5019 70.6259 1.17924 66.2307 70.9387 1 2718 2095 0.684672 0.345164 0.532804 9.3942e-07 0.000216071 
0 63.1462 70.2486 0.317117 63.8435 69.6848 1 2718 83 0.836824 0.42594 0.478948 9.7108e-07 0.000224765 
0 59.1487 69.5971 5.96833 63.1125 74.0265 1 2718 4081 0.808717 0.304622 0.6227 1.15583e-06 0.000278379 
0 56.9342 69.0832 1.02454 58.2668 69.2265 1 2718 675 0.808767 0.243595 0.640735 9.96832e-07 0.000231935 
0 50.6786 67.9987 0.000650341 50.3246 67.5019 1 2718 739 0.193723 0.10521 -0.12452 4.02983e-07 8.46493e-05 
0 78.9771 72.813 -2.84167 77.8544 70.1338 1 2719 1300 0.76034 0.451417 0.643995 9.01016e-07 0.000205696 
0 67.8406 71.0108 0.753941 68.481 71.0619 1 2719 370 0.530063 0.498753 0.339537 8.51113e-07 0.000192479 
0 65.503 70.6328 1.17924 66.2307 70.9387 1 2719 2095 0.685897 0.450145 0.45587 9.39374e-07 0.000216058 
0 63.1467 70.2517 0.317117 63.8435 69.6848 1 2719 83 0.762494 0.470628 0.538181 9.71071e-07 0.000224762 
0 59.1501 69.6053 5.96833 63.1125 74.0265 1 2719 4081 0.784657 0.454413 0.545112 1.15576e-06 0.000278359 
0 61.1706 70.7832 0.602357 62.2004 70.7358 1 2719 3400 1.05635 0.534056 0.518061 1.09235e-06 0.000259357 
0 56.9613 69.2512 1.02454 58.2668 69.2265 1 2719 675 0.870563 0.504044 0.292887 9.69586e-07 0.000224351 
0 50.7221 68.2421 0.000650341 50.3246 67.5019 1 2719 739 0.108968 0.137601 -0.116006 3.46162e-07 7.21173e-05 
0 62.6728 79.7585 0.0493299 63.3976 79.2695 1 2721 3382 0.545125 0.474566 0.439684 8.57576e-07 0.000194174 
0 60.4049 77.9007 0.939224 61.4537 78.1181 1 2721 2800 0.658081 0.288635 0.402095 8.7152e-07 0.000197848 
0 58.1273 76.035 1.59535 59.8968 76.9044 1 2721 3056 0.789309 0.420285 0.553218 1.02348e-06 0.00023945 
0 55.8081 74.1361 -0.0664308 56.6425 73.7586 1 2721 4033 0.858537 0.48018 0.651317 1.03678e-06 0.000243239 
0 62.6277 79.8613 0.0493299 63.3976 79.2695 1 2722 3382 0.481712 0.388536 0.416919 7.93294e-07 0.000177516 
0 60.3441 78.031 0.939224 61.4537 78.1181 1 2722 2800 0.41787 0.472549 0.447839 8.42734e-07 0.000190288 
0 58.0529 76.1946 1.59535 59.8968 76.9044 1 2722 3056 0.546339 0.567691 0.560958 9.80436e-07 0.000227359 
0 55.72 74.3248 -0.0664308 56.6425 73.7586 1 2722 4033 0.624738 0.592 0.618365 9.76887e-07 0.000226374 
0 63.5717 79.7293 0.0493299 63.3976 79.2695 1 2698 3382 -0.0947633 0.0698334 0.0326727 2.41702e-07 4.96242e-05 
0 61.2106 78.0856 0.939224 61.4537 78.1181 1 2698 2800 -0.0204067 -0.0010019 -0.0180514 3.38745e-08 6.76775e-06 
0 51.5371 68.0989 -0.00172393 50.2564 67.6821 1 137 564 -0.105256 0.117907 -0.106536 3.22224e-07 6.69019e-05 
0 51.5645 68.224 -0.00172393 50.2564 67.6821 1 136 564 -0.0212628 0.0469044 -0.376302 5.20588e-07 0.000111312 
0 51.3416 68.1786 -0.00172393 50.2564 67.6821 1 138 564 -0.0580457 0.0669047 -0.0411151 2.09444e-07 4.28131e-05 
0 51.2826 68.9123 -0.00172393 50.2564 67.6821 1 120 564 -0.0020511 0.01619 -0.00354844 6.44871e-08 1.29339e-05 
0 49.8213 65.1174 -0.00818953 48.9276 65.7705 1 97 760 -0.035989 7.60253e-05 -0.043143 1.45955e-07 2.95838e-05 
0 49.2663 65.5134 -0.00818953 48.9276 65.7705 1 98 760 -0.0126927 0.00294198 -0.00729102 6.13645e-08 1.23027e-05 
0 48.0868 68.1896 -0.01375 47.7239 67.3904 1 2665 47 0.0222632 0.0118599 -0.0218687 1.03909e-07 2.09462e-05 
0 48.6857 69.8139 0.00774055 48.1161 68.6704 1 126 2167 -0.0189779 0.143459 -0.0985918 3.06847e-07 6.35711e-05 
0 48.6449 70.6642 -0.0268244 48.0394 69.4624 1 2647 3304 0.00698067 0.0173 0.000100122 7.053e-08 1.41567e-05 
0 48.6839 70.8316 -0.0268244 48.0394 69.4624 1 2645 3304 -0.0190896 0.0773489 -0.0417434 2.03508e-07 4.15665e-05 
0 47.8271 68.1655 -0.01375 47.7239 67.3904 1 2664 47 0.0470585 0.0269262 -0.0333385 1.58692e-07 3.22195e-05 
0 48.4699 70.9155 -0.0268244 48.0394 69.4624 1 2644 3304 0.049612 0.0847404 -0.0611211 2.33988e-07 4.79899e-05 
0 48.2458 69.6522 0.00774055 48.1161 68.6704 1 127 2167 -0.109398 0.114724 0.00433005 3.05273e-07 6.32309e-05 
0 48.2077 69.5949 0.00774055 48.1161 68.6704 1 117 2167 -0.123862 0.104794 0.00724041 3.10825e-07 6.44313e-05 
0 48.1251 70.9321 -0.0268244 48.0394 69.4624 1 2672 3304 0.0275388 0.184088 -0.106576 3.47295e-07 7.23652e-05 
0 47.3762 67.5974 -0.01375 47.7239 67.3904 1 74 47 0.119406 0.0375909 -0.0288659 2.49887e-07 5.13622e-05 
0 48.0096 70.8604 -0.0268244 48.0394 69.4624 1 2671 3304 0.0250873 0.0342488 0.0147221 1.29762e-07 2.62459e-05 
0 45.0873 67.5299 0.00588003 45.7739 67.05 1 89 3329 -0.013331 0.00699331 -5.77931e-05 6.13451e-08 1.22987e-05 
0 45.4309 67.2848 0.00588003 45.7739 67.05 1 91 3329 -0.0414889 0.0165698 -0.00876096 1.27122e-07 2.57031e-05 
0 44.9841 70.396 0.0108583 45.4721 69.0576 1 2658 2782 -0.0392897 0.0565631 -0.00767875 1.67761e-07 3.41018e-05 
0 44.3268 67.9949 -0.0170147 45.0861 67.4425 1 77 759 0.0125637 0.0155316 0.00635153 7.61242e-08 1.52906e-05 
0 44.8487 70.3995 0.0108583 45.4721 69.0576 1 2657 2782 -0.0367016 0.109631 -0.00465657 2.33972e-07 4.79864e-05 
0 44.123 68.1218 -0.0170147 45.0861 67.4425 1 83 759 0.0129843 0.0224722 0.0107764 9.27274e-08 1.86653e-05 
0 44.388 69.8783 0.0108583 45.4721 69.0576 1 86 2782 -0.00606412 0.000725026 0.00759401 4.56195e-08 9.12778e-06 
0 44.1981 68.0579 -0.0170147 45.0861 67.4425 1 76 759 0.0183285 0.0274129 0.0130114 1.07936e-07 2.17694e-05 
0 44.2693 69.9166 0.0108583 45.4721 69.0576 1 84 2782 -0.0105852 0.080632 0.0525741 2.12342e-07 4.34225e-05 
0 45.0072 67.5871 0.00588003 45.7739 67.05 1 2695 3329 -0.00983093 0.00561998 0.000526771 5.08809e-08 1.01873e-05 
0 44.3303 69.8271 0.0108583 45.4721 69.0576 1 85 2782 -0.0186742 0.00189166 0.0195869 9.02121e-08 1.81531e-05 
0 42.4743 67.3365 -0.0165236 43.6684 66.483 1 85 100 -0.00148543 0.0436415 0.0264451 1.37391e-07 2.78167e-05 
0 0 0 0.22527 -0.117554 -0.0887725 0 912 3491 -3.0532e-17 5.73456e-06 -3.61347e-06 3.74448e-10 7.44976e-08 
0 0 0 1.58772e-302 -7.54117e-20 3.53504e-12 0 885 1971 -5.03374e-307 5.25978e-06 -1.62002 1.22522e-06 0.0003 
0 0 0 -3.70375e-303 7.53346e-20 1.18147e-12 0 885 1881 6.62684e-307 5.25978e-06 -1.62002 1.22522e-06 0.0003 
0 0 0 3.38259e-302 -5.65827e-20 -1.18148e-12 0 885 1411 -3.96489e-307 5.25978e-06 -1.62002 1.22522e-06 0.0003 
0 0 0 1.14611e-302 8.48222e-20 -5.89793e-12 0 885 2581 -1.96198e-307 5.25978e-06 -1.62002 1.22522e-06 0.0003 
0 0 0 2.13935e-302 9.42346e-21 -5.89795e-12 0 885 2905 -8.54096e-307 5.25978e-06 -1.62002 1.22522e-06 0.0003 
0 0 0 6.02944e-16 1.15554e-15 5.92187e-13 0 885 20 0.205385 0.0567275 -1.65665 1.23931e-06 0.000304505 
0 0 0 -3.2457e-16 -1.17993e-15 5.87272e-13 0 885 1092 -0.131597 -0.0363386 -1.58366 1.211e-06 0.000295495 
0 0 0 -3.94514e-302 5.64595e-20 2.36054e-12 0 885 1796 -3.26409e-307 5.25978e-06 -1.62002 1.22522e-06 0.0003 
0 0 0 3.60242e-302 -3.76888e-20 -1.18143e-12 0 885 1312 5.02665e-307 5.25978e-06 -1.62002 1.22522e-06 0.0003 
0 0 0 -1.39525e-15 1.01247e-15 2.91318e-15 0 885 226 0.0697553 0.0462524 -1.61479 1.22319e-06 0.000299354 
0 0 0 1.1131e-16 3.07413e-16 2.48519e-15 0 885 294 -0.0150081 0.0234062 -1.61999 1.22521e-06 0.000299996 
0 0 0 -5.10075e-16 -7.48837e-16 2.42199e-15 0 885 643 0.216536 0.00791155 -1.55021 1.19771e-06 0.000291319 
0 0 0 -2.07898e-15 -2.13118e-15 6.96822e-15 0 885 1570 -0.337028 -0.320257 -1.66214 1.2414e-06 0.000305177 
0 0 0 -3.87911e-302 4.70752e-20 -4.7235e-12 0 885 2443 1.87623e-307 5.25978e-06 -1.62002 1.22522e-06 0.0003 
0 0 0 -3.10968e-88 -8.47477e-20 4.72346e-12 0 885 1533 4.33604e-90 5.25978e-06 -1.62002 1.22522e-06 0.0003 
0 0 0 -1.23282e-15 2.92736e-15 6.97723e-15 0 885 2662 -0.102737 0.254875 -1.65379 1.23822e-06 0.000304154 
0 0 0 1.55367e-218 8.4672e-20 -1.18146e-12 0 885 245 -5.11895e-220 5.25978e-06 -1.62002 1.22522e-06 0.0003 
0 0 0 -11.3466 -4.31651 11.4737 0 885 4335 -0.0791306 0.205218 0.187517 7.41951e-07 0.000164524 
0 0 0 -6.23779e-43 -8.50334e-20 3.53499e-12 0 885 428 1.02306e-43 5.25978e-06 -1.62002 1.22522e-06 0.0003 
0 0 0 -0.799783 -0.597745 2.91428 0 885 524 -0.0403598 0.113229 -1.71378 1.20781e-06 0.000294488 
0 0 0 8.73854e-99 5.67839e-20 -4.72342e-12 0 885 775 3.21538e-100 5.25978e-06 -1.62002 1.22522e-06 0.0003 
0 0 0 -3.47829e-16 2.97707e-16 5.89701e-13 0 885 1379 0.0165573 0.115913 -1.62123 1.22569e-06 0.00030015 
0 0 0 4.19879e-16 -6.18701e-16 5.89472e-13 0 885 394 -0.0161822 -0.113276 -1.61881 1.22475e-06 0.00029985 
0 0 0 -1.53682e-16 -6.95427e-17 -3.37654e-13 0 885 193 0.0286975 -0.0100205 -1.62431 1.22688e-06 0.000300529 
0 0 0 -2.02379e-302 9.43287e-21 5.89789e-12 0 885 506 0 5.25978e-06 -1.62002 1.22522e-06 0.0003 
0 0 0 4.0092e-256 8.4779e-20 -5.89793e-12 0 885 1184 -6.27357e-258 5.25978e-06 -1.62002 1.22522e-06 0.0003 
0 0 0 -7.61182e-303 9.41901e-21 -2.36054e-12 0 885 730 1.09003e-307 5.25978e-06 -1.62002 1.22522e-06 0.0003 
0 0 0 2.03691e-09 -1.98905e-10 1.46234e-10 0 885 797 1.49086e-11 5.25967e-06 -1.62002 1.22522e-06 0.0003 
0 0 0 3.64979e-302 -8.49281e-20 -3.53499e-12 0 885 757 -6.563e-307 5.25978e-06 -1.62002 1.22522e-06 0.0003 
0 0 0 -2.7407e-16 -2.94306e-17 -3.37611e-13 0 885 540 0.0956486 0.0146029 -1.63573 1.23129e-06 0.000301936 
0 0 0 -1.45951e-86 -8.48754e-20 -5.89793e-12 0 885 115 -5.1851e-88 5.25978e-06 -1.62002 1.22522e-06 0.0003 
0 0 0 -1.0029e-15 -3.21732e-17 -1.93665e-12 0 885 621 0.0556343 0.0030276 -1.62137 1.22575e-06 0.000300167 
0 0 0 -7.58035e-303 5.65664e-20 -4.72345e-12 0 885 522 4.21145e-307 5.25978e-06 -1.62002 1.22522e-06 0.0003 
0 0 0 -5.84489e-17 -9.00969e-16 -3.3829e-13 0 885 364 -0.0244401 -0.0609594 -1.56868 1.20508e-06 0.000293628 
0 0 0 -7.56368e-303 6.53321e-20 -2.32261e-15 0 885 787 -3.09485e-308 5.25978e-06 -1.62002 1.22522e-06 0.0003 
0 0 0 3.07961e-16 2.32495e-16 -1.93658e-12 0 885 2532 -0.0145134 0.0168148 -1.61948 1.22501e-06 0.000299933 
0 0 0 2.3223e-16 -1.4529e-16 -1.93657e-12 0 885 1994 -0.0386103 -0.0199331 -1.61921 1.22491e-06 0.0002999 
0 0 0 -4.17585e-302 -7.55187e-20 1.18142e-12 0 885 156 -2.89805e-307 5.25978e-06 -1.62002 1.22522e-06 0.0003 
0 0 0 3.86386e-16 -1.81541e-15 -3.36465e-13 0 885 2263 -0.0575895 0.118025 -1.64966 1.23664e-06 0.000303648 
0 0 0 2.94995e-302 -4.72432e-20 -2.36057e-12 0 885 2245 -7.00262e-307 5.25978e-06 -1.62002 1.22522e-06 0.0003 
0 0 0 7.48537e-303 7.55438e-20 -1.1814e-12 0 885 336 2.54616e-307 5.25978e-06 -1.62002 1.22522e-06 0.0003 
0 0 0 2.59091e-16 -9.48191e-17 1.93498e-13 0 885 419 0.0231436 -0.00494432 -1.62117 1.22567e-06 0.000300142 
0 0 0 -8.85504e-17 -5.48494e-18 -3.37904e-13 0 885 946 -0.0220178 -0.00414902 -1.62211 1.22603e-06 0.000300258 
0 0 0 2.93408e-15 -1.9775e-16 -6.48365e-12 0 885 51 -0.000388248 0.0215895 -1.62101 1.22561e-06 0.000300122 
0 0 0 -2.93344e-15 2.55173e-16 -6.48354e-12 0 885 2776 0.000345862 -0.0192226 -1.61903 1.22484e-06 0.000299878 
0 0 0 1.66496e-15 1.03284e-16 -4.72096e-12 0 885 637 0.0549338 0.136904 -1.60609 1.2198e-06 0.000298278 