ITEM: TIMESTEP
11950000
ITEM: NUMBER OF ENTRIES
359
ITEM: BOX BOUNDS ff ff ff
-0.01 0.45
-0.15 0.15
-0.08 0.1
ITEM: ENTRIES c_pwc[1] c_pwc[2] c_pwc[3] 
0 934 230 
0 942 1360 
0 850 41 
0 850 480 
0 885 41 
0 885 480 
0 908 1472 
0 854 1053 
0 854 1371 
0 894 1039 
0 894 1385 
0 894 568 
0 894 1122 
0 894 760 
0 894 1153 
0 894 534 
0 852 707 
0 855 59 
0 855 222 
0 931 1467 
1 2706 1130 
1 2698 752 
1 2717 752 
1 2725 752 
1 2703 752 
1 2724 752 
1 2723 752 
0 922 816 
1 2726 1377 
1 2724 1377 
1 134 1377 
1 136 1377 
1 120 1377 
1 123 1377 
1 2650 1377 
1 125 1377 
1 2649 1377 
1 126 1377 
1 2647 1377 
1 2644 1377 
1 2672 1377 
1 2673 1377 
1 2674 1377 
1 2707 1377 
1 2721 1377 
1 2722 1377 
1 2702 1377 
1 2703 1377 
1 529 417 
1 530 417 
1 1842 417 
1 1827 417 
1 1831 417 
1 1830 417 
1 1828 417 
1 1861 417 
1 1873 417 
1 1874 417 
1 1883 417 
1 1890 417 
1 1889 417 
1 526 417 
1 541 417 
1 527 417 
1 525 417 
1 1868 417 
1 1870 417 
1 1871 417 
1 1869 417 
1 1892 417 
1 1893 417 
1 1885 417 
0 885 270 
0 885 969 
0 885 48 
0 885 127 
0 885 52 
0 885 908 
0 885 276 
0 885 6 
0 885 79 
0 885 351 
0 885 45 
0 885 393 
0 885 39 
0 850 270 
0 850 969 
0 850 48 
0 850 127 
0 850 52 
0 850 908 
0 850 276 
0 850 6 
0 850 79 
0 850 351 
0 850 45 
0 851 393 
0 851 39 
0 853 131 
0 884 788 
0 884 218 
0 850 788 
0 852 871 
0 894 2 
0 894 630 
0 894 209 
0 894 278 
0 894 498 
0 894 863 
0 894 1099 
0 894 314 
0 895 794 
0 895 1342 
0 895 906 
0 895 618 
0 895 1049 
0 895 671 
0 895 114 
0 927 1198 
1 499 146 
1 480 146 
1 481 146 
1 497 146 
1 1854 146 
0 961 1029 
0 961 40 
0 959 1285 
0 753 1029 
0 753 40 
0 886 15 
0 885 15 
0 850 15 
0 415 547 
0 886 108 
0 891 264 
0 891 185 
0 887 1409 
0 892 143 
0 888 140 
0 888 746 
0 888 189 
0 888 318 
0 888 321 
0 375 1457 
0 375 915 
0 391 1422 
0 369 540 
0 437 840 
0 433 754 
0 433 1453 
0 407 401 
0 427 334 
0 421 132 
0 417 850 
0 417 1241 
0 385 1114 
0 383 431 
0 379 1043 
0 375 521 
0 392 602 
0 390 494 
0 390 958 
0 388 124 
0 393 1203 
0 387 28 
0 370 587 
0 371 650 
0 402 513 
0 402 424 
0 398 106 
0 434 810 
0 432 307 
0 432 528 
0 407 1450 
0 426 1061 
0 425 1402 
0 423 1491 
0 423 1325 
0 416 349 
0 415 565 
0 533 190 
0 527 822 
0 382 1052 
0 380 386 
0 380 198 
0 376 822 
0 390 628 
0 523 409 
0 519 600 
0 368 66 
0 553 1112 
0 402 148 
0 436 341 
0 583 1194 
0 561 1087 
0 478 834 
0 408 873 
0 404 834 
0 404 527 
0 581 620 
0 577 312 
0 424 1425 
0 565 1257 
0 416 1167 
0 416 122 
0 414 1128 
0 537 1095 
0 537 420 
0 531 943 
0 529 976 
0 545 38 
0 546 599 
0 544 1165 
0 523 232 
0 524 464 
0 553 1454 
0 551 430 
0 547 169 
0 547 1079 
0 587 733 
0 585 284 
0 590 1171 
0 584 1151 
0 583 1151 
0 561 665 
0 561 129 
0 559 235 
0 557 977 
0 558 65 
0 581 1309 
0 579 1288 
0 575 134 
0 573 1209 
0 569 1 
0 569 853 
0 567 35 
0 563 421 
0 534 90 
0 527 880 
0 546 280 
0 546 1102 
0 544 25 
0 544 22 
0 544 946 
0 524 186 
0 524 1037 
0 525 33 
0 519 664 
0 554 1179 
0 548 36 
0 547 549 
0 590 34 
0 590 46 
0 586 686 
0 587 1397 
0 562 405 
0 556 1391 
0 559 611 
0 582 608 
0 572 670 
0 573 109 
0 570 875 
0 568 994 
0 568 1350 
0 564 1177 
0 565 1217 
0 1063 982 
0 1059 876 
0 1059 795 
0 1057 656 
0 1055 485 
0 536 50 
1 2567 502 
0 1049 848 
0 1045 158 
0 1044 346 
0 1044 115 
0 520 939 
0 1079 770 
0 1077 659 
0 554 234 
0 1115 1190 
0 1113 614 
0 1111 95 
0 1043 246 
0 1085 205 
0 1095 837 
0 570 1159 
0 566 1145 
0 1061 120 
0 1055 87 
0 1054 617 
0 1070 171 
0 1067 1069 
0 1067 1157 
0 1066 80 
0 1065 191 
0 1049 847 
0 1046 605 
0 1045 885 
0 1076 217 
0 1116 215 
0 1115 174 
0 1114 408 
0 1113 177 
0 1111 858 
0 1082 67 
0 1081 817 
0 1091 689 
0 1097 212 
0 1064 804 
0 1060 379 
0 1297 147 
0 1072 1277 
0 1070 282 
0 1066 921 
0 1065 667 
0 1270 94 
0 1046 37 
0 1052 97 
0 1080 649 
0 1078 19 
0 1076 893 
0 1076 697 
0 1335 1054 
0 1086 62 
0 1084 812 
0 1084 75 
0 1082 646 
0 1325 302 
0 1104 1067 
0 1100 163 
0 1096 219 
0 1094 366 
0 1092 98 
0 1287 119 
0 1293 277 
0 1291 725 
0 1291 556 
0 1305 11 
0 1305 259 
0 1302 241 
0 1301 371 
0 1301 478 
0 1299 335 
0 1338 315 
0 1313 187 
0 1309 687 
0 1323 774 
0 1323 269 
0 1319 838 
0 74 864 
0 153 101 
0 1296 637 
0 1300 530 
0 1332 444 
0 133 23 
1 1599 23 
0 92 372 
