ITEM: TIMESTEP
12400000
ITEM: NUMBER OF ENTRIES
380
ITEM: BOX BOUNDS ff ff ff
-0.01 0.45
-0.15 0.15
-0.08 0.1
ITEM: ENTRIES c_pwc[1] c_pwc[2] c_pwc[3] 
0 850 41 
0 850 480 
0 885 41 
0 885 480 
0 855 339 
0 895 883 
0 894 539 
0 852 983 
0 894 1385 
0 894 1289 
0 894 5 
0 894 496 
0 894 929 
0 894 1100 
0 894 123 
0 894 1046 
0 894 1175 
0 894 658 
0 894 707 
0 855 970 
0 855 1417 
0 855 947 
0 855 1310 
0 855 991 
0 855 1103 
0 855 1356 
0 855 988 
0 855 308 
0 855 1236 
0 855 625 
0 854 1428 
0 854 1204 
0 924 28 
1 1861 417 
1 1874 417 
1 1873 417 
1 529 417 
1 530 417 
1 1883 417 
1 1889 417 
1 1890 417 
1 1842 417 
1 1831 417 
1 1828 417 
1 1827 417 
1 1830 417 
1 526 417 
1 527 417 
1 541 417 
1 525 417 
1 1869 417 
1 1870 417 
1 1871 417 
1 1868 417 
1 1892 417 
1 1893 417 
1 1885 417 
0 885 270 
0 885 969 
0 885 48 
0 885 127 
0 885 52 
0 885 908 
0 885 276 
0 885 6 
0 885 79 
0 885 351 
0 885 45 
0 885 393 
0 885 39 
0 850 270 
0 850 969 
0 850 48 
0 850 127 
0 850 52 
0 850 908 
0 850 276 
0 850 6 
0 850 79 
0 850 351 
0 850 45 
0 851 393 
0 851 39 
1 2691 347 
1 2709 347 
1 2707 1377 
1 2706 1405 
1 134 1377 
1 136 1377 
1 120 1377 
1 123 1377 
1 2650 1377 
1 2722 1377 
1 2721 1377 
1 125 1377 
1 2649 1377 
1 126 1377 
1 2647 1377 
1 2644 1377 
1 2672 1377 
1 2684 752 
1 2673 1377 
1 2674 1377 
1 2698 752 
1 2698 735 
1 2717 752 
1 2703 1377 
1 2702 1377 
1 2724 1377 
1 2726 1377 
0 895 811 
0 853 912 
0 853 179 
0 884 788 
0 885 1191 
0 850 788 
0 894 882 
0 894 1317 
0 894 803 
0 894 1224 
0 894 1340 
0 894 60 
0 894 844 
0 894 72 
0 894 541 
0 852 352 
0 895 326 
0 895 801 
0 895 73 
0 895 671 
0 935 1112 
0 939 1315 
1 481 146 
1 480 146 
1 499 146 
1 497 146 
1 1854 146 
0 952 1548 
0 961 1029 
0 961 40 
0 961 57 
0 753 1029 
0 753 40 
0 886 15 
0 885 15 
0 850 15 
0 887 688 
0 893 554 
0 892 1170 
0 895 397 
0 888 790 
0 888 1040 
0 888 1104 
0 888 1057 
0 888 1406 
0 888 1437 
0 385 907 
0 375 585 
0 387 1192 
0 367 975 
0 401 506 
0 409 1503 
0 407 1526 
0 407 1082 
0 405 537 
0 429 74 
0 425 1240 
0 419 1231 
0 415 1077 
0 415 631 
0 377 1452 
0 390 628 
0 391 1045 
0 389 246 
0 370 810 
0 370 1308 
0 364 1515 
0 373 1543 
0 396 1007 
0 397 420 
0 439 1525 
0 433 1408 
0 409 424 
0 424 791 
0 424 1091 
0 421 386 
0 415 17 
0 413 1216 
0 537 316 
0 527 610 
0 527 106 
0 380 1480 
0 380 1439 
0 380 341 
0 376 464 
0 376 611 
0 376 1391 
0 375 464 
0 543 1288 
0 541 148 
0 539 609 
0 521 885 
0 372 1357 
0 368 412 
0 549 1167 
0 547 149 
0 402 349 
0 400 1079 
0 436 721 
0 478 834 
0 404 834 
0 579 1457 
0 577 1052 
0 428 1491 
0 424 1501 
0 422 435 
0 420 1454 
0 420 210 
1 2546 1061 
1 2547 1061 
0 416 1318 
0 414 1194 
0 531 1429 
0 527 129 
0 541 1203 
0 541 235 
0 541 422 
0 525 1017 
0 525 36 
0 523 35 
0 523 187 
0 521 65 
0 551 1151 
0 551 771 
0 547 251 
0 554 346 
0 561 71 
0 561 852 
0 557 521 
0 581 168 
0 577 487 
0 577 180 
0 575 221 
0 569 1407 
0 567 1043 
0 567 733 
0 565 236 
0 565 1365 
0 563 152 
0 563 1447 
0 538 1246 
0 538 1145 
0 534 694 
0 534 950 
0 528 686 
0 528 124 
0 535 683 
0 533 24 
0 544 3 
0 540 876 
0 545 848 
0 524 670 
0 522 518 
0 552 46 
0 548 665 
0 553 837 
0 551 46 
0 547 1269 
0 590 1087 
0 590 608 
0 590 413 
0 590 23 
0 588 38 
0 588 853 
0 586 873 
0 587 1037 
0 560 958 
0 560 1168 
0 580 976 
0 580 443 
0 578 1069 
0 576 173 
0 576 25 
0 576 47 
0 572 186 
0 570 1085 
0 571 1309 
0 1063 388 
0 1061 864 
0 1059 67 
0 1059 1296 
0 1053 1 
0 1053 430 
0 1071 706 
0 1069 11 
0 1067 367 
0 1065 1420 
0 1047 737 
0 1044 238 
0 516 153 
0 1079 646 
0 1113 1350 
0 1109 81 
0 1087 418 
0 1083 1419 
0 1083 255 
0 1081 155 
0 562 215 
0 1105 1095 
0 1103 722 
0 1101 205 
0 1101 223 
0 1101 614 
0 1099 461 
0 570 330 
0 568 893 
0 1062 295 
0 1053 95 
0 1052 220 
0 1071 248 
0 1069 1012 
0 1067 697 
0 1065 1277 
0 1065 656 
0 1051 94 
0 1049 994 
0 1049 1067 
0 1045 282 
0 1078 259 
0 1074 932 
0 1114 921 
0 1043 50 
0 1086 19 
0 1086 532 
0 1082 1035 
0 1082 982 
0 1081 302 
0 1081 785 
0 1109 281 
0 1103 478 
0 1103 90 
0 1102 913 
0 1096 1307 
0 1093 98 
0 1090 366 
0 1289 404 
0 1279 269 
0 1279 667 
0 1056 556 
0 1072 925 
0 1070 234 
0 1068 171 
0 1066 374 
0 1271 812 
0 1050 1010 
0 1050 166 
0 1048 115 
0 1042 120 
0 1078 227 
0 1078 80 
0 1112 86 
0 1110 315 
0 1313 201 
0 1311 398 
0 1102 485 
0 1287 429 
0 1285 454 
0 1279 335 
0 1293 687 
0 1301 530 
0 1341 371 
0 1337 372 
0 1307 445 
0 1331 1109 
0 1327 637 
0 1321 62 
0 1288 774 
0 1268 838 
0 146 37 
0 135 444 
