ITEM: TIMESTEP
5250000
ITEM: NUMBER OF ENTRIES
1762
ITEM: BOX BOUNDS ff ff ff
-0.01 0.45
-0.15 0.15
-0.08 0.1
ITEM: ENTRIES c_pwc[1] c_pwc[2] c_pwc[3] c_pwc[4] c_pwc[5] c_pwc[6] c_pwc[7] c_pwc[8] c_pwc[9] c_pwc[10] c_pwc[11] c_pwc[12] c_pwc[13] c_pwc[14] 
0 0 0 0.000258796 -0.341629 0.0956222 0 790 5687 3.83635e-11 7.16657e-06 7.83537e-06 1.7358e-10 3.45333e-08 
0 0 0 0.0473325 -0.0595582 0.153737 0 780 9639 7.39585e-19 9.53905e-06 2.53098e-06 5.00925e-10 9.96621e-08 
0 0 0 0.429422 -0.123529 -0.154241 0 778 10139 -0.00186926 0.0122859 -0.00322653 4.53062e-08 9.06473e-06 
0 0 0 -0.671455 0.0655856 -0.35093 0 778 9160 0.0020091 -0.000152725 0.00083423 2.31822e-10 4.61208e-08 
0 0 0 0.461414 -0.0455932 0.243902 0 778 2799 -2.4879e-06 1.09972e-05 -2.55506e-06 5.18851e-10 1.03229e-07 
0 0 0 0.0459434 0.00375347 -0.0200793 0 778 7390 -6.24237e-15 1.02659e-05 1.35715e-06 5.18853e-10 1.03229e-07 
0 0 0 0.0100471 -8.39954e-10 -0.0212547 0 776 5540 -2.33895e-15 1.05196e-05 4.94777e-15 5.24824e-10 1.04417e-07 
0 0 0 -0.00626278 -0.000366333 -0.0462445 0 776 1200 0.000156145 9.76752e-06 0.00016614 4.1936e-10 8.34335e-08 
0 0 0 -0.00463611 -2.28398e-05 -0.00976908 0 776 1871 -5.47999e-08 1.05978e-05 -1.68738e-08 5.22488e-10 1.03952e-07 
0 0 0 -0.000770562 -0.00345858 0.0119054 0 776 206 9.46084e-05 6.14933e-05 -9.36848e-05 1.14969e-09 2.28757e-07 
0 0 0 0.00613745 3.24133e-08 0.0186553 0 776 1972 9.12675e-14 1.05178e-05 2.21345e-13 5.24775e-10 1.04407e-07 
0 0 0 -0.00270995 3.80316e-05 0.0156101 0 776 733 1.8757e-06 1.18339e-05 -5.61177e-06 5.75745e-10 1.14549e-07 
0 0 0 0.00422321 0.000165712 -0.0175291 0 776 414 -5.09973e-06 1.81185e-05 -7.48753e-06 7.86835e-10 1.56551e-07 
0 0 0 -0.0886807 0.0070693 -0.130187 0 776 7937 4.68103e-05 0.000164902 6.78746e-05 4.24916e-09 8.4579e-07 
0 0 0 -0.000729097 -3.41455e-05 0.0423021 0 776 317 5.2946e-05 9.86817e-06 -5.76476e-05 4.95461e-10 9.8575e-08 
0 0 0 0.0131996 -5.98672e-05 0.0333292 0 776 1705 -3.34862e-06 1.06261e-05 -4.12495e-06 5.15427e-10 1.02547e-07 
0 0 0 -0.276313 8.0627e-08 -0.0146268 0 776 3512 0.00105677 1.05183e-05 2.05359e-05 5.24799e-10 1.04412e-07 
0 0 0 -0.0271223 0.00148628 -0.0275297 0 776 1002 3.56758e-06 1.86955e-05 8.64021e-06 1.0607e-09 2.11047e-07 
0 0 0 -0.00995237 0.00092671 0.00664564 0 776 585 4.13801e-06 1.2066e-05 -4.39025e-06 7.70231e-10 1.53247e-07 
0 0 0 0.0101503 -1.12078e-06 0.0228116 0 776 1470 -2.45944e-05 1.04306e-05 -6.36444e-05 5.21618e-10 1.03779e-07 
0 0 0 -0.317658 -0.000108368 -0.194758 0 776 8128 5.81338e-06 1.47496e-05 4.53785e-06 6.35281e-10 1.26395e-07 
0 0 0 -0.0592819 3.55569e-05 -0.0023488 0 776 4095 -1.56505e-06 1.08501e-05 -2.41198e-08 5.43416e-10 1.08116e-07 
0 0 0 0.0184332 -2.91228e-05 0.0471681 0 776 1920 -7.38678e-09 1.09836e-05 -4.45141e-09 5.33889e-10 1.06221e-07 
0 0 0 0.0295149 1.78637e-07 -0.0166146 0 776 7431 1.48395e-12 1.05175e-05 -8.3535e-13 5.24795e-10 1.04411e-07 
0 0 0 -0.105736 -3.65804e-05 0.0766552 0 776 7185 0.000285859 9.90697e-06 -0.000211894 4.96251e-10 9.87322e-08 
0 0 0 0.0178079 0.00204669 -0.0140603 0 776 3427 1.09032e-05 2.6243e-05 7.30027e-06 1.34346e-09 2.67318e-07 
0 0 0 -0.00618022 -2.0018e-12 0.0985014 0 776 5892 -8.32407e-08 1.05196e-05 1.5177e-06 5.24825e-10 1.04417e-07 
0 0 0 -0.0326313 -3.98982e-05 0.0589885 0 776 3630 -4.94461e-08 1.07014e-05 1.83231e-08 5.22246e-10 1.03904e-07 
0 0 0 -0.000588109 0.00171696 0.0238218 0 776 1887 -1.0837e-05 5.60595e-06 -6.71397e-05 7.45308e-10 1.48288e-07 
0 0 0 -0.00447358 2.18586e-12 0.0415935 0 776 5313 -5.98997e-19 1.05196e-05 4.79166e-18 5.24825e-10 1.04417e-07 
0 0 0 0.0638782 1.93331e-06 0.0609467 0 776 5191 -3.19272e-05 1.04741e-05 -0.000303637 5.2373e-10 1.042e-07 
0 0 0 0.0288327 -0.0881782 0.0456664 0 776 4164 -2.31288e-05 0.00193658 -0.000968013 9.12908e-09 1.81824e-06 
0 0 0 0.000471591 0.000246105 -0.00440714 0 776 209 7.75236e-06 6.12413e-06 5.72793e-05 4.24147e-10 8.43857e-08 
0 0 0 -0.00982965 3.17466e-10 0.000242998 0 776 7844 -9.00417e-16 1.05195e-05 2.22623e-17 5.24824e-10 1.04417e-07 
0 0 0 0.00395167 4.10786e-12 -0.00290709 0 776 4298 -5.99011e-19 1.05196e-05 2.66534e-19 5.24825e-10 1.04417e-07 
0 0 0 0.0142934 1.66142e-10 0.00160757 0 776 2966 6.74843e-16 1.05196e-05 7.59019e-17 5.24825e-10 1.04417e-07 
0 0 0 0.00949107 2.586e-05 0.0194512 0 776 634 -6.86745e-06 1.37746e-05 5.22505e-07 6.335e-10 1.26041e-07 
0 0 0 -0.00567202 1.00127e-10 0.0152587 0 776 7843 -1.51877e-16 1.05196e-05 4.08753e-16 5.24825e-10 1.04417e-07 
0 0 0 0.0257465 -2.49762e-08 0.0121486 0 776 604 -1.85914e-13 1.05206e-05 -8.7763e-14 5.24855e-10 1.04423e-07 
0 0 0 0.0155349 1.61514e-10 0.0130477 0 776 1039 6.94267e-16 1.05196e-05 5.83336e-16 5.24825e-10 1.04417e-07 
0 0 0 -0.00454112 1.09786e-05 0.0378664 0 776 3509 -1.37599e-11 1.04687e-05 1.15989e-10 5.25508e-10 1.04553e-07 
0 0 0 0.0143771 -7.06186e-12 0.0576138 0 776 7053 1.38246e-10 1.05196e-05 5.8934e-10 5.24825e-10 1.04417e-07 
0 0 0 0.00744277 -1.11176e-11 0.0168657 0 776 316 -2.32592e-17 1.05196e-05 -5.26766e-17 5.24825e-10 1.04417e-07 
0 0 0 0.0102633 4.60491e-12 -0.0194036 0 776 398 -1.04236e-18 1.05196e-05 2.4171e-18 5.24825e-10 1.04417e-07 
0 0 0 0.0240556 1.86634e-08 -0.0129115 0 776 1937 1.30676e-13 1.05186e-05 -7.01391e-14 5.24798e-10 1.04412e-07 
0 0 0 0.0166442 -2.69987e-06 0.0130951 0 776 6920 -2.01136e-10 1.1005e-05 3.44758e-11 5.40268e-10 1.0749e-07 
0 0 0 -0.0719052 -0.0115278 0.100199 0 779 1225 -1.52527e-05 -3.002e-05 -5.43429e-06 1.16181e-10 2.31138e-08 
0 0 0 0.00188276 0.00525421 0.0301272 0 775 531 1.48444e-05 3.36495e-05 -1.67922e-05 1.12996e-09 2.24829e-07 
0 0 0 0.0467629 0.02356 0.126035 0 775 2951 -5.30722e-05 -3.85862e-05 -0.000262692 5.1885e-10 1.03229e-07 
0 0 0 0.0340242 0.0195234 0.102647 0 775 570 -2.19799e-05 2.82678e-06 -2.35343e-05 4.79997e-10 9.5498e-08 
0 0 0 0.0117645 -0.000382436 -0.00228343 0 775 510 2.17387e-10 9.68436e-06 -1.24643e-06 5.08425e-10 1.01154e-07 
0 0 0 0.00413977 0.00429299 0.0229655 0 775 9120 -7.92492e-18 1.02659e-05 -1.35713e-06 5.18851e-10 1.03229e-07 
0 0 0 -0.00158869 0.00276902 0.0185143 0 839 5113 1.25399e-05 -1.05981e-05 -7.015e-06 2.6672e-10 5.30641e-08 
0 0 0 0.00200206 0.0026749 0.0151446 0 774 2641 -5.86499e-07 1.25486e-05 -9.48132e-06 6.05677e-10 1.20505e-07 
0 0 0 -0.00158869 0.00276902 0.0185143 0 774 5113 1.21902e-05 2.58597e-05 -1.13006e-05 8.70505e-10 1.732e-07 
0 0 0 -0.00462224 0.00257831 0.0138983 0 774 4325 1.01391e-06 1.48151e-05 -2.18231e-06 6.5984e-10 1.31282e-07 
0 0 0 -0.00643687 0.00616309 0.0327703 0 774 3869 5.14015e-07 1.34211e-05 -1.01502e-05 6.74036e-10 1.34106e-07 
0 0 0 0.0233169 0.000429442 0.00487196 0 774 6076 -1.5507e-05 1.88656e-05 -1.93874e-05 7.70618e-10 1.53324e-07 
0 0 0 0.00893307 0.00381782 0.0204518 0 774 2116 -1.0982e-06 9.38874e-06 -6.9842e-06 5.23456e-10 1.04145e-07 
0 0 0 0.0187373 0.007061 0.0377698 0 774 3087 2.0129e-08 1.02491e-05 -1.35986e-06 5.18443e-10 1.03148e-07 
0 0 0 -0.0364895 0.0138149 0.0739027 0 774 8267 -1.01633e-05 2.2047e-06 -4.44775e-05 5.18858e-10 1.0323e-07 
0 0 0 -0.021385 0.0144969 0.0775754 0 774 5900 9.43109e-05 -6.57979e-05 -0.000405191 4.9885e-10 9.92493e-08 
0 0 0 0.0289699 0.0159513 0.0837779 0 774 8439 -2.03578e-07 1.26515e-05 -9.58351e-06 6.99695e-10 1.39212e-07 
0 0 0 0.252307 0.0420509 0.224952 0 774 6135 -0.00100071 -0.000171223 -0.000972238 5.18851e-10 1.03229e-07 
0 0 0 0.219458 16.1461 3.64935 0 950 3546 2.48525e-05 -0.00053644 0.01245 1.59566e-08 3.18078e-06 
0 0 0 -0.0196026 -0.00914809 -0.0489379 0 774 2858 -1.62007e-18 1.02659e-05 -1.35713e-06 5.18851e-10 1.03229e-07 
0 0 0 0.0737807 0.0114481 0.0612429 0 774 9818 -3.29364e-06 9.43347e-06 -5.81889e-06 5.1887e-10 1.03233e-07 
0 0 0 -0.115725 -0.00299016 -0.015996 0 774 4532 4.56684e-18 1.02659e-05 -1.35713e-06 5.18851e-10 1.03229e-07 
0 0 0 -0.155084 -0.00402577 -0.021536 0 774 3877 1.03224e-17 1.02659e-05 -1.35713e-06 5.18851e-10 1.03229e-07 
0 0 0 -0.131144 0.0108666 0.0280499 0 772 4050 3.13593e-18 9.53905e-06 -2.53098e-06 5.00925e-10 9.96621e-08 
0 0 0 -0.0136235 0.0157211 -0.00553507 0 884 1210 3.14904e-05 5.39492e-05 0.000124935 1.94321e-09 3.86683e-07 
0 0 0 -2.62186e-262 -5.63989e-20 3.53498e-12 0 884 5230 4.87214e-263 5.25978e-06 -1.62002 1.22522e-06 0.0003 
0 0 0 -0.106867 0.0159888 -0.00679503 0 884 4734 0.000322281 -0.000260633 1.94879e-05 1.9496e-11 3.87861e-09 
0 0 0 -0.0569445 0.032543 -0.00622253 0 884 916 -5.52258e-05 -0.000365355 0.00040049 5.20274e-09 1.03572e-06 
0 0 0 -2.27114e-211 -4.72504e-20 -4.72345e-12 0 884 3064 3.59218e-212 5.25978e-06 -1.62002 1.22522e-06 0.0003 
0 0 0 -2.66838e-302 8.504e-20 -5.89793e-12 0 884 871 4.34452e-307 5.25978e-06 -1.62002 1.22522e-06 0.0003 
0 0 0 -2.48709e-302 -7.55635e-20 -1.18142e-12 0 884 1962 3.25383e-307 5.25978e-06 -1.62002 1.22522e-06 0.0003 
0 0 0 1.99463e-17 -1.50238e-16 5.87447e-13 0 884 2565 -0.00160754 -0.00890825 -1.62198 1.22598e-06 0.000300242 
0 0 0 0.121701 -0.0798409 0.00519433 0 884 2189 -8.87759e-06 1.45304e-05 3.40556e-05 2.05644e-09 4.0922e-07 
0 0 0 -3.36787e-52 -8.48423e-20 3.53498e-12 0 884 7394 7.15099e-54 5.25978e-06 -1.62002 1.22522e-06 0.0003 
0 0 0 0.0247459 -0.0406077 0.00272997 0 884 7784 -0.000186955 -0.000360498 0.00161498 1.52746e-08 3.04458e-06 
0 0 0 2.94361e-302 2.84571e-20 1.18146e-12 0 884 3089 4.65859e-307 5.25978e-06 -1.62002 1.22522e-06 0.0003 
0 0 0 0.0810747 -0.0287244 -0.00384055 0 884 254 -9.58639e-05 -0.000206163 0.000850575 9.4034e-09 1.87294e-06 
0 0 0 0.0588292 -0.0219365 -0.00819293 0 884 7397 -5.25657e-05 2.20644e-05 0.000155288 2.03685e-09 4.0532e-07 
0 0 0 1.71956e-302 5.64674e-20 -5.89792e-12 0 884 7839 -1.55993e-307 5.25978e-06 -1.62002 1.22522e-06 0.0003 
0 0 0 0.261676 -0.385847 0.0467268 0 884 7917 -0.000167511 4.06528e-05 -0.000344746 1.51388e-09 3.01234e-07 
0 0 0 0.0455972 0.0100535 -0.00403907 0 884 5699 -8.10638e-05 -0.000163522 0.000365025 5.09663e-09 1.01459e-06 
0 0 0 0.0107305 -0.0958126 -0.00548257 0 884 880 -0.000188508 0.000264179 2.02129e-05 5.07621e-11 1.00989e-08 
0 0 0 -5.50432e-195 -2.83056e-20 -4.72345e-12 0 884 5274 8.66899e-196 5.25978e-06 -1.62002 1.22522e-06 0.0003 
0 0 0 -4.20933e-16 7.97444e-17 -2.3616e-12 0 884 2130 0.0641067 0.0035466 -1.62445 1.22694e-06 0.000300546 
0 0 0 2.30489e-16 -7.97004e-17 -2.36169e-12 0 884 4708 -0.0539888 -0.00297715 -1.6156 1.2235e-06 0.000299454 
0 0 0 -9.08893e-14 5.67515e-20 2.0636e-302 0 863 2723 -1.62002 5.25978e-06 -2.53474e-308 1.22522e-06 0.0003 
0 0 0 1.63037e-14 4.72763e-20 -1.59719e-302 0 862 444 -1.62002 5.25978e-06 -8.44422e-307 1.22522e-06 0.0003 
0 0 0 9.08673e-14 5.64857e-20 3.32656e-302 0 862 927 -1.62002 5.25978e-06 -7.79707e-307 1.22522e-06 0.0003 
0 0 0 0.0273946 0.0587028 0.00241776 0 854 7535 0.000741152 0.000169666 -4.39821e-05 1.18416e-08 2.35929e-06 
0 0 0 -0.0066074 -0.0239063 0.0444827 0 854 3120 0.000881395 6.11943e-05 -0.000436428 9.35537e-09 1.86336e-06 
0 0 0 -0.00350604 -0.011286 0.116291 0 854 4765 8.69906e-05 -7.57721e-06 -0.00055299 1.61455e-09 3.2127e-07 
0 0 0 -0.013436 -0.016139 0.0294794 0 854 3871 0.000194094 -0.000254144 -3.24182e-05 1.9137e-09 3.80809e-07 
0 0 0 -0.00668155 -0.0555824 0.0301752 0 854 9205 0.00224759 2.72966e-05 -0.000217793 1.81256e-08 3.61414e-06 
0 0 0 -0.00158564 -0.00884622 0.109227 0 854 5939 0.000326537 -1.23826e-05 -0.000162798 4.98732e-09 9.92812e-07 
0 0 0 0.0101317 -0.0471094 0.101511 0 854 7537 4.88805e-05 -6.23e-06 -2.45802e-06 3.10906e-09 6.18767e-07 
0 0 0 0.00311759 -0.0413533 0.123811 0 854 6183 0.000111524 1.22612e-05 -2.56819e-05 2.98646e-09 5.94359e-07 
0 0 0 0.0135483 0.0125814 0.116323 0 854 6992 0.00217157 2.96758e-05 -0.000348348 1.94913e-08 3.88711e-06 
0 0 0 -0.00076027 -0.0554194 0.0393411 0 854 1211 2.43899e-05 3.69044e-07 -1.21894e-05 7.76522e-10 1.54499e-07 
0 0 0 -2.62186e-262 -5.63989e-20 3.53498e-12 0 850 5230 4.87214e-263 5.25978e-06 1.62002 1.22522e-06 0.0003 
0 0 0 -2.27114e-211 -4.72504e-20 -4.72345e-12 0 850 3064 3.59218e-212 5.25978e-06 1.62002 1.22522e-06 0.0003 
0 0 0 -3.4489e-302 -8.48704e-20 -4.72351e-12 0 850 478 8.72475e-307 5.25978e-06 1.62002 1.22522e-06 0.0003 
0 0 0 -2.66838e-302 8.504e-20 -5.89793e-12 0 850 871 -3.42461e-307 5.25978e-06 1.62002 1.22522e-06 0.0003 
0 0 0 -2.48709e-302 -7.55635e-20 -1.18142e-12 0 850 1962 -4.17453e-307 5.25978e-06 1.62002 1.22522e-06 0.0003 
0 0 0 -3.92129e-302 -8.49394e-20 -3.53507e-12 0 850 283 5.40374e-307 5.25978e-06 1.62002 1.22522e-06 0.0003 
0 0 0 -2.00364e-17 1.44824e-16 5.87063e-13 0 850 6540 0.00160754 0.00891877 1.62198 1.22598e-06 0.000300242 
0 0 0 1.99463e-17 -1.50238e-16 5.87447e-13 0 850 2565 -0.000765481 -0.00423918 1.61806 1.22446e-06 0.000299758 
0 0 0 5.77604e-18 -9.99031e-18 3.53734e-12 0 850 5520 0.00148872 -0.0035809 1.61989 1.22517e-06 0.000299985 
0 0 0 -3.36787e-52 -8.48423e-20 3.53498e-12 0 850 7394 7.15099e-54 5.25978e-06 1.62002 1.22522e-06 0.0003 
0 0 0 1.06206e-306 8.45333e-20 -2.31108e-15 0 850 2321 -4.92836e-307 5.25978e-06 1.62002 1.22522e-06 0.0003 
0 0 0 -2.3241e-18 9.72979e-18 3.53737e-12 0 850 7581 -0.00160583 0.00387353 1.62015 1.22527e-06 0.000300015 
0 0 0 2.94361e-302 2.84571e-20 1.18146e-12 0 850 3089 -5.57568e-307 5.25978e-06 1.62002 1.22522e-06 0.0003 
0 0 0 4.49459e-96 7.53057e-20 4.72348e-12 0 850 5323 -2.95641e-97 5.25978e-06 1.62002 1.22522e-06 0.0003 
0 0 0 1.71956e-302 5.64674e-20 -5.89792e-12 0 850 7839 6.12442e-308 5.25978e-06 1.62002 1.22522e-06 0.0003 
0 0 0 1.21248e-153 9.2445e-21 3.53501e-12 0 850 9691 -1.00445e-154 5.25978e-06 1.62002 1.22522e-06 0.0003 
0 0 0 1.5479e-302 8.48741e-20 1.18145e-12 0 850 1583 -8.19996e-307 5.25978e-06 1.62002 1.22522e-06 0.0003 
0 0 0 3.74738e-302 -9.46454e-21 -3.53501e-12 0 850 8195 -7.27912e-307 5.25978e-06 1.62002 1.22522e-06 0.0003 
0 0 0 -5.50432e-195 -2.83056e-20 -4.72345e-12 0 850 5274 8.66899e-196 5.25978e-06 1.62002 1.22522e-06 0.0003 
0 0 0 -4.20933e-16 7.97444e-17 -2.3616e-12 0 850 2130 0.0539888 0.00298767 1.6156 1.2235e-06 0.000299454 
0 0 0 2.30489e-16 -7.97004e-17 -2.36169e-12 0 850 4708 -0.0641067 -0.00353608 1.62445 1.22694e-06 0.000300546 
0 0 0 1.63037e-14 4.72763e-20 -1.59719e-302 0 822 444 1.62002 5.25978e-06 7.51136e-307 1.22522e-06 0.0003 
0 0 0 9.08673e-14 5.64857e-20 3.32656e-302 0 821 927 1.62002 5.25978e-06 6.86224e-307 1.22522e-06 0.0003 
0 0 0 -9.08893e-14 5.67515e-20 2.0636e-302 0 821 2723 1.62002 5.25978e-06 1.19863e-307 1.22522e-06 0.0003 
0 0 0 -3.4489e-302 -8.48704e-20 -4.72351e-12 0 885 478 -9.66798e-307 5.25978e-06 -1.62002 1.22522e-06 0.0003 
0 0 0 -3.92129e-302 -8.49394e-20 -3.53507e-12 0 885 283 -4.48336e-307 5.25978e-06 -1.62002 1.22522e-06 0.0003 
0 0 0 -2.00364e-17 1.44824e-16 5.87063e-13 0 885 6540 0.000765481 0.0042497 -1.61806 1.22446e-06 0.000299758 
0 0 0 5.77604e-18 -9.99031e-18 3.53734e-12 0 885 5520 0.00160583 -0.00386301 -1.62015 1.22527e-06 0.000300015 
0 0 0 1.06206e-306 8.45333e-20 -2.31108e-15 0 885 2321 3.97424e-307 5.25978e-06 -1.62002 1.22522e-06 0.0003 
0 0 0 -2.3241e-18 9.72979e-18 3.53737e-12 0 885 7581 -0.00148872 0.00359142 -1.61989 1.22517e-06 0.000299985 
0 0 0 4.49459e-96 7.53057e-20 4.72348e-12 0 885 5323 -2.95641e-97 5.25978e-06 -1.62002 1.22522e-06 0.0003 
0 0 0 1.21248e-153 9.2445e-21 3.53501e-12 0 885 9691 -1.00445e-154 5.25978e-06 -1.62002 1.22522e-06 0.0003 
0 0 0 1.5479e-302 8.48741e-20 1.18145e-12 0 885 1583 9.14386e-307 5.25978e-06 -1.62002 1.22522e-06 0.0003 
0 0 0 3.74738e-302 -9.46454e-21 -3.53501e-12 0 885 8195 8.21461e-307 5.25978e-06 -1.62002 1.22522e-06 0.0003 
0 0 0 -0.0714381 -0.00422658 0.0788806 0 853 8345 0.000111171 -0.000224516 1.55873e-05 4.58463e-09 9.12603e-07 
0 0 0 0.0164962 0.0206323 0.000936561 0 853 6151 -0.000150285 -0.00020021 0.000227294 1.18407e-09 2.35599e-07 
0 0 0 -0.192795 -0.0762871 -0.0731454 0 853 6977 -0.000111666 -0.00216871 0.00054417 2.49976e-08 4.98867e-06 
0 0 0 -0.052194 0.00922715 0.1646 0 853 8087 7.34979e-05 -0.000395783 -0.000183737 4.80157e-09 9.55813e-07 
0 0 0 -0.0340969 0.0224039 0.0244823 0 852 1886 0.000306438 -0.000319208 7.17669e-05 2.43563e-09 4.84699e-07 
0 0 0 0.0333875 -0.0193943 0.041975 0 852 5208 -2.27205e-05 4.745e-05 -6.83055e-06 3.06903e-09 6.10798e-07 
0 0 0 -0.0820624 -0.00330511 0.0795983 0 852 5090 2.46526e-05 -4.94162e-05 -1.65538e-06 2.02159e-09 4.02283e-07 
0 0 0 -0.177549 -0.0631085 -0.054165 0 852 2997 0.00215581 -0.00362191 0.00326382 3.08151e-08 6.15414e-06 
0 0 0 -0.123901 -0.0689494 0.192175 0 852 5254 0.000149691 -0.00256824 -0.00127537 2.6365e-08 5.26245e-06 
0 0 0 0.00662124 -0.136798 -0.00357348 0 894 6701 -1.28038e-05 8.26105e-05 -0.000167194 3.8034e-09 7.5702e-07 
0 0 0 -0.0144091 -0.198306 -0.00573214 0 894 737 5.69973e-06 -3.05808e-06 -6.86927e-05 2.7328e-09 5.43857e-07 
0 0 0 -0.0011485 -0.162357 0.00182129 0 894 2451 0.000102822 0.000235439 -1.87738e-05 4.20984e-10 8.37564e-08 
0 0 0 0.000288973 -0.150773 0.000934231 0 894 7449 -5.34522e-06 1.03412e-05 -2.32818e-05 7.14609e-10 1.4218e-07 
0 0 0 -0.000917869 -0.0905764 0.00308497 0 894 855 4.98091e-05 5.35133e-05 -0.000146214 2.60318e-09 5.18054e-07 
0 0 0 0.0164341 -0.150498 0.0037998 0 894 4520 2.68769e-06 1.19788e-05 -2.45533e-05 2.63418e-10 5.2407e-08 
0 0 0 -0.000328602 -0.150323 -0.017692 0 894 5434 -0.000114426 8.58974e-05 -0.000455787 8.50116e-09 1.69304e-06 
0 0 0 -0.00796963 -0.127786 -0.00862721 0 894 8467 4.55772e-06 1.44362e-05 3.02772e-05 1.2743e-09 2.53554e-07 
0 0 0 -0.0208636 -0.0608774 0.0169777 0 894 186 8.88223e-05 0.000160461 -0.000110058 3.98115e-10 7.92064e-08 
0 0 0 -0.00752506 -0.0138224 0.00301697 0 894 4429 0.000156663 -8.08036e-05 -0.000126675 2.32605e-09 4.62888e-07 
0 0 0 0.0111194 -0.136293 0.000539017 0 894 5968 -2.21579e-06 1.46918e-05 -2.9716e-05 9.50634e-10 1.89145e-07 
0 0 0 0.014182 -0.1788 -0.001451 0 894 6447 -1.06801e-05 1.88555e-05 -4.33403e-05 1.59625e-09 3.17627e-07 
0 0 0 -0.0106003 -0.116466 0.00139364 0 894 6563 -1.04391e-06 0.000148461 -1.96669e-05 5.27097e-10 1.04869e-07 
0 0 0 0.0142385 -0.111514 -0.000987876 0 894 8109 3.37418e-06 3.87945e-06 -1.0283e-05 7.30214e-10 1.45285e-07 
0 0 0 -0.00278028 -0.0985363 0.000414284 0 894 1477 0.000160858 0.000283605 -1.72287e-06 4.49961e-11 8.95173e-09 
0 0 0 -0.0229909 -0.074662 -0.00284238 0 894 2704 -1.86243e-05 7.90537e-05 -0.000229805 4.46693e-09 8.89162e-07 
0 0 0 0.0366516 -0.112758 0.000511991 0 894 4639 -1.05314e-05 2.86468e-05 -6.10425e-05 1.61187e-09 3.20736e-07 
0 0 0 0.00310908 -0.182491 -0.00146305 0 894 6431 2.77003e-05 6.36432e-05 -0.00013882 3.13572e-09 6.24074e-07 
0 0 0 0.0156505 -0.261347 0.00303301 0 894 9695 -1.3098e-05 6.68411e-05 -0.000136225 2.46573e-09 4.90691e-07 
0 0 0 0.018475 -0.148711 -0.00243404 0 894 288 -2.3981e-05 0.000169287 -0.000341954 5.63684e-09 1.1222e-06 
0 0 0 0.0433163 -0.219285 -0.000909023 0 894 6916 -4.39009e-07 1.06317e-05 -2.12815e-05 1.01406e-09 2.01766e-07 
0 0 0 -0.0061315 -0.238198 -0.000884634 0 894 8891 -3.4898e-05 0.000105722 -0.000222665 4.12917e-09 8.21895e-07 
0 0 0 0.0182378 -0.0641372 -0.0125693 0 894 9301 9.96662e-05 8.09011e-06 -0.000199988 5.38885e-09 1.0728e-06 
0 0 0 0.0207523 -0.285475 -0.00198992 0 894 1346 -0.000103228 0.000889503 -1.53156e-06 6.74233e-10 1.34146e-07 
0 0 0 0.0862307 -0.0309332 -0.0135737 0 894 5585 -0.000255272 0.000503015 -0.00144142 1.52145e-08 3.03257e-06 
0 0 0 0.00551974 -0.186883 0.000534241 0 894 6392 4.78482e-05 0.000422575 -1.20444e-05 4.61621e-10 9.18419e-08 
0 0 0 0.0354388 -0.168132 0.00348708 0 894 1925 4.00854e-05 3.18487e-05 -0.000102395 1.87733e-09 3.73569e-07 
0 0 0 0.0117718 -0.215382 -0.00396746 0 894 1824 0.000184274 0.000268812 -0.000651819 8.6409e-09 1.7209e-06 
0 0 0 0.027916 -0.201819 -0.00340504 0 894 5015 -0.000265674 0.00059072 8.56023e-06 6.62789e-10 1.31869e-07 
0 0 0 0.007519 -0.256663 0.00903789 0 894 8888 0.000232949 0.000124757 -0.000353058 4.37218e-09 8.70292e-07 
0 0 0 0.0352543 -0.131039 0.00698291 0 894 7216 -2.56703e-05 6.79291e-06 -5.31078e-05 4.69762e-10 9.34617e-08 
0 0 0 0.0880419 -0.135912 -0.00288873 0 894 7697 -2.18155e-05 2.19137e-05 -6.18426e-05 2.17309e-09 4.32439e-07 
0 0 0 0.0235793 -0.139703 0.0107966 0 894 4233 -5.21982e-05 0.000338971 -0.000781411 8.12759e-09 1.61857e-06 
0 0 0 -0.00879065 -0.0489121 0.0188968 0 894 6053 0.000478068 5.552e-05 -0.000962562 8.7253e-09 1.73773e-06 
0 0 0 0.0776138 -0.296142 -0.0162451 0 894 6362 8.25459e-06 2.13333e-05 4.57493e-05 2.52054e-09 5.01602e-07 
0 0 0 0.01493 -1.21281 -0.0769129 0 867 5180 0.00502945 0.00244485 -0.000588705 3.31098e-08 6.61432e-06 
0 0 0 7.23843e-14 8.43513e-20 2.26456e-302 0 866 887 -1.62002 5.25978e-06 3.81e-307 1.22522e-06 0.0003 
0 0 0 0.070963 0.138987 0.0160241 0 855 4390 0.000211458 -4.68733e-05 9.47708e-05 1.25512e-08 2.5009e-06 
0 0 0 -0.0676948 0.193541 -0.185854 0 855 535 0.0280237 -0.000136711 -0.000200782 9.57587e-08 1.9283e-05 
0 0 0 0.0174789 0.0250548 -0.0990868 0 855 2685 0.000174928 8.51652e-05 -1.992e-05 5.75048e-09 1.14484e-06 
0 0 0 -0.0169721 -0.0362818 0.0218215 0 855 5633 0.00119205 0.000583583 -0.000121153 1.06084e-08 2.11327e-06 
0 0 0 0.0236639 -0.0711534 0.0494397 0 855 7936 0.000665483 -0.00013628 -0.000103731 1.08748e-08 2.1664e-06 
0 0 0 0.0494342 0.261737 -0.164047 0 855 918 -0.000213353 -0.000103115 -2.73355e-05 5.61589e-09 1.11803e-06 
0 0 0 0.0033354 0.0174817 -0.00967767 0 855 5355 0.00012614 5.67828e-06 2.24205e-05 3.22494e-09 6.4184e-07 
0 0 0 0.00944026 0.0710601 0.0301491 0 855 389 0.000229988 -7.80945e-05 8.4409e-05 5.31795e-09 1.05867e-06 
0 0 0 0.00480653 -0.116884 -0.0191963 0 855 965 8.66594e-05 4.3033e-05 5.06174e-06 2.86867e-09 5.70907e-07 
0 0 0 0.00140666 -0.0544574 -0.00413255 0 855 7345 -1.34764e-06 6.73759e-07 9.10083e-09 4.09757e-10 8.15227e-08 
0 0 0 -0.00602398 0.0103555 -0.0945911 0 855 7678 0.000339986 -0.000130638 0.000108772 4.593e-09 9.1427e-07 
0 0 0 -0.00649927 -0.0653999 0.125157 0 855 1879 0.000955981 -1.39742e-05 -0.000477786 9.93343e-09 1.97864e-06 
0 0 0 0.0103444 -0.16723 -0.149663 0 855 5773 -4.95471e-05 2.22619e-05 1.08691e-05 1.82715e-10 3.63509e-08 
0 0 0 8.46122e-05 -0.135292 -0.00728182 0 855 4845 6.99386e-07 3.49348e-07 1.55235e-08 1.14787e-10 2.28365e-08 
0 0 0 -4.28736e-05 -0.125194 0.0343485 0 855 8116 1.063e-05 4.2933e-06 -3.13319e-06 5.19229e-10 1.03304e-07 
0 0 0 -0.0227811 -0.146409 -0.0231967 0 855 4251 0.000276542 0.000137851 1.0775e-05 1.89479e-09 3.77045e-07 
0 0 0 -0.000205517 -0.196135 -0.0419794 0 855 5419 2.23267e-05 1.09156e-05 2.33873e-06 8.27494e-10 1.64642e-07 
0 0 0 -0.0011485 -0.162357 0.00182129 0 855 2451 0.000116944 -6.87581e-07 5.84679e-05 2.44723e-09 4.87009e-07 
0 0 0 0.426842 -0.16342 0.912333 0 855 3919 -0.00492801 -0.000393898 -0.00243232 1.17147e-08 2.33396e-06 
0 0 0 0.000144797 -0.0751631 -0.0164973 0 855 7104 0.000845682 -5.03406e-05 -6.30011e-05 9.77964e-09 1.94797e-06 
0 0 0 0.00391224 -0.0714508 0.0142384 0 855 8314 2.36999e-05 1.172e-05 -1.7503e-06 1.62809e-09 3.23963e-07 
0 0 0 0.00289594 -0.0799016 0.0412996 0 855 4919 -2.48703e-06 1.23435e-06 -1.50704e-07 7.55017e-10 1.5022e-07 
0 0 0 -0.00144578 -0.0672538 0.0496993 0 855 6860 2.42181e-05 1.11251e-05 -4.78137e-06 6.44443e-10 1.28218e-07 
0 0 0 0.00479963 -1.16726e-11 -0.00981229 0 852 846 5.99061e-19 1.05196e-05 -1.19789e-18 5.24825e-10 1.04417e-07 
0 0 0 0.030186 -0.038558 0.396589 0 852 5583 0.00011692 0.000244473 -3.56581e-05 2.99248e-09 5.95556e-07 
0 0 0 -0.00918197 0.230092 0.181449 0 852 6052 -0.00112119 -0.0124468 -0.00186214 4.32374e-08 8.64856e-06 
0 0 0 -0.0120081 -0.132338 -0.00995747 0 895 7967 -3.47456e-05 0.00015257 -0.000312953 6.2558e-09 1.24552e-06 
0 0 0 0.0255518 -0.167328 -0.00241194 0 895 4670 -6.31426e-07 1.21744e-06 2.74289e-06 6.24331e-10 1.24216e-07 
0 0 0 7.67849e-14 4.76261e-20 3.71617e-302 0 861 1395 -1.62002 5.25978e-06 4.17237e-307 1.22522e-06 0.0003 
0 0 0 3.49674e-14 8.4363e-20 -2.07975e-302 0 857 2716 -1.62002 5.25978e-06 8.28571e-307 1.22522e-06 0.0003 
0 0 0 7.67849e-14 4.76261e-20 3.71617e-302 0 822 1395 1.62002 5.25978e-06 -3.24463e-307 1.22522e-06 0.0003 
0 0 0 3.49674e-14 8.4363e-20 -2.07975e-302 0 820 2716 1.62002 5.25978e-06 -7.33829e-307 1.22522e-06 0.0003 
0 0 0 -3.49635e-14 3.80845e-20 1.15075e-302 0 858 2246 -1.62002 5.25978e-06 8.71906e-307 1.22522e-06 0.0003 
0 0 0 7.23843e-14 8.43513e-20 2.26456e-302 0 828 887 1.62002 5.25978e-06 -4.74847e-307 1.22522e-06 0.0003 
0 0 0 -3.49635e-14 3.80845e-20 1.15075e-302 0 827 2246 1.62002 5.25978e-06 -7.78408e-307 1.22522e-06 0.0003 
0 0 0 1.41543 8.72376 38.5823 0 938 6173 -0.00302315 0.141842 -0.0247526 3.49282e-07 7.27998e-05 
0 0 0 0.00116684 -0.295672 0.147227 0 788 9251 5.41496e-12 4.18876e-06 3.15237e-06 3.06252e-10 6.09293e-08 
0 0 0 0.398921 -0.26336 0.425328 0 782 9606 -8.07252e-10 8.43119e-06 3.35612e-06 4.69091e-10 9.33282e-08 
0 0 0 0.0226175 0.0011965 -0.00640069 0 778 3551 -3.53407e-19 1.02659e-05 1.35713e-06 5.18851e-10 1.03229e-07 
0 0 0 0.0416682 -0.00744177 0.0398099 0 778 808 2.20995e-18 1.02659e-05 1.35713e-06 5.18851e-10 1.03229e-07 
0 0 0 0.0399423 -0.00685018 0.0366378 0 778 2102 -1.53094e-11 1.02868e-05 1.36114e-06 5.19271e-10 1.03312e-07 
0 0 0 -0.000583746 -0.00115731 0.00619104 0 778 6453 1.16201e-19 1.02659e-05 1.35713e-06 5.18851e-10 1.03229e-07 
0 0 0 0.0344501 -2.24967e-11 0.0298211 0 776 163 -1.17133e-13 1.05196e-05 -1.06538e-13 5.24825e-10 1.04417e-07 
0 0 0 0.0271349 -4.46606e-09 -0.00264847 0 776 8283 -3.38926e-14 1.05196e-05 3.30804e-15 5.24824e-10 1.04417e-07 
0 0 0 0.0304508 -2.69804e-10 -0.00460189 0 776 5373 -2.35258e-15 1.05196e-05 3.55511e-16 5.24825e-10 1.04417e-07 
0 0 0 0.0157982 1.57584e-06 0.00222321 0 776 3641 9.55551e-12 1.06545e-05 -3.73783e-12 5.29643e-10 1.05376e-07 
0 0 0 0.0582782 -3.40699e-12 0.00405114 0 776 4357 -9.67106e-18 1.05196e-05 -6.0489e-19 5.24825e-10 1.04417e-07 
0 0 0 0.00948202 -0.000249526 0.00142271 0 776 6782 -4.7705e-10 9.49086e-06 -2.53501e-10 4.35129e-10 8.65709e-08 
0 0 0 0.0811905 0.00332407 0.037253 0 776 221 -2.65154e-05 0.000141435 -6.55584e-05 3.43229e-09 6.83124e-07 
0 0 0 0.00814859 -5.57242e-06 -0.00356584 0 776 3193 -1.00875e-07 1.05854e-05 1.06465e-07 5.25808e-10 1.04613e-07 
0 0 0 0.0191642 1.98574e-07 -0.0038929 0 776 7846 1.11632e-12 1.05199e-05 -2.08729e-13 5.2488e-10 1.04428e-07 
0 0 0 0.0583659 1.28882e-11 0.00718661 0 776 3905 -3.72171e-14 1.05196e-05 -4.0645e-15 5.24825e-10 1.04417e-07 
0 0 0 0.0276548 1.01182e-05 0.0290623 0 776 693 6.66461e-11 1.04269e-05 8.59235e-11 5.23931e-10 1.0424e-07 
0 0 0 -0.0339937 -2.32676e-12 0.037383 0 776 3631 2.62335e-18 1.05196e-05 -4.79167e-18 5.24825e-10 1.04417e-07 
0 0 0 0.0560297 -3.13243e-12 0.0791869 0 776 4603 9.62586e-18 1.05196e-05 5.32882e-18 5.24825e-10 1.04417e-07 
0 0 0 0.0871827 -2.64903e-12 0.0763017 0 776 2843 9.58459e-18 1.05196e-05 9.66849e-18 5.24825e-10 1.04417e-07 
0 0 0 0.0629459 -5.71059e-12 0.135738 0 776 6601 0 1.05196e-05 -7.8773e-18 5.24825e-10 1.04417e-07 
0 0 0 0.0099944 -6.6774e-12 0.022729 0 776 4071 0 1.05196e-05 -1.7722e-18 5.24825e-10 1.04417e-07 
0 0 0 0.0447981 -5.54946e-12 0.0509194 0 776 6537 0 1.05196e-05 -3.56584e-18 5.24825e-10 1.04417e-07 
0 0 0 0.0359501 -2.64903e-12 0.0409393 0 776 6612 4.83424e-18 1.05196e-05 4.83424e-18 5.24825e-10 1.04417e-07 
0 0 0 -0.101428 2.82956e-12 0.118768 0 776 1306 7.61527e-05 1.05196e-05 -8.04186e-05 5.24825e-10 1.04417e-07 
0 0 0 -0.0485839 3.72118e-12 0.0374217 0 776 658 -4.9001e-17 1.05196e-05 4.08687e-17 5.24825e-10 1.04417e-07 
0 0 0 -0.00597586 -0.000433654 0.013097 0 776 7120 3.46876e-07 1.64203e-05 3.5507e-07 6.19137e-10 1.23183e-07 
0 0 0 -0.0113605 8.65822e-05 0.0149363 0 776 2205 4.43332e-09 6.25097e-06 -2.07773e-08 3.91391e-10 7.78685e-08 
0 0 0 0.00500313 1.52561e-05 0.0212893 0 776 758 2.83704e-11 1.06906e-05 1.05682e-10 5.3379e-10 1.06201e-07 
0 0 0 -8.95943e-05 3.74399e-05 0.0037 0 776 2535 6.37179e-13 1.21237e-05 4.41481e-11 5.84817e-10 1.16354e-07 
0 0 0 0.0130745 0.000368604 0.0165853 0 776 112 3.70755e-06 1.82264e-05 -5.73618e-06 8.29829e-10 1.65106e-07 
0 0 0 0.000770436 -0.000122063 0.00620073 0 776 7706 1.04254e-06 1.02889e-06 -4.91245e-09 7.28552e-11 1.44942e-08 
0 0 0 -0.0159555 1.71213e-07 0.00151119 0 776 7811 -1.28492e-12 1.05157e-05 -1.57816e-13 5.24733e-10 1.04399e-07 
0 0 0 0.0013141 2.78718e-06 0.00517128 0 776 1502 1.50747e-11 1.05132e-05 1.08268e-10 5.25215e-10 1.04495e-07 
0 0 0 0.000539027 -7.68069e-06 0.00768218 0 776 39 -2.87616e-07 1.04887e-05 2.83023e-08 5.22134e-10 1.03882e-07 
0 0 0 -0.00115044 3.42614e-09 0.00538663 0 776 1993 -1.06336e-15 1.05197e-05 4.97892e-15 5.24829e-10 1.04418e-07 
0 0 0 0.000125791 3.16187e-06 -0.0303776 0 776 5889 1.09995e-13 1.05625e-05 -2.65104e-11 5.26936e-10 1.04837e-07 
0 0 0 0.181257 -0.261002 0.286301 0 785 8603 -3.30071e-06 7.17451e-06 3.71952e-06 4.29556e-10 8.54621e-08 
0 0 0 -0.0122665 -0.00272061 0.014554 0 779 7763 1.76533e-18 1.02659e-05 1.35713e-06 5.18851e-10 1.03229e-07 
0 0 0 0.0391093 1.21821e-12 -0.00291445 0 777 8100 -3.9904e-18 1.05196e-05 2.494e-19 5.24825e-10 1.04417e-07 
0 0 0 0.0804688 2.59898e-08 0.244642 0 777 8712 6.17745e-13 1.05178e-05 1.87808e-12 5.24772e-10 1.04407e-07 
0 0 0 -0.0555086 -3.89226e-09 0.0500488 0 777 338 1.44813e-06 1.05196e-05 -1.0973e-08 5.24825e-10 1.04417e-07 
0 0 0 0.0727318 4.15089e-12 0.029687 0 777 9751 0.000441293 1.05196e-05 1.31863e-06 5.24825e-10 1.04417e-07 
0 0 0 0.0581854 -1.12839e-07 0.0577291 0 777 839 -1.78464e-12 1.05165e-05 -1.77063e-12 5.247e-10 1.04392e-07 
0 0 0 -0.046197 -5.21351e-12 0.0245636 0 777 7257 -4.79163e-18 1.05196e-05 2.3961e-18 5.24825e-10 1.04417e-07 
0 0 0 0.00953265 2.8294e-12 0.0101932 0 777 1313 -1.19793e-18 1.05196e-05 -1.2086e-18 5.24825e-10 1.04417e-07 
0 0 0 -0.00763264 -8.59425e-06 0.0061305 0 777 1974 3.69928e-11 1.06439e-05 2.85204e-11 5.27096e-10 1.04869e-07 
0 0 0 0.00728468 -6.07662e-12 0.0318182 0 777 207 -1.20329e-18 1.05196e-05 -3.9471e-18 5.24825e-10 1.04417e-07 
0 0 0 -0.00103004 -1.33418e-06 0.00301882 0 777 401 3.8022e-13 1.051e-05 -1.11427e-12 5.24217e-10 1.04297e-07 
0 0 0 0.0117548 -5.92939e-07 0.0378823 0 777 924 -1.9551e-12 1.05239e-05 -6.30067e-12 5.24842e-10 1.04421e-07 