ITEM: TIMESTEP
7000000
ITEM: NUMBER OF ENTRIES
264
ITEM: BOX BOUNDS ff ff ff
-0.01 0.45
-0.15 0.15
-0.08 0.1
ITEM: ENTRIES c_pwc[1] c_pwc[2] c_pwc[3] 
0 932 710 
0 922 434 
0 960 551 
0 958 387 
0 954 843 
0 954 465 
0 850 41 
0 885 41 
0 855 433 
0 884 512 
0 884 126 
0 853 801 
0 852 852 
0 852 188 
0 852 705 
0 894 8 
0 894 385 
0 894 131 
0 894 660 
0 852 338 
0 855 586 
0 855 610 
0 855 541 
0 932 26 
1 2725 752 
1 2724 752 
1 2717 752 
1 2698 752 
1 2703 752 
1 2723 752 
1 1861 146 
1 1874 146 
1 1873 146 
1 530 146 
1 1883 146 
1 529 146 
1 1889 146 
1 1842 146 
1 1828 146 
1 1831 146 
1 1827 146 
1 1830 146 
1 526 146 
1 541 146 
1 527 146 
1 1871 146 
1 1869 146 
1 1868 146 
1 1893 146 
1 1892 146 
1 1885 146 
0 885 270 
0 885 48 
0 885 127 
0 885 52 
0 885 276 
0 885 6 
0 885 79 
0 885 351 
0 885 45 
0 885 39 
0 885 393 
0 850 270 
0 850 48 
0 850 127 
0 850 52 
0 850 276 
0 850 6 
0 850 79 
0 850 351 
0 850 45 
0 851 39 
0 851 393 
0 853 264 
0 894 595 
0 894 182 
0 895 4 
0 895 552 
0 937 287 
0 932 350 
0 927 645 
0 927 502 
0 925 252 
0 925 283 
0 961 40 
0 957 322 
0 753 40 
0 886 15 
0 885 15 
0 850 15 
0 893 432 
0 379 81 
0 375 129 
0 389 104 
0 367 172 
0 395 812 
0 402 876 
0 431 874 
0 407 300 
0 405 225 
0 421 870 
0 386 238 
0 384 202 
0 381 637 
0 390 76 
0 370 537 
0 369 497 
0 401 462 
0 399 236 
0 432 435 
0 437 86 
0 433 120 
0 406 517 
0 409 840 
0 425 35 
0 419 737 
0 416 14 
0 416 837 
0 411 823 
0 535 150 
0 531 770 
0 376 220 
0 374 794 
0 541 501 
0 541 509 
0 518 153 
0 370 641 
0 547 520 
0 398 664 
0 396 214 
0 585 411 
0 439 473 
0 438 226 
0 434 733 
0 410 822 
0 406 494 
0 404 774 
0 404 136 
0 563 328 
0 563 61 
0 563 530 
0 416 346 
0 412 170 
0 537 817 
0 537 365 
0 535 24 
0 533 605 
0 529 622 
0 529 556 
0 543 691 
0 539 154 
0 539 223 
0 546 38 
0 525 831 
0 523 148 
0 519 500 
0 519 151 
0 518 151 
0 551 64 
0 549 642 
0 548 208 
0 587 418 
0 517 630 
0 559 190 
0 559 542 
0 573 358 
0 571 228 
0 582 312 
0 574 793 
0 567 217 
0 565 694 
0 563 266 
0 564 461 
0 528 191 
0 542 330 
0 540 115 
0 540 143 
0 519 275 
0 554 398 
0 550 196 
0 590 429 
0 560 251 
0 560 198 
0 558 307 
0 559 212 
0 574 636 
0 572 28 
0 581 169 
0 577 134 
0 577 187 
0 566 113 
0 564 746 
0 1063 99 
0 1061 527 
0 1059 599 
0 1059 163 
0 1053 292 
0 538 282 
0 536 277 
0 1069 421 
0 1069 422 
0 1067 401 
0 1067 367 
0 1066 401 
0 1049 98 
0 1045 325 
0 1079 670 
0 1079 166 
0 1079 3 
0 1077 46 
0 1073 549 
0 1115 119 
0 586 565 
0 584 59 
0 1085 197 
0 1083 147 
0 556 47 
0 1097 89 
0 1095 568 
0 1093 682 
0 1091 279 
0 566 476 
0 1061 506 
0 1057 109 
0 1070 160 
0 1066 327 
0 1065 526 
0 1048 97 
0 1047 487 
0 1079 62 
0 1078 162 
0 1076 255 
0 1114 27 
0 1043 298 
0 1088 349 
0 1084 571 
0 1082 725 
0 1097 683 
0 1093 158 
0 1281 259 
0 1064 17 
0 1055 374 
0 1055 94 
0 1070 93 
0 1069 335 
0 1066 80 
0 1076 596 
0 1074 117 
0 1117 13 
0 1082 152 
0 1082 101 
0 1108 219 
0 1096 71 
0 1096 30 
0 1094 234 
0 1090 19 
0 1297 285 
0 1277 7 
0 1336 37 
0 1313 320 
0 1312 388 
0 1321 32 
0 155 304 
0 76 106 
