ITEM: TIMESTEP
200000
ITEM: NUMBER OF ENTRIES
4
ITEM: BOX BOUNDS ff ff ff
-0.01 0.45
-0.15 0.15
-0.08 0.1
ITEM: ENTRIES c_pwc[1] c_pwc[2] c_pwc[3] 
0 951 22 
0 375 11 
0 387 20 
0 412 7 
