ITEM: TIMESTEP
1850000
ITEM: NUMBER OF ENTRIES
740
ITEM: BOX BOUNDS ff ff ff
-0.01 0.45
-0.15 0.15
-0.08 0.1
ITEM: ENTRIES c_pwc[1] c_pwc[2] c_pwc[3] c_pwc[4] c_pwc[5] c_pwc[6] c_pwc[7] c_pwc[8] c_pwc[9] c_pwc[10] c_pwc[11] c_pwc[12] c_pwc[13] c_pwc[14] 
0 0 0 14.9022 12.6665 37.1281 0 938 2871 -0.0101301 0.0293327 0.00436983 3.79039e-07 7.93418e-05 
0 0 0 -0.0866959 -0.330823 0.249842 0 786 585 -3.03459e-06 6.02343e-06 4.60433e-06 4.14509e-10 8.24683e-08 
0 0 0 0.0294125 -0.0314851 0.16843 0 778 1887 5.50423e-19 1.02659e-05 1.35713e-06 5.18851e-10 1.03229e-07 
0 0 0 -0.0119893 -0.0106808 0.0571374 0 778 421 2.31657e-20 1.02659e-05 1.35713e-06 5.18851e-10 1.03229e-07 
0 0 0 -0.00987572 -0.0134955 0.0721944 0 778 1470 -6.5918e-19 1.02659e-05 1.35713e-06 5.18851e-10 1.03229e-07 
0 0 0 0.0533592 -0.00797242 0.0426486 0 778 248 -9.53905e-18 1.02659e-05 1.35713e-06 5.18851e-10 1.03229e-07 
0 0 0 -0.28486 -0.00309076 0.0165341 0 778 1118 -0.000912531 -9.62243e-06 0.00010775 5.18851e-10 1.03229e-07 
0 0 0 0.0693137 -0.00568221 0.0303971 0 778 693 2.49192e-18 1.02659e-05 1.35713e-06 5.18851e-10 1.03229e-07 
0 0 0 0.0637688 -0.0184126 0.0984986 0 778 949 1.13898e-17 1.02659e-05 1.35713e-06 5.18851e-10 1.03229e-07 
0 0 0 0.0971176 0.00155867 -0.00833805 0 778 210 -2.30626e-08 9.88279e-06 1.2319e-06 5.054e-10 1.00553e-07 
0 0 0 0.00224562 3.4741e-12 0.00180823 0 776 72 -2.995e-19 1.05196e-05 -2.73072e-19 5.24825e-10 1.04417e-07 
0 0 0 0.000175336 1.37935e-12 0.00412473 0 776 731 1.22624e-20 1.05196e-05 -5.99049e-19 5.24825e-10 1.04417e-07 
0 0 0 0.00232808 -1.35995e-12 -0.0285821 0 776 1200 -1.83701e-19 1.05196e-05 2.44993e-18 5.24825e-10 1.04417e-07 
0 0 0 0.0219473 5.56886e-12 0.0242231 0 776 1039 -2.39615e-18 1.05196e-05 -9.39887e-20 5.24825e-10 1.04417e-07 
0 0 0 0.00255932 -4.74378e-12 0.0386884 0 776 101 2.99516e-19 1.05196e-05 3.07577e-18 5.24825e-10 1.04417e-07 
0 0 0 0.0291066 -6.51626e-12 -0.0190893 0 776 414 -1.70367e-18 1.05196e-05 -2.39583e-18 5.24825e-10 1.04417e-07 
0 0 0 0.029305 6.53567e-12 -0.0180536 0 776 1002 -4.81349e-18 1.05196e-05 2.3944e-19 5.24825e-10 1.04417e-07 
0 0 0 0.0568565 3.31297e-12 -0.0632385 0 776 280 -5.14015e-18 1.05196e-05 9.58344e-18 5.24825e-10 1.04417e-07 
0 0 0 0.0275358 2.51403e-13 0.0143746 0 776 1890 3.662e-18 1.05196e-05 1.85093e-18 5.24825e-10 1.04417e-07 
0 0 0 0.0497229 -2.81016e-12 0.0215161 0 776 690 -4.79162e-18 1.05196e-05 -2.3961e-18 5.24825e-10 1.04417e-07 
0 0 0 0.118944 -4.74378e-12 -0.0378327 0 776 2966 1.92529e-17 1.05196e-05 4.79167e-18 5.24825e-10 1.04417e-07 
0 0 0 -0.0557439 5.89113e-12 -0.154755 0 776 924 -8.32219e-18 1.05196e-05 -7.60274e-19 5.24825e-10 1.04417e-07 
0 0 0 -0.031166 -1.31801e-07 0.0737741 0 776 209 1.4644e-06 1.05211e-05 -5.05264e-06 5.24849e-10 1.04422e-07 
0 0 0 0.0242264 5.56886e-12 -0.0204355 0 776 839 1.38347e-10 1.05196e-05 2.68804e-10 5.24825e-10 1.04417e-07 
0 0 0 0.00809347 -6.83854e-12 -0.0746582 0 777 154 0 1.05196e-05 0 5.24825e-10 1.04417e-07 
0 0 0 -0.0226961 -0.00963802 -0.0515588 0 774 1045 0.0305116 0.000142203 0.000704443 5.18851e-10 1.03229e-07 
0 0 0 -0.035438 -0.0167373 -0.0895365 0 774 1972 -3.75265e-08 1.0262e-05 -1.37759e-06 5.18851e-10 1.03229e-07 
0 0 0 -0.0793429 -0.00260857 -0.0139546 0 774 733 3.79775e-12 1.02659e-05 -1.35712e-06 5.18851e-10 1.03229e-07 
0 0 0 -0.114342 -0.113972 -0.125021 0 768 1367 -6.65343e-18 7.10933e-06 -3.74085e-06 4.28995e-10 8.53504e-08 
0 0 0 -0.751664 0.85992 -0.731713 0 884 3145 0.0154866 0.0170827 0.0461153 1.00364e-07 2.02223e-05 
0 0 0 -5.94742e-303 -6.61378e-20 -5.89795e-12 0 884 871 -2.23406e-307 5.25978e-06 -1.62002 1.22522e-06 0.0003 
0 0 0 3.11589e-302 1.87161e-20 2.36059e-12 0 884 2565 8.4206e-308 5.25978e-06 -1.62002 1.22522e-06 0.0003 
0 0 0 -0.478341 1.95409 0.594531 0 884 1583 -0.00462878 -0.012035 0.0471089 1.70455e-07 3.46619e-05 
0 0 0 1.98577e-281 -1.87969e-20 -4.72344e-12 0 884 3089 -8.44064e-283 5.25978e-06 -1.62002 1.22522e-06 0.0003 
0 0 0 -1.58595e-188 -8.47065e-20 4.72348e-12 0 884 2130 3.11568e-189 5.25978e-06 -1.62002 1.22522e-06 0.0003 
0 0 0 -2.20737e-15 -5.68691e-20 3.73307e-302 0 862 444 -1.62002 5.25978e-06 1.96414e-307 1.22522e-06 0.0003 
0 0 0 -1.6302e-14 -8.49164e-20 -3.6919e-303 0 862 927 -1.62002 5.25978e-06 -2.59599e-307 1.22522e-06 0.0003 
0 0 0 -0.54709 4.0748 -7.95188 0 854 2014 0.0099704 0.00370525 0.00333517 1.54123e-08 3.07208e-06 
0 0 0 0.192876 2.0748 2.62546 0 854 131 -0.00110727 -0.000401405 -0.000381296 1.6551e-08 3.29953e-06 
0 0 0 0.38114 -0.418292 -0.672397 0 854 1382 -0.00179845 -0.000347659 -0.000829302 3.25493e-08 6.5019e-06 
0 0 0 3.80658e-302 -8.47271e-20 -4.72344e-12 0 850 478 -9.60275e-308 5.25978e-06 1.62002 1.22522e-06 0.0003 
0 0 0 -5.94742e-303 -6.61378e-20 -5.89795e-12 0 850 871 3.18246e-307 5.25978e-06 1.62002 1.22522e-06 0.0003 
0 0 0 2.57249e-302 -8.54885e-20 -2.2479e-15 0 850 283 -7.30359e-307 5.25978e-06 1.62002 1.22522e-06 0.0003 
0 0 0 3.11589e-302 1.87161e-20 2.36059e-12 0 850 2565 -1.75733e-307 5.25978e-06 1.62002 1.22522e-06 0.0003 
0 0 0 -4.29523e-302 5.65441e-20 2.36052e-12 0 850 2321 -1.10255e-306 5.25978e-06 1.62002 1.22522e-06 0.0003 
0 0 0 1.98577e-281 -1.87969e-20 -4.72344e-12 0 850 3089 -8.44064e-283 5.25978e-06 1.62002 1.22522e-06 0.0003 
0 0 0 -1.58595e-188 -8.47065e-20 4.72348e-12 0 850 2130 3.11568e-189 5.25978e-06 1.62002 1.22522e-06 0.0003 
0 0 0 -2.20737e-15 -5.68691e-20 3.73307e-302 0 822 444 1.62002 5.25978e-06 -1.03403e-307 1.22522e-06 0.0003 
0 0 0 -1.6302e-14 -8.49164e-20 -3.6919e-303 0 821 927 1.62002 5.25978e-06 1.66924e-307 1.22522e-06 0.0003 
0 0 0 3.80658e-302 -8.47271e-20 -4.72344e-12 0 885 478 1.9083e-307 5.25978e-06 -1.62002 1.22522e-06 0.0003 
0 0 0 2.57249e-302 -8.54885e-20 -2.2479e-15 0 885 283 8.25511e-307 5.25978e-06 -1.62002 1.22522e-06 0.0003 
0 0 0 -4.29523e-302 5.65441e-20 2.36052e-12 0 885 2321 1.00849e-306 5.25978e-06 -1.62002 1.22522e-06 0.0003 
0 0 0 -1.99177 -0.819981 -1.50565 0 853 2429 0.0396784 -0.0871331 0.0179908 2.46227e-07 5.05846e-05 
0 0 0 0.419854 -0.110151 -0.182651 0 852 3184 -0.000199235 -0.0207888 0.000352153 8.8389e-08 1.77821e-05 
0 0 0 0.12393 -0.206814 -0.00823153 0 894 465 4.49706e-06 -6.29689e-06 1.54757e-05 1.58308e-09 3.15006e-07 
0 0 0 -0.220245 -0.325163 -0.166204 0 894 3062 7.64126e-05 2.899e-05 -0.00298025 3.63473e-08 7.26405e-06 
0 0 0 0.0356352 -0.120507 0.0306384 0 894 1385 0.00476383 9.83619e-05 -0.00952969 4.67329e-08 9.35187e-06 
0 0 0 -5.37009e-14 7.60443e-20 -3.78643e-302 0 866 887 -1.62002 5.25978e-06 -4.8624e-307 1.22522e-06 0.0003 
0 0 0 0.362967 0.458167 1.31964 0 855 635 0.00554947 -0.00161396 -0.00225706 6.09558e-08 1.22201e-05 
0 0 0 0.0127671 -0.0325604 -0.0492967 0 855 1565 -7.31474e-05 -6.01185e-06 3.60762e-05 6.57008e-10 1.30718e-07 
0 0 0 -5.37009e-14 7.60443e-20 -3.78643e-302 0 828 887 1.62002 5.25978e-06 5.80655e-307 1.22522e-06 0.0003 
0 0 0 0.000387443 -0.25003 0.1245 0 788 971 8.01783e-10 0.000270858 -0.000129633 3.06252e-10 6.09293e-08 
0 0 0 0.053785 -0.0131369 0.0702762 0 778 1073 5.34744e-19 1.02659e-05 1.35713e-06 5.18851e-10 1.03229e-07 
0 0 0 -0.230879 -0.00520035 0.0278394 0 778 1771 0.00133193 -6.0868e-05 0.000381746 5.18765e-10 1.03212e-07 
0 0 0 -0.0203906 0.00236727 -0.0126637 0 778 339 -6.60279e-12 1.02654e-05 1.35703e-06 5.18834e-10 1.03225e-07 
0 0 0 -0.0828322 -1.52121e-10 -0.158196 0 776 2445 1.48099e-06 1.05196e-05 5.04698e-06 5.24825e-10 1.04417e-07 
0 0 0 0.43574 1.93684e-06 0.216436 0 776 2573 -0.00162472 1.04392e-05 5.18811e-05 5.22568e-10 1.03968e-07 
0 0 0 0.0203545 -0.0243257 0.0392875 0 783 375 1.05381e-17 8.43728e-06 3.363e-06 4.71018e-10 9.37115e-08 
0 0 0 0.0990394 0.00828158 -0.0213772 0 781 1275 -4.16781e-18 9.53905e-06 2.53098e-06 5.00925e-10 9.96621e-08 
0 0 0 -0.0382086 0.00976418 -0.0522337 0 779 2205 1.11767e-18 1.02659e-05 1.35713e-06 5.18851e-10 1.03229e-07 
0 0 0 0.0180426 0.0114368 -0.0611813 0 779 2206 4.65065e-18 1.02659e-05 1.35713e-06 5.18851e-10 1.03229e-07 
0 0 0 0.0924949 -1.25697e-08 -0.0079593 0 777 1774 -5.73398e-08 1.10954e-05 -5.96329e-07 5.43803e-10 1.08194e-07 
0 0 0 -0.000685659 -7.85455e-10 0.0608345 0 777 163 -4.56693e-06 1.05196e-05 -2.60933e-06 5.24825e-10 1.04418e-07 
0 0 0 0.181111 -3.13243e-12 0.107297 0 777 1555 -3.49652e-18 1.05196e-05 1.096e-17 5.24825e-10 1.04417e-07 
0 0 0 0.0869977 0.0310385 0.166041 0 775 770 5.09123e-13 1.02661e-05 -1.35718e-06 5.18864e-10 1.03231e-07 
0 0 0 -27.4884 51.7208 21.7973 0 948 3556 -0.02713 0.0224089 0.0733179 1.09048e-07 2.19969e-05 
0 0 0 -0.292106 -0.0421512 -0.225489 0 774 570 2.16724e-13 1.0266e-05 -1.35715e-06 5.18854e-10 1.03229e-07 
0 0 0 0.168397 -0.0169145 -0.0904845 0 774 130 2.76505e-18 1.02659e-05 -1.35713e-06 5.18851e-10 1.03229e-07 
0 0 0 0.167684 0.276365 0.303215 0 768 180 -1.66657e-09 6.75774e-06 -3.40267e-06 4.0189e-10 7.99575e-08 
0 0 0 -23.2573 44.8545 10.4998 0 951 947 0.0306907 0.0436337 -0.0722455 2.98377e-07 6.17428e-05 
0 0 0 -0.000123043 -0.0235553 -0.0608032 0 773 1306 1.69762e-18 9.53905e-06 -2.53098e-06 5.00925e-10 9.96621e-08 
0 0 0 4.59004e-303 8.56878e-20 2.12541e-15 0 885 1881 -2.36751e-307 5.25978e-06 -1.62002 1.22522e-06 0.0003 
0 0 0 3.02456e-302 -6.6042e-20 -3.53506e-12 0 885 1411 2.40026e-307 5.25978e-06 -1.62002 1.22522e-06 0.0003 
0 0 0 2.07216e-302 -8.48575e-20 -2.36061e-12 0 885 2581 -4.94212e-307 5.25978e-06 -1.62002 1.22522e-06 0.0003 
0 0 0 3.62246e-302 8.48717e-20 -5.8979e-12 0 885 2905 8.12314e-307 5.25978e-06 -1.62002 1.22522e-06 0.0003 
0 0 0 -6.77111e-17 -5.4045e-16 -2.95379e-12 0 885 20 0.202821 0.0584311 -1.66139 1.24112e-06 0.000305086 
0 0 0 -8.30326e-17 8.44701e-16 -2.94917e-12 0 885 1092 -0.119367 -0.0343802 -1.579 1.20916e-06 0.000294914 
0 0 0 -3.63774e-303 -2.84531e-20 5.89787e-12 0 885 1796 -1.91153e-307 5.25978e-06 -1.62002 1.22522e-06 0.0003 
0 0 0 -1.73128e-278 3.77201e-20 3.53504e-12 0 885 1312 3.6695e-279 5.25978e-06 -1.62002 1.22522e-06 0.0003 
0 0 0 2.53071e-06 -1.52075e-07 -7.68209e-09 0 885 226 0.0471527 0.0231364 -1.60845 1.22072e-06 0.00029857 
0 0 0 -1.36463e-06 -1.04533e-06 3.35399e-09 0 885 294 -0.0165711 0.0259923 -1.62331 1.2265e-06 0.000300407 
0 0 0 -1.16606e-06 1.19741e-06 4.32608e-09 0 885 643 -0.046684 -0.057193 -1.62831 1.22843e-06 0.000301023 
0 0 0 2.24034e-36 4.70752e-20 -4.7235e-12 0 885 2443 -1.35726e-37 5.25978e-06 -1.62002 1.22522e-06 0.0003 
0 0 0 3.92205e-302 -5.65071e-20 2.36058e-12 0 885 1533 -9.41938e-308 5.25978e-06 -1.62002 1.22522e-06 0.0003 
0 0 0 3.12666e-302 9.59095e-21 3.53502e-12 0 885 2662 -5.28345e-307 5.25978e-06 -1.62002 1.22522e-06 0.0003 
0 0 0 4.36402e-302 7.54391e-20 -2.36056e-12 0 885 245 6.35142e-307 5.25978e-06 -1.62002 1.22522e-06 0.0003 
0 0 0 -1.5753e-302 2.83771e-20 -3.53501e-12 0 885 428 3.84529e-307 5.25978e-06 -1.62002 1.22522e-06 0.0003 
0 0 0 -3.29878e-111 7.54561e-20 1.1814e-12 0 885 524 2.19953e-114 5.25978e-06 -1.62002 1.22522e-06 0.0003 
0 0 0 2.28207e-302 5.65167e-20 -4.7235e-12 0 885 775 0 5.25978e-06 -1.62002 1.22522e-06 0.0003 
0 0 0 1.22275e-16 -8.25935e-16 -2.95025e-12 0 885 1379 0.0166689 0.116111 -1.62072 1.22549e-06 0.000300086 
0 0 0 -1.16109e-16 6.39615e-16 -2.95007e-12 0 885 394 -0.0164525 -0.114594 -1.61932 1.22495e-06 0.000299914 
0 0 0 -7.36698e-16 2.78768e-17 3.50002e-14 0 885 193 0.0295833 -0.00821421 -1.62 1.22521e-06 0.000299998 
0 0 0 9.4105e-163 -8.49683e-20 -3.53498e-12 0 885 506 -3.23506e-164 5.25978e-06 -1.62002 1.22522e-06 0.0003 
0 0 0 -9.27826e-303 -9.54351e-21 -5.89787e-12 0 885 1184 5.59066e-307 5.25978e-06 -1.62002 1.22522e-06 0.0003 
0 0 0 -2.63645e-223 2.83308e-20 -5.8979e-12 0 885 730 1.02127e-225 5.25978e-06 -1.62002 1.22522e-06 0.0003 
0 0 0 1.56266e-302 -9.23623e-21 -2.3606e-12 0 885 797 2.15455e-307 5.25978e-06 -1.62002 1.22522e-06 0.0003 
0 0 0 -2.23905e-162 -8.48018e-20 -4.72343e-12 0 885 757 3.90525e-163 5.25978e-06 -1.62002 1.22522e-06 0.0003 
0 0 0 -5.55717e-18 -1.27661e-16 3.49797e-14 0 885 540 0.00167265 0.0111067 -1.6183 1.22455e-06 0.000299788 
0 0 0 -2.92272e-16 1.30738e-16 5.90133e-12 0 885 115 0.0195971 0.00606288 -1.61377 1.2228e-06 0.000299228 
0 0 0 -2.37556e-16 8.71376e-17 1.14247e-13 0 885 621 0.0466443 0.00272382 -1.61527 1.22338e-06 0.000299414 
0 0 0 5.97782e-303 8.49621e-20 2.29966e-15 0 885 156 3.23871e-307 5.25978e-06 -1.62002 1.22522e-06 0.0003 
0 0 0 -7.37617e-303 -3.76205e-20 -5.89797e-12 0 885 522 8.5855e-307 5.25978e-06 -1.62002 1.22522e-06 0.0003 
0 0 0 8.53454e-16 -1.05855e-15 3.49527e-14 0 885 364 0.0717375 -0.0812284 -1.60219 1.21828e-06 0.000297795 
0 0 0 3.66729e-16 -1.3075e-16 5.90175e-12 0 885 787 -0.033682 -0.0104062 -1.62627 1.22764e-06 0.000300772 
0 0 0 1.41261e-16 3.27855e-16 1.143e-13 0 885 2532 -0.0131045 0.0152102 -1.62026 1.22531e-06 0.00030003 
0 0 0 7.74466e-17 -5.61854e-16 1.14199e-13 0 885 1994 -0.0311878 -0.027693 -1.62474 1.22705e-06 0.000300583 
0 0 0 7.70129e-16 -6.17626e-16 3.48145e-14 0 885 2263 -0.0324157 0.0632949 -1.6061 1.21981e-06 0.000298279 
0 0 0 -4.14822e-140 8.4839e-20 1.18145e-12 0 885 336 2.15995e-141 5.25978e-06 -1.62002 1.22522e-06 0.0003 
0 0 0 2.89253e-16 1.57932e-16 2.72462e-13 0 885 419 0.0652488 -0.0151876 -1.62943 1.22886e-06 0.000301161 
0 0 0 -1.16048e-16 5.0304e-16 3.48384e-14 0 885 946 -0.133137 -0.0293121 -1.65368 1.23818e-06 0.000304141 
0 0 0 -3.92849e-17 1.1592e-16 -2.95024e-12 0 885 51 -0.00158459 0.0248089 -1.618 1.22444e-06 0.00029975 
0 0 0 3.84913e-17 -3.72333e-17 -2.95001e-12 0 885 2776 0.00188882 -0.0295605 -1.62204 1.226e-06 0.00030025 
0 0 0 1.19095e-16 -6.52504e-17 1.13984e-13 0 885 637 0.0324017 0.101132 -1.60108 1.21784e-06 0.000297657 
0 0 0 -2.31135e-16 -6.96449e-16 1.13965e-13 0 885 436 -0.0609956 -0.132978 -1.63883 1.23248e-06 0.000302317 
0 0 0 -1.24452e-15 9.22662e-16 -4.13089e-12 0 885 50 0.176078 0.202521 -1.63189 1.22981e-06 0.000301464 
0 0 0 1.45652e-15 -6.00021e-16 -4.1314e-12 0 885 45 -0.160627 -0.18474 -1.60818 1.22062e-06 0.000298536 
0 0 0 -1.49866e-182 9.37777e-21 5.89793e-12 0 885 252 -2.88969e-183 5.25978e-06 -1.62002 1.22522e-06 0.0003 
0 0 0 -0.0011512 -0.000979449 1.05063e-06 0 885 145 0.0608554 -0.0869083 -1.60204 1.21822e-06 0.000297777 
0 0 0 6.51759e-16 -2.71474e-16 2.72379e-13 0 885 1734 -0.04307 0.0202516 -1.61052 1.22153e-06 0.000298826 
0 0 0 -1.75694e-17 1.14474e-16 2.7233e-13 0 885 93 -0.0011898 -0.0101953 -1.62013 1.22526e-06 0.000300014 
0 0 0 -0.00160157 0.000413018 8.3607e-06 0 885 9 0.0201994 0.0458299 -1.62776 1.22822e-06 0.000300955 
0 0 0 -0.000194921 -0.00244842 5.25239e-05 0 885 2687 0.0719853 -0.0459304 -1.62999 1.22908e-06 0.00030123 
0 0 0 0.004051 0.00211238 -2.65511e-06 0 885 1957 0.0453927 -0.118224 -1.65328 1.23802e-06 0.000304092 
0 0 0 -1.74905e-16 -1.61409e-17 5.89278e-13 0 885 853 0.0402191 -0.000107363 -1.62487 1.2271e-06 0.000300599 
0 0 0 0.0114537 0.0033088 -4.59039e-05 0 885 850 0.137217 -0.0189623 -1.57194 1.20637e-06 0.000294035 
0 0 0 -0.00451562 -0.00421818 -1.43597e-05 0 885 494 -0.0703336 0.170751 -1.61723 1.22414e-06 0.000299655 
0 0 0 2.38238e-16 -4.8431e-16 5.89849e-12 0 885 609 -0.0134127 0.0290885 -1.61443 1.22305e-06 0.00029931 
0 0 0 -2.10724e-16 4.91869e-16 5.89733e-12 0 885 2334 0.0188766 -0.0409257 -1.62561 1.22739e-06 0.00030069 
0 0 0 -4.474e-54 8.49234e-20 -2.36052e-12 0 885 662 4.6827e-55 5.25978e-06 -1.62002 1.22522e-06 0.0003 
0 0 0 3.15763e-302 7.541e-20 -1.18145e-12 0 885 1341 0 5.25978e-06 -1.62002 1.22522e-06 0.0003 
0 0 0 -0.00112667 -0.00372982 -1.53694e-05 0 885 1050 -0.0146072 0.119241 -1.63639 1.23155e-06 0.000302018 
0 0 0 -0.00884169 0.00833828 -8.67413e-05 0 885 110 0.0863004 -0.0296911 -1.59896 1.21701e-06 0.000297395 
0 0 0 0.00555566 0.00383869 4.56836e-05 0 885 28 0.082777 -0.033354 -1.62386 1.22671e-06 0.000300474 
0 0 0 -9.56574e-283 -4.19784e-23 -3.53499e-12 0 885 275 7.82995e-284 5.25978e-06 -1.62002 1.22522e-06 0.0003 
0 0 0 1.73319e-16 1.67686e-17 5.89252e-13 0 885 340 -0.0288585 8.60693e-05 -1.61517 1.22334e-06 0.000299401 
0 0 0 -0.0014259 -0.00325035 6.23993e-06 0 885 355 0.0296699 -0.00636463 -1.62142 1.22576e-06 0.000300173 
0 0 0 -0.00238181 -0.00176165 6.28978e-05 0 885 582 -0.152981 0.00392789 -1.64229 1.23381e-06 0.000302743 
0 0 0 0.00215617 -0.00585349 -1.24984e-05 0 885 1701 -0.0816413 0.168275 -1.6299 1.22904e-06 0.000301218 
0 0 0 0.00014613 -0.000520327 -1.39301e-05 0 885 410 -0.0808372 -0.145912 -1.61327 1.2226e-06 0.000299166 
0 0 0 -1.589e-302 8.49042e-20 -3.53499e-12 0 885 580 -2.92052e-307 5.25978e-06 -1.62002 1.22522e-06 0.0003 
0 0 0 1.16573e-16 -1.5594e-16 2.94841e-12 0 885 1151 0.00155006 0.00371721 -1.6178 1.22436e-06 0.000299726 
0 0 0 0.0260095 -0.0133553 -0.000205499 0 885 400 0.160456 0.138932 -1.374 1.12415e-06 0.000268803 
0 0 0 -1.15236e-16 1.51643e-16 2.94907e-12 0 885 562 -0.00362159 -0.00866742 -1.62224 1.22608e-06 0.000300274 
0 0 0 -2.29697e-16 -1.62843e-16 -1.17683e-12 0 885 1107 0.00167401 0.0659754 -1.62113 1.22565e-06 0.000300136 
0 0 0 2.29305e-16 4.62212e-16 -1.17694e-12 0 885 2291 -0.00161011 -0.0634468 -1.61891 1.22479e-06 0.000299864 
0 0 0 -0.00536825 0.00512298 -4.29874e-05 0 885 17 -0.00630105 0.0951758 -1.58085 1.2099e-06 0.000295145 
0 0 0 0.0169456 0.0019343 4.44214e-05 0 885 1441 -0.0254625 -0.0425599 -1.65193 1.23751e-06 0.000303926 
0 0 0 -0.0263825 -0.00340546 -4.51987e-06 0 885 30 0.0300243 -0.00912953 -1.63016 1.22914e-06 0.000301251 
0 0 0 -0.0276103 0.0247564 0.000215519 0 885 2300 -0.268935 -0.174692 -1.95275 1.34524e-06 0.000339785 
0 0 0 -0.000392129 -0.00550147 2.22945e-05 0 885 1114 0.12503 -0.0497647 -1.61543 1.22344e-06 0.000299432 
0 0 0 -6.7244e-17 1.72807e-16 6.48967e-12 0 885 192 0.00639921 -0.0152076 -1.62029 1.22533e-06 0.000300033 
0 0 0 1.79012 -0.63083 1.50836 0 853 1951 -0.0272843 -0.0551167 0.00387731 1.86498e-07 3.80053e-05 
0 0 0 -9.27826e-303 -9.54351e-21 -5.89787e-12 0 851 1184 -4.64228e-307 5.25978e-06 1.62002 1.22522e-06 0.0003 
0 0 0 -4.14822e-140 8.4839e-20 1.18145e-12 0 851 336 2.15995e-141 5.25978e-06 1.62002 1.22522e-06 0.0003 
0 0 0 2.38238e-16 -4.8431e-16 5.89849e-12 0 851 609 -0.0188766 0.0409362 1.62561 1.22739e-06 0.00030069 
0 0 0 -2.10724e-16 4.91869e-16 5.89733e-12 0 851 2334 0.0134127 -0.029078 1.61443 1.22305e-06 0.00029931 
0 0 0 -4.474e-54 8.49234e-20 -2.36052e-12 0 851 662 4.6827e-55 5.25978e-06 1.62002 1.22522e-06 0.0003 
0 0 0 3.15763e-302 7.541e-20 -1.18145e-12 0 851 1341 8.14097e-308 5.25978e-06 1.62002 1.22522e-06 0.0003 
0 0 0 -9.56574e-283 -4.19784e-23 -3.53499e-12 0 851 275 7.82995e-284 5.25978e-06 1.62002 1.22522e-06 0.0003 
0 0 0 -1.589e-302 8.49042e-20 -3.53499e-12 0 851 580 1.99374e-307 5.25978e-06 1.62002 1.22522e-06 0.0003 
0 0 0 1.16573e-16 -1.5594e-16 2.94841e-12 0 851 1151 0.00362159 0.00867794 1.62224 1.22608e-06 0.000300274 
0 0 0 -1.15236e-16 1.51643e-16 2.94907e-12 0 851 562 -0.00155006 -0.00370669 1.6178 1.22436e-06 0.000299726 
0 0 0 -2.29697e-16 -1.62843e-16 -1.17683e-12 0 851 1107 0.00161011 0.0634573 1.61891 1.22479e-06 0.000299864 
0 0 0 2.29305e-16 4.62212e-16 -1.17694e-12 0 851 2291 -0.00167401 -0.0659648 1.62113 1.22565e-06 0.000300136 
0 0 0 -0.0276103 0.0247564 0.000215519 0 851 2300 -0.0750046 -0.0193457 1.30868 1.09526e-06 0.000260215 
0 0 0 -0.000392129 -0.00550147 2.22945e-05 0 851 1114 0.135904 -0.0541951 1.62462 1.227e-06 0.000300568 
0 0 0 -6.7244e-17 1.72807e-16 6.48967e-12 0 851 192 0.00614767 -0.0146096 1.61975 1.22512e-06 0.000299967 
0 0 0 2.95341 10.9063 -0.781506 0 884 2208 -0.0690702 -0.125215 0.286003 4.19238e-07 8.82751e-05 
0 0 0 4.59004e-303 8.56878e-20 2.12541e-15 0 850 1881 1.42335e-307 5.25978e-06 1.62002 1.22522e-06 0.0003 
0 0 0 3.02456e-302 -6.6042e-20 -3.53506e-12 0 850 1411 -1.45043e-307 5.25978e-06 1.62002 1.22522e-06 0.0003 
0 0 0 2.07216e-302 -8.48575e-20 -2.36061e-12 0 850 2581 5.86763e-307 5.25978e-06 1.62002 1.22522e-06 0.0003 
0 0 0 3.62246e-302 8.48717e-20 -5.8979e-12 0 850 2905 -7.17921e-307 5.25978e-06 1.62002 1.22522e-06 0.0003 
0 0 0 -6.77111e-17 -5.4045e-16 -2.95379e-12 0 850 20 0.119367 0.0343907 1.579 1.20916e-06 0.000294914 
0 0 0 -8.30326e-17 8.44701e-16 -2.94917e-12 0 850 1092 -0.202821 -0.0584205 1.66139 1.24112e-06 0.000305086 
0 0 0 -3.63774e-303 -2.84531e-20 5.89787e-12 0 850 1796 9.59836e-308 5.25978e-06 1.62002 1.22522e-06 0.0003 
0 0 0 -1.73128e-278 3.77201e-20 3.53504e-12 0 850 1312 3.6695e-279 5.25978e-06 1.62002 1.22522e-06 0.0003 
0 0 0 2.53071e-06 -1.52075e-07 -7.68209e-09 0 850 226 0.0632792 0.0312142 1.63161 1.22971e-06 0.00030143 
0 0 0 -1.36463e-06 -1.04533e-06 3.35399e-09 0 850 294 -0.0124124 0.0194706 1.61673 1.22394e-06 0.000299593 
0 0 0 -1.16606e-06 1.19741e-06 4.32608e-09 0 850 643 -0.0347645 -0.042589 1.61174 1.222e-06 0.000298977 
0 0 0 2.24034e-36 4.70752e-20 -4.7235e-12 0 850 2443 -1.35726e-37 5.25978e-06 1.62002 1.22522e-06 0.0003 
0 0 0 3.92205e-302 -5.65071e-20 2.36058e-12 0 850 1533 0 5.25978e-06 1.62002 1.22522e-06 0.0003 
0 0 0 3.12666e-302 9.59095e-21 3.53502e-12 0 850 2662 4.36295e-307 5.25978e-06 1.62002 1.22522e-06 0.0003 
0 0 0 4.36402e-302 7.54391e-20 -2.36056e-12 0 850 245 -5.43648e-307 5.25978e-06 1.62002 1.22522e-06 0.0003 
0 0 0 -1.5753e-302 2.83771e-20 -3.53501e-12 0 850 428 -4.7661e-307 5.25978e-06 1.62002 1.22522e-06 0.0003 
0 0 0 -3.29878e-111 7.54561e-20 1.1814e-12 0 850 524 2.19953e-114 5.25978e-06 1.62002 1.22522e-06 0.0003 
0 0 0 2.28207e-302 5.65167e-20 -4.7235e-12 0 850 775 -9.50562e-308 5.25978e-06 1.62002 1.22522e-06 0.0003 
0 0 0 1.22275e-16 -8.25935e-16 -2.95025e-12 0 850 1379 0.0164525 0.114604 1.61932 1.22495e-06 0.000299914 
0 0 0 -1.16109e-16 6.39615e-16 -2.95007e-12 0 850 394 -0.0166689 -0.116101 1.62072 1.22549e-06 0.000300086 
0 0 0 -7.36698e-16 2.78768e-17 3.50002e-14 0 850 193 0.029629 -0.00822692 1.62004 1.22523e-06 0.000300002 
0 0 0 9.4105e-163 -8.49683e-20 -3.53498e-12 0 850 506 -3.23506e-164 5.25978e-06 1.62002 1.22522e-06 0.0003 
0 0 0 -2.63645e-223 2.83308e-20 -5.8979e-12 0 850 730 1.02127e-225 5.25978e-06 1.62002 1.22522e-06 0.0003 
0 0 0 1.56266e-302 -9.23623e-21 -2.3606e-12 0 850 797 -1.20118e-307 5.25978e-06 1.62002 1.22522e-06 0.0003 
0 0 0 -2.23905e-162 -8.48018e-20 -4.72343e-12 0 850 757 3.90525e-163 5.25978e-06 1.62002 1.22522e-06 0.0003 
0 0 0 -5.55717e-18 -1.27661e-16 3.49797e-14 0 850 540 0.00588817 0.01148 1.62174 1.22589e-06 0.000300212 
0 0 0 -2.92272e-16 1.30738e-16 5.90133e-12 0 850 115 0.033682 0.0104167 1.62627 1.22764e-06 0.000300772 
0 0 0 -2.37556e-16 8.71376e-17 1.14247e-13 0 850 621 0.0563264 0.00709697 1.62477 1.22706e-06 0.000300586 
0 0 0 5.97782e-303 8.49621e-20 2.29966e-15 0 850 156 -4.15315e-307 5.25978e-06 1.62002 1.22522e-06 0.0003 
0 0 0 -7.37617e-303 -3.76205e-20 -5.89797e-12 0 850 522 -9.51953e-307 5.25978e-06 1.62002 1.22522e-06 0.0003 
0 0 0 8.53454e-16 -1.05855e-15 3.49527e-14 0 850 364 0.13417 -0.0371092 1.63792 1.23213e-06 0.000302205 
0 0 0 3.66729e-16 -1.3075e-16 5.90175e-12 0 850 787 -0.0195971 -0.00605237 1.61377 1.2228e-06 0.000299228 
0 0 0 1.41261e-16 3.27855e-16 1.143e-13 0 850 2532 -0.0127436 0.0147915 1.61978 1.22513e-06 0.00029997 
0 0 0 7.74466e-17 -5.61854e-16 1.14199e-13 0 850 1994 -0.0222937 -0.0227018 1.6153 1.22339e-06 0.000299417 
0 0 0 7.70129e-16 -6.17626e-16 3.48145e-14 0 850 2263 -0.046874 0.0915237 1.63398 1.23062e-06 0.000301721 
0 0 0 2.89253e-16 1.57932e-16 2.72462e-13 0 850 419 0.04423 -0.0102933 1.61063 1.22157e-06 0.000298839 
0 0 0 -1.16048e-16 5.0304e-16 3.48384e-14 0 850 946 -0.0602527 -0.0132627 1.5866 1.21216e-06 0.000295859 
0 0 0 -3.92849e-17 1.1592e-16 -2.95024e-12 0 850 51 -0.00188882 0.029571 1.62204 1.226e-06 0.00030025 
0 0 0 3.84913e-17 -3.72333e-17 -2.95001e-12 0 850 2776 0.00158459 -0.0247984 1.618 1.22444e-06 0.00029975 
0 0 0 1.19095e-16 -6.52504e-17 1.13984e-13 0 850 637 0.0489521 0.138393 1.63904 1.23257e-06 0.000302343 
0 0 0 -2.31135e-16 -6.96449e-16 1.13965e-13 0 850 436 -0.0439994 -0.0959226 1.60129 1.21792e-06 0.000297683 
0 0 0 -1.24452e-15 9.22662e-16 -4.13089e-12 0 850 50 0.160627 0.184751 1.60818 1.22062e-06 0.000298536 
0 0 0 1.45652e-15 -6.00021e-16 -4.1314e-12 0 850 45 -0.176078 -0.202511 1.63189 1.22981e-06 0.000301464 
0 0 0 -1.49866e-182 9.37777e-21 5.89793e-12 0 850 252 -2.88969e-183 5.25978e-06 1.62002 1.22522e-06 0.0003 
0 0 0 -0.0011512 -0.000979449 1.05063e-06 0 850 145 0.0838726 -0.118103 1.63806 1.23219e-06 0.000302223 
0 0 0 6.51759e-16 -2.71474e-16 2.72379e-13 0 850 1734 -0.0640594 0.0254082 1.62954 1.22891e-06 0.000301174 
0 0 0 -1.75694e-17 1.14474e-16 2.7233e-13 0 850 93 -0.00116134 -0.00995123 1.61991 1.22518e-06 0.000299986 
0 0 0 -0.00160157 0.000413018 8.3607e-06 0 850 9 0.0128067 0.0292591 1.61229 1.22222e-06 0.000299045 
0 0 0 -0.000194921 -0.00244842 5.25239e-05 0 850 2687 0.0251338 -0.0547743 1.61007 1.22135e-06 0.00029877 
0 0 0 0.004051 0.00211238 -2.65511e-06 0 850 1957 0.0544076 -0.122497 1.58699 1.21231e-06 0.000295908 
0 0 0 -1.74905e-16 -1.61409e-17 5.89278e-13 0 850 853 0.0288585 -7.55546e-05 1.61517 1.22334e-06 0.000299401 
0 0 0 0.0114537 0.0033088 -4.59039e-05 0 850 850 0.199671 -0.0426042 1.66858 1.24385e-06 0.000305965 
0 0 0 -0.00451562 -0.00421818 -1.43597e-05 0 850 494 -0.107369 0.213215 1.62282 1.2263e-06 0.000300345 
0 0 0 -0.00112667 -0.00372982 -1.53694e-05 0 850 1050 -0.00376083 0.0842785 1.6037 1.21887e-06 0.000297982 
0 0 0 -0.00884169 0.00833828 -8.67413e-05 0 850 110 0.0584691 0.01916 1.64117 1.23338e-06 0.000302605 
0 0 0 0.00555566 0.00383869 4.56836e-05 0 850 28 0.0408576 0.00511677 1.61618 1.22373e-06 0.000299526 
0 0 0 1.73319e-16 1.67686e-17 5.89252e-13 0 850 340 -0.0402191 0.000117887 1.62487 1.2271e-06 0.000300599 
0 0 0 -0.0014259 -0.00325035 6.23993e-06 0 850 355 0.0267076 -0.00549067 1.61862 1.22468e-06 0.000299827 
0 0 0 -0.00238181 -0.00176165 6.28978e-05 0 850 582 -0.10587 -0.00337109 1.59785 1.21658e-06 0.000297257 
0 0 0 0.00215617 -0.00585349 -1.24984e-05 0 850 1701 -0.0819655 0.166059 1.61016 1.22139e-06 0.000298782 
0 0 0 0.00014613 -0.000520327 -1.39301e-05 0 850 410 -0.0970041 -0.143272 1.62678 1.22784e-06 0.000300834 
0 0 0 0.0260095 -0.0133553 -0.000205499 0 850 400 0.413545 0.399934 1.87919 1.32017e-06 0.000331197 
0 0 0 -0.00536825 0.00512298 -4.29874e-05 0 850 17 -0.0126521 0.178671 1.6595 1.2404e-06 0.000304855 
0 0 0 0.0169456 0.0019343 4.44214e-05 0 850 1441 -0.0302272 0.0526152 1.58832 1.21284e-06 0.000296074 
0 0 0 -0.0263825 -0.00340546 -4.51987e-06 0 850 30 0.0290346 0.00129592 1.6099 1.22129e-06 0.000298749 
0 -80.0676 -12.8939 -0.0815963 -79.807 -13.4904 1 1895 1161 0.359859 0.623447 0.221873 7.50739e-07 0.000166729 
0 -78.9685 -11.9807 0.0731609 -78.7056 -12.5509 1 1895 753 1.04503 1.20329 0.46991 1.21749e-06 0.000297544 
0 -85.0063 -14.6888 0.0555829 -84.7549 -15.2888 1 1895 395 0.575183 0.994418 0.364415 9.86103e-07 0.000228936 
0 -82.3143 -13.6442 -0.0066135 -82.074 -14.256 1 1895 2160 0.684744 0.824962 0.455427 9.95053e-07 0.000231436 
0 -90.4546 -17.0239 -0.0147587 -90.2492 -17.5268 1 1895 208 1.69768 1.36297 0.559886 1.43456e-06 0.000371787 
0 -86.8999 -15.68 0.0116901 -86.6639 -16.2979 1 1895 128 0.155709 0.242599 0.00974058 4.18522e-07 8.81149e-05 
0 -77.6086 -12.0341 0.0731609 -78.7056 -12.5509 1 1850 753 -0.380222 0.199651 -0.754815 8.16808e-07 0.000183557 
0 -94.0283 -18.764 -0.0179032 -93.9078 -19.0552 1 1894 271 1.35508 2.30601 0.970316 1.52127e-06 0.00040533 
0 -100.745 -21.4039 -0.00431509 -100.588 -21.8126 1 1894 456 2.06789 1.47296 0.882757 1.55318e-06 0.000418415 
0 -97.3084 -19.8824 0.0161924 -97.0091 -20.5623 1 1894 706 0.252837 0.440437 0.133055 6.06835e-07 0.00013154 
0 -80.1972 -12.5856 -0.0815963 -79.807 -13.4904 1 1857 1161 -0.573077 0.302687 0.0869539 6.93424e-07 0.000152484 
0 -78.9951 -11.9173 0.0731609 -78.7056 -12.5509 1 1857 753 -1.21743 2.48331 -0.0613875 1.5235e-06 0.000406231 
0 -85.0628 -14.5543 0.0555829 -84.7549 -15.2888 1 1857 395 -1.03628 1.53656 -0.133764 1.25965e-06 0.000311082 
0 -82.4032 -13.4328 -0.0066135 -82.074 -14.256 1 1857 2160 -0.997555 0.794072 0.471538 1.10082e-06 0.000261857 
0 -90.5904 -16.701 -0.0147587 -90.2492 -17.5268 1 1857 208 -1.34143 0.78486 0.468164 1.18183e-06 0.000286373 
0 -86.9635 -15.5288 0.0116901 -86.6639 -16.2979 1 1857 128 -0.330322 0.75036 0.429868 8.85141e-07 0.000201459 
0 -94.2638 -18.204 -0.0179032 -93.9078 -19.0552 1 1857 271 -0.547569 0.25294 0.263914 6.94953e-07 0.00015286 
0 -100.92 -20.987 -0.00431509 -100.588 -21.8126 1 1857 456 -1.23963 0.633605 0.294234 1.0834e-06 0.000256729 
0 -97.3289 -19.8337 0.0161924 -97.0091 -20.5623 1 1857 706 -0.864315 1.32555 0.380385 1.22425e-06 0.000299689 
0 -79.1743 -13.648 -0.0102624 -78.819 -14.4401 1 1857 572 -1.46782 0.980471 0.436832 1.26391e-06 0.000312469 
0 -87.8481 -16.8382 -0.0605897 -87.5408 -17.5578 1 1857 64 -1.83896 1.42075 0.639813 1.46313e-06 0.000382543 
0 -93.4841 -19.0876 0.0151605 -93.2041 -19.7901 1 1857 999 -1.94953 1.6735 0.177815 1.4925e-06 0.000393894 
0 -89.9214 -17.925 -0.0557323 -89.6039 -18.754 1 1857 1635 -1.15204 0.690878 0.595716 1.12329e-06 0.000268543 
0 -99.3002 -21.3979 0.0479968 -98.991 -22.0735 1 1857 167 -1.32542 1.7489 0.213077 1.40815e-06 0.00036208 
0 -101.452 -22.8317 0.00888601 -101.167 -23.5278 1 1857 825 -0.811947 1.4634 0.447263 1.26024e-06 0.000311275 
0 -84.981 -17.2102 0.0958443 -84.7033 -17.8318 1 1857 1406 -0.579352 1.75164 0.220935 1.26428e-06 0.000312591 
0 -94.9815 -20.6918 0.0277374 -94.6764 -21.3346 1 1857 342 -0.569357 1.81035 0.364967 1.29586e-06 0.000323014 
0 -99.2999 -22.8985 0.0256732 -98.7927 -23.501 1 1857 577 -1.22336 1.39545 -0.269175 1.24757e-06 0.000307166 
0 -95.9687 -22.115 -0.059761 -95.6593 -22.9391 1 1857 3126 -0.932697 0.727444 0.651022 1.0874e-06 0.000257902 
0 -86.1568 -18.5758 -0.112404 -85.8453 -19.3852 1 1857 2473 -1.20714 0.744014 0.912729 1.19604e-06 0.000290796 
0 -92.0415 -22.5734 -0.00938325 -91.747 -23.253 1 1857 2346 -0.857297 1.52334 0.379 1.27891e-06 0.000317393 
0 -93.9296 -24.1357 -0.313655 -93.063 -24.559 1 1857 3002 -0.458127 1.63159 0.496139 1.2504e-06 0.000308079 
0 -91.4966 -24.482 -0.21707 -90.7902 -25.0053 1 1857 2304 -0.764277 1.50356 0.556869 1.28305e-06 0.00031876 