ITEM: TIMESTEP
18550000
ITEM: NUMBER OF ENTRIES
486
ITEM: BOX BOUNDS ff ff ff
-0.01 0.45
-0.15 0.15
-0.08 0.1
ITEM: ENTRIES c_pwc[1] c_pwc[2] c_pwc[3] 
0 918 1271 
0 796 1271 
0 794 1271 
0 850 1707 
0 850 41 
0 850 480 
0 850 286 
0 885 1707 
0 885 41 
0 885 480 
0 884 49 
0 884 2 
0 884 727 
0 884 286 
0 854 2022 
0 854 805 
0 855 1586 
0 895 914 
0 884 1270 
0 884 2214 
0 884 1236 
0 884 1138 
0 884 1306 
0 854 290 
0 854 586 
0 854 1427 
0 854 1696 
0 854 1925 
0 854 1634 
0 854 264 
0 854 2255 
0 854 1304 
0 854 693 
0 852 250 
0 852 1449 
0 852 450 
0 852 1300 
0 852 323 
0 852 1093 
0 852 1690 
0 852 1261 
0 852 895 
0 855 1349 
0 894 998 
0 894 2066 
0 894 1583 
0 894 1083 
0 894 1162 
0 894 1071 
0 894 602 
0 894 1327 
0 894 1725 
0 855 1838 
0 855 133 
0 854 690 
0 854 2218 
0 854 1780 
0 932 782 
0 952 1475 
1 514 2070 
1 1851 2070 
1 1852 2070 
1 516 2070 
1 485 2070 
1 1856 2070 
1 486 2070 
1 517 2070 
1 1879 2070 
1 2707 1377 
1 137 1377 
1 138 1377 
1 2721 1377 
1 134 1377 
1 136 1377 
1 2722 1377 
1 120 1377 
1 2650 1377 
1 123 1377 
1 125 1377 
1 124 1377 
1 2649 1377 
1 126 1377 
1 2647 1377 
1 92 2045 
1 2644 1377 
1 91 2045 
1 2702 1377 
1 2672 1377 
1 2703 1377 
1 2673 1377 
1 2674 1377 
1 2724 1377 
1 63 2045 
1 86 2045 
1 85 2045 
1 2726 1377 
0 885 270 
0 885 969 
0 885 48 
0 885 127 
0 885 52 
0 885 908 
0 885 276 
0 885 352 
0 885 6 
0 885 351 
0 885 45 
0 885 39 
0 850 270 
0 850 969 
0 850 48 
0 850 127 
0 850 52 
0 850 908 
0 850 276 
0 850 352 
0 850 6 
0 850 351 
0 850 45 
0 851 39 
0 895 1834 
0 895 1321 
0 895 965 
0 895 214 
0 853 570 
0 853 743 
0 853 225 
0 853 283 
0 853 456 
0 853 2125 
0 853 1081 
0 853 2140 
0 884 788 
0 884 1094 
0 884 2059 
0 850 788 
0 852 708 
0 894 954 
0 894 2115 
0 894 749 
0 894 1467 
0 894 385 
0 894 1894 
0 894 887 
0 894 936 
0 894 716 
0 895 2143 
0 895 1727 
0 895 2055 
0 895 1735 
0 895 747 
0 895 1524 
0 895 1474 
0 929 1085 
0 944 274 
0 927 999 
0 925 1893 
0 923 2303 
0 949 2305 
1 481 146 
1 497 146 
1 483 146 
1 547 417 
1 545 417 
1 1885 417 
1 1865 417 
1 1866 417 
1 526 417 
1 1893 417 
1 541 417 
1 546 417 
1 1868 417 
1 524 417 
1 523 417 
1 544 417 
1 519 417 
1 1888 417 
1 1829 417 
1 1871 417 
1 1835 417 
1 1834 417 
1 1887 417 
1 1870 417 
1 1836 417 
1 1869 417 
1 1837 417 
1 1831 417 
1 1842 417 
1 1830 417 
0 961 1029 
0 961 1087 
0 961 40 
0 957 1316 
0 955 1221 
0 955 1687 
0 759 1221 
0 753 1029 
0 753 1087 
0 753 40 
0 886 15 
0 885 15 
0 850 15 
0 888 1580 
0 888 2034 
0 888 2086 
0 888 470 
0 888 2168 
0 888 1612 
0 888 807 
0 888 1073 
0 888 578 
0 888 2158 
0 888 1456 
0 888 2110 
0 886 1631 
0 885 1903 
0 891 2167 
0 891 2185 
0 893 1581 
0 892 1200 
0 888 2079 
0 888 1711 
0 888 1837 
0 888 1025 
0 888 1717 
0 888 1647 
0 888 959 
0 379 1695 
0 375 2311 
0 391 320 
0 387 23 
0 373 294 
0 399 226 
0 433 353 
0 365 1114 
0 403 1968 
0 386 943 
0 380 1010 
0 376 1090 
0 376 1751 
0 383 1403 
0 394 1981 
0 392 657 
0 390 1143 
0 370 1459 
0 364 2266 
0 367 38 
0 367 1408 
0 374 445 
0 396 153 
0 397 665 
0 432 98 
0 437 140 
0 433 2108 
0 410 507 
0 409 2007 
0 409 2261 
0 407 1412 
0 430 551 
0 428 2293 
0 426 2232 
0 424 2317 
1 1718 2232 
0 416 78 
0 416 1990 
0 411 2295 
0 537 263 
0 527 221 
0 376 1157 
0 376 103 
0 545 661 
0 541 520 
0 392 2249 
0 519 2073 
0 519 223 
0 518 1698 
0 370 1429 
0 368 441 
0 368 464 
0 364 881 
0 374 1242 
0 549 1194 
0 400 109 
0 398 855 
0 398 2186 
0 589 259 
0 589 733 
0 517 347 
0 448 414 
0 438 1460 
0 434 414 
0 561 2175 
0 559 499 
0 559 2139 
0 557 2224 
0 555 1830 
0 478 834 
0 406 1957 
0 404 834 
0 404 1946 
1 2546 1322 
0 575 1635 
0 563 1356 
0 418 513 
0 412 2135 
0 537 876 
0 533 1648 
0 533 1164 
0 529 996 
0 534 297 
0 545 378 
0 543 88 
0 541 506 
0 539 2071 
0 544 1473 
0 525 1067 
0 523 1184 
0 523 1386 
0 521 1439 
0 519 579 
0 551 1803 
0 547 1753 
0 552 810 
0 587 1842 
0 587 22 
0 583 558 
0 557 1037 
0 557 1519 
0 555 596 
0 555 2124 
0 562 1933 
0 577 1003 
0 575 1864 
0 582 169 
0 569 975 
0 569 370 
0 569 1139 
0 563 977 
0 534 864 
0 534 1749 
0 530 134 
0 528 277 
0 533 291 
0 531 174 
0 546 234 
0 546 817 
0 544 1758 
0 542 624 
0 540 1793 
0 539 1002 
0 522 851 
0 522 1940 
0 523 217 
0 526 335 
0 554 797 
0 553 1431 
0 547 1406 
0 588 68 
0 584 34 
0 562 2020 
0 560 160 
0 560 622 
0 560 119 
0 558 1463 
0 556 571 
0 559 62 
0 557 1463 
0 582 896 
0 576 1434 
0 568 279 
0 568 155 
0 566 669 
0 569 610 
0 571 1970 
0 1061 1191 
0 1055 2061 
0 1053 973 
0 530 2031 
0 528 611 
0 1071 281 
0 1071 315 
0 1069 846 
0 1051 614 
0 1049 1666 
0 1047 337 
0 1045 189 
0 1045 1941 
0 1045 57 
0 1044 1537 
0 1044 1373 
0 520 1693 
0 1043 1373 
0 1073 712 
0 1073 1784 
0 1111 546 
0 1111 1244 
0 1111 950 
0 558 948 
0 1107 667 
0 1099 1397 
0 1097 847 
0 1097 424 
0 1095 532 
0 1089 946 
0 1089 367 
0 1097 2062 
0 1059 219 
0 1057 593 
0 1053 822 
0 1070 139 
0 1069 1881 
0 1051 235 
0 1050 736 
0 1048 8 
0 1048 408 
0 1047 122 
0 1047 86 
0 1080 1843 
0 1076 31 
0 1073 1920 
0 1112 2035 
0 1087 1365 
0 1083 97 
0 1107 124 
0 1105 341 
0 1103 1378 
0 1102 1461 
0 1101 2051 
0 1101 686 
0 1099 220 
0 1095 1528 
0 1093 1307 
0 1092 528 
0 1090 292 
0 1253 694 
0 1062 1538 
0 1060 1599 
0 1058 2177 
0 1058 694 
0 1054 1240 
0 1072 982 
0 1072 1308 
0 1070 2200 
0 1068 412 
0 1068 87 
1 2219 412 
0 1050 983 
0 1048 11 
0 1042 173 
0 1043 173 
0 1303 1857 
0 1303 476 
0 1076 504 
0 1076 191 
0 1269 1815 
0 1116 66 
0 1325 2223 
0 1106 1405 
0 1096 1001 
0 1095 159 
0 1092 461 
0 1090 725 
0 1287 330 
0 1285 115 
0 1279 1288 
0 1295 35 
0 1293 99 
0 1293 358 
0 1277 431 
0 1277 282 
0 1276 1656 
0 1275 613 
0 1275 2046 
1 1413 613 
0 1299 1777 
0 1313 1562 
0 1335 1741 
0 1331 1022 
0 1325 1570 
0 1284 1636 
0 125 428 
0 124 202 
0 105 971 
0 144 1052 
0 123 556 
0 130 1269 
