ITEM: TIMESTEP
4300000
ITEM: NUMBER OF ENTRIES
149
ITEM: BOX BOUNDS ff ff ff
-0.01 0.45
-0.15 0.15
-0.08 0.1
ITEM: ENTRIES c_pwc[1] c_pwc[2] c_pwc[3] 
0 936 269 
0 857 213 
0 960 125 
0 850 41 
0 885 41 
0 854 417 
0 936 318 
0 928 498 
1 529 146 
1 530 146 
1 1842 146 
1 1826 146 
1 1831 146 
1 1828 146 
1 1827 146 
1 1830 146 
1 1861 146 
1 1874 146 
1 1883 146 
1 1873 146 
1 526 146 
1 541 146 
1 527 146 
1 523 146 
1 1869 146 
1 1871 146 
1 1868 146 
1 1892 146 
1 1885 146 
1 1893 146 
0 885 270 
0 885 48 
0 885 127 
0 885 52 
0 885 276 
0 885 351 
0 885 79 
0 885 39 
0 850 270 
0 850 48 
0 850 127 
0 850 52 
0 850 276 
0 850 351 
0 850 79 
0 851 39 
0 894 235 
0 894 194 
0 852 1 
0 953 501 
0 401 501 
0 961 40 
0 957 478 
0 753 40 
0 886 15 
0 885 15 
0 850 15 
0 898 34 
0 379 215 
0 377 497 
0 389 104 
0 369 445 
0 399 353 
0 397 326 
0 435 461 
0 403 486 
0 386 150 
0 381 258 
0 381 135 
0 369 376 
0 398 529 
0 396 24 
0 432 227 
0 404 177 
0 403 120 
0 426 137 
0 414 506 
0 386 409 
0 386 307 
0 374 38 
1 1322 298 
1 1323 298 
1 1324 298 
0 545 155 
0 539 32 
0 394 99 
0 392 429 
0 390 148 
0 523 30 
0 402 228 
0 400 33 
0 438 223 
0 434 101 
0 432 366 
0 557 473 
0 555 142 
0 410 302 
0 577 226 
0 571 279 
0 414 114 
1 2546 398 
0 535 153 
0 531 169 
0 539 234 
0 550 335 
0 585 90 
0 583 98 
0 561 76 
0 559 421 
0 557 78 
0 555 327 
0 555 219 
0 560 358 
0 581 22 
0 579 10 
0 573 256 
0 580 422 
0 565 163 
0 565 247 
0 563 232 
0 530 91 
0 546 413 
0 544 151 
0 524 187 
0 516 136 
0 552 251 
0 548 36 
0 553 152 
0 553 320 
0 584 360 
0 587 379 
0 585 330 
0 560 85 
0 560 124 
0 558 100 
0 563 363 
0 534 71 
0 1047 158 
0 520 304 
0 1079 259 
0 1115 162 
0 1105 214 
0 1062 109 
0 1060 50 
0 1054 265 
0 1051 13 
0 1085 248 
0 1089 160 
0 1095 106 
