ITEM: TIMESTEP
5950000
ITEM: NUMBER OF ENTRIES
2027
ITEM: BOX BOUNDS ff ff ff
-0.01 0.45
-0.15 0.15
-0.08 0.1
ITEM: ENTRIES c_pwc[1] c_pwc[2] c_pwc[3] c_pwc[4] c_pwc[5] c_pwc[6] c_pwc[7] c_pwc[8] c_pwc[9] c_pwc[10] c_pwc[11] c_pwc[12] c_pwc[13] c_pwc[14] 
0 0 0 11.8725 -46.5143 23.3184 0 924 3692 0.0650176 0.0692016 0.113078 2.79382e-07 5.76591e-05 
0 0 0 -0.0817228 -0.0122456 0.0654944 0 778 8455 5.168e-06 1.01184e-05 2.26005e-06 5.19014e-10 1.03261e-07 
0 0 0 -0.00787852 -0.00562769 0.0301047 0 778 11208 5.208e-13 1.0397e-05 1.38276e-06 5.23278e-10 1.0411e-07 
0 0 0 -0.037482 -0.00114198 0.00610903 0 778 10360 2.25429e-18 1.02659e-05 1.35713e-06 5.18851e-10 1.03229e-07 
0 0 0 0.000531003 -0.00216955 0.0116061 0 778 9279 -2.32423e-19 1.02659e-05 1.35713e-06 5.18851e-10 1.03229e-07 
0 0 0 0.00399467 -0.0260629 0.136452 0 778 8128 1.00156e-06 2.30004e-05 -6.54149e-06 7.37871e-10 1.46808e-07 
0 0 0 0.00549248 -0.00100552 0.00524321 0 778 9160 1.42504e-07 9.9506e-06 1.40798e-06 5.03303e-10 1.00135e-07 
0 0 0 -0.00793148 -0.00400638 0.0214905 0 778 4164 2.08944e-05 1.0913e-05 -3.05599e-06 5.15319e-10 1.02526e-07 
0 0 0 0.0615578 -0.00757395 0.0379331 0 778 10156 -3.99047e-05 1.29145e-05 2.3081e-05 6.26083e-10 1.24565e-07 
0 0 0 0.00535283 0.00112186 0.0206523 0 776 5540 -2.63399e-07 1.76716e-05 -8.83187e-06 9.63513e-10 1.91708e-07 
0 0 0 0.00231866 -4.60659e-11 -0.000909283 0 776 1200 -2.77817e-17 1.05196e-05 1.09139e-17 5.24825e-10 1.04417e-07 
0 0 0 -2.17267e-05 -1.92533e-08 -0.000426864 0 776 1871 2.16937e-16 1.05196e-05 2.27827e-15 5.24821e-10 1.04417e-07 
0 0 0 0.000756646 7.76256e-05 -0.000678482 0 776 206 1.97577e-08 1.13893e-05 7.07335e-07 5.69944e-10 1.13395e-07 
0 0 0 0.000395447 -0.000117325 -0.000391966 0 776 1972 -2.08157e-07 1.15811e-05 2.81309e-06 5.34575e-10 1.06357e-07 
0 0 0 5.2102e-05 -5.29522e-05 -0.000450394 0 776 733 1.61601e-06 1.35417e-05 4.52817e-06 6.10061e-10 1.21377e-07 
0 0 0 0.000473797 2.83031e-12 -0.00150037 0 776 9680 -6.18268e-20 1.05196e-05 -1.49747e-19 5.24825e-10 1.04417e-07 
0 0 0 -0.000274521 7.06063e-10 -0.00110578 0 776 414 -4.3712e-17 1.05195e-05 -2.1553e-16 5.24824e-10 1.04417e-07 
0 0 0 -0.00037115 8.28167e-05 -0.00243773 0 776 690 3.70375e-08 1.05145e-05 6.25034e-08 5.42579e-10 1.0795e-07 
0 0 0 -0.000135791 -9.13864e-05 -0.000312353 0 776 1894 -1.55094e-06 5.93493e-06 4.83028e-06 3.36591e-10 6.69654e-08 
0 0 0 0.000296375 -0.000320765 -0.000740727 0 776 210 -1.54958e-06 1.55943e-05 6.25746e-06 6.17336e-10 1.22825e-07 
0 0 0 0.00165587 3.25364e-12 -0.000816165 0 776 1225 -4.65077e-19 1.05196e-05 2.31453e-19 5.24825e-10 1.04417e-07 
0 0 0 -0.00206587 -2.64416e-05 -0.00137534 0 776 280 -1.47952e-07 1.23027e-05 2.01584e-06 5.76994e-10 1.14797e-07 
0 0 0 0.000138574 -1.93505e-08 -0.000308517 0 776 3512 2.42845e-11 1.05196e-05 -5.21356e-12 5.24822e-10 1.04417e-07 
0 0 0 -0.000185334 2.37256e-05 -8.03113e-05 0 776 101 8.37751e-07 1.10689e-05 -1.27619e-07 5.48029e-10 1.09034e-07 
0 0 0 -6.09309e-05 4.44091e-12 -0.000529946 0 776 317 9.40086e-21 1.05196e-05 2.87245e-20 5.24825e-10 1.04417e-07 
0 0 0 -0.000700568 -7.73935e-08 0.0030043 0 776 1705 6.34189e-14 1.05178e-05 -3.07661e-13 5.2475e-10 1.04403e-07 
0 0 0 -0.000125982 -6.83854e-12 0.00315324 0 776 2352 4.43417e-21 1.05196e-05 -2.99985e-19 5.24825e-10 1.04417e-07 
0 0 0 0.000139107 -0.000105827 -0.00343071 0 776 9269 3.19326e-06 1.25916e-05 1.83426e-06 5.69425e-10 1.13292e-07 
0 0 0 -0.00305228 -6.194e-12 -0.00313532 0 776 6408 -2.99487e-19 1.05196e-05 -3.02135e-19 5.24825e-10 1.04417e-07 
0 0 0 3.30041e-06 1.9194e-08 -0.000156746 0 776 553 -3.01541e-11 1.05195e-05 -1.42241e-12 5.24827e-10 1.04418e-07 
0 0 0 -1.66443e-05 5.14952e-05 -0.000171945 0 776 585 1.02072e-06 1.10527e-05 -7.38007e-07 5.53464e-10 1.10116e-07 
0 0 0 -0.00164079 1.85657e-05 -0.000694172 0 776 531 3.90901e-07 1.20684e-05 1.68592e-06 5.79074e-10 1.15211e-07 
0 0 0 -0.00349041 7.52917e-05 0.00391383 0 776 4634 9.67167e-07 8.12994e-06 -3.05e-07 4.58999e-10 9.13202e-08 
0 0 0 -0.0024158 -5.87173e-12 0.00263819 0 776 6702 -3.02139e-19 1.05196e-05 1.67266e-19 5.24825e-10 1.04417e-07 
0 0 0 -5.67952e-05 4.24904e-05 -0.000299521 0 776 1002 -1.52191e-06 7.02818e-06 5.41623e-07 4.10934e-10 8.17569e-08 
0 0 0 5.36397e-05 -1.0733e-05 -1.10515e-05 0 776 2069 8.68232e-09 1.04261e-05 2.35863e-07 5.19384e-10 1.03335e-07 
0 0 0 -0.00172866 2.58843e-05 -0.000606577 0 776 2116 -1.04867e-06 1.65612e-05 7.90776e-06 7.15425e-10 1.42342e-07 
0 0 0 0.000824437 2.269e-05 0.000165425 0 776 4185 -1.01795e-06 9.78213e-06 -1.34347e-07 5.04974e-10 1.00468e-07 
0 0 0 0.000915822 -8.05082e-05 0.000358834 0 776 72 -1.82401e-06 1.33037e-05 1.30591e-06 5.96996e-10 1.18777e-07 
0 0 0 0.00154153 1.74391e-05 0.00103653 0 776 1470 2.16498e-08 1.06254e-05 5.23802e-08 5.32107e-10 1.05866e-07 
0 0 0 0.00185767 -1.42103e-05 0.00129378 0 776 154 -1.46381e-08 1.04437e-05 -2.50046e-08 5.1922e-10 1.03302e-07 
0 0 0 -0.000725384 1.72342e-10 -0.000268279 0 776 3087 -3.51118e-17 1.05196e-05 -1.29887e-17 5.24825e-10 1.04417e-07 
0 0 0 -0.000970166 -7.46274e-05 -0.00205925 0 776 3983 -1.30381e-06 1.23054e-05 8.11929e-07 5.66919e-10 1.12793e-07 
0 0 0 0.000878356 5.26127e-05 -0.000235775 0 776 4165 5.9959e-08 8.96385e-06 -7.93502e-08 4.83412e-10 9.61775e-08 
0 0 0 0.000473747 -3.05153e-05 -0.000159721 0 776 1920 1.90479e-09 1.49934e-05 1.41676e-06 6.58449e-10 1.31005e-07 
0 0 0 -0.00291107 -0.000198759 -0.000218713 0 776 4248 2.11376e-06 1.38335e-05 -6.2641e-06 5.88852e-10 1.17157e-07 
0 0 0 -0.000707 3.07085e-05 -0.00139348 0 776 9639 -1.29412e-07 1.08834e-05 1.516e-07 5.43465e-10 1.08126e-07 
0 0 0 0.00223026 6.49393e-06 0.00163824 0 776 4095 2.51093e-11 1.03279e-05 1.03091e-10 5.19842e-10 1.03426e-07 
0 0 0 -0.00124875 -7.04624e-05 0.000381242 0 776 18 3.47289e-06 7.53512e-06 -1.46066e-06 4.04039e-10 8.0385e-08 
0 0 0 0.0056745 -5.78924e-06 0.00386662 0 776 3427 -6.21156e-12 1.04843e-05 -2.93828e-11 5.22398e-10 1.03935e-07 
0 0 0 0.00220035 4.7545e-07 0.00196098 0 776 4938 -6.51493e-08 1.06822e-05 1.24154e-07 5.30322e-10 1.05511e-07 
0 0 0 0.00358136 -0.000100142 0.00616456 0 776 4532 4.91608e-06 1.29785e-05 -4.23583e-06 5.82782e-10 1.15949e-07 
0 0 0 0.00882186 3.31297e-12 -0.00234774 0 776 1036 1.19524e-18 1.05196e-05 3.02154e-19 5.24825e-10 1.04417e-07 
0 0 0 0.00625471 -6.6774e-12 0.00531679 0 776 1367 2.26754e-19 1.05196e-05 6.04272e-19 5.24825e-10 1.04417e-07 
0 0 0 0.00434924 -0.00033338 0.00675581 0 776 1890 1.14656e-05 3.65634e-05 -1.42394e-05 1.14553e-09 2.27929e-07 
0 0 0 0.00414833 -4.42151e-12 0.00576956 0 776 9210 -4.50723e-19 1.05196e-05 5.99011e-19 5.24825e-10 1.04417e-07 
0 0 0 0.0140131 -1.68222e-12 0.00631547 0 776 5900 -1.93913e-18 1.05196e-05 4.7032e-19 5.24825e-10 1.04417e-07 
0 0 0 0.00259321 0.000105086 0.0376894 0 776 3491 -2.81459e-05 1.29497e-05 -0.000208871 6.24784e-10 1.24307e-07 
0 0 0 0.010334 6.53567e-12 0.0116752 0 776 6574 -8.97203e-19 1.05196e-05 -9.09132e-19 5.24825e-10 1.04417e-07 
0 0 0 0.00969495 -0.00129933 0.0217688 0 776 5313 5.07398e-06 0.000120054 -5.98121e-05 2.47234e-09 4.92008e-07 
0 0 0 0.00967682 0.000322624 0.0135694 0 776 2966 -1.52717e-05 6.73957e-06 -1.63174e-05 4.65126e-10 9.25392e-08 
0 0 0 -0.0197568 -2.53986e-12 0.0126809 0 776 8439 7.21165e-18 1.05196e-05 -5.26653e-18 5.24825e-10 1.04417e-07 
0 0 0 0.0131221 2.34616e-12 0.0142429 0 776 6493 2.20871e-18 1.05196e-05 -7.15195e-20 5.24825e-10 1.04417e-07 
0 0 0 0.00406961 -1.68222e-12 0.00559223 0 776 4298 -1.45635e-19 1.05196e-05 5.99023e-19 5.24825e-10 1.04417e-07 
0 0 0 -0.017191 2.16017e-08 9.04602e-05 0 776 1039 -1.07836e-13 1.05178e-05 5.97601e-16 5.2477e-10 1.04406e-07 
0 0 0 -0.00425312 0.000220166 -0.00486252 0 776 604 -1.39685e-06 1.01105e-05 -2.59593e-07 5.59075e-10 1.11232e-07 
0 0 0 -0.014517 -2.79545e-12 -0.00482473 0 776 5191 -6.32137e-18 1.05196e-05 -2.21015e-18 5.24825e-10 1.04417e-07 
0 0 0 0.0210678 0.00168781 0.00276729 0 776 3509 -9.75364e-06 1.97113e-05 1.41449e-06 1.12459e-09 2.23762e-07 
0 0 0 0.00446103 -5.38832e-12 0.00428304 0 776 316 5.98967e-19 1.05196e-05 5.99021e-19 5.24825e-10 1.04417e-07 
0 0 0 -0.0077007 0.000274468 -0.00210512 0 776 9120 -4.3944e-07 9.82955e-06 -1.15086e-06 5.61656e-10 1.11746e-07 
0 0 0 -0.00786058 -0.00107623 0.000257486 0 776 5729 7.81931e-07 4.5819e-05 7.16162e-07 1.21753e-09 2.42257e-07 
0 0 0 0.00745328 3.00032e-06 -0.00435223 0 776 398 -3.37845e-08 1.33804e-05 1.10601e-07 6.16731e-10 1.22704e-07 
0 0 0 -0.00230001 0.000313773 -0.00288277 0 776 1937 1.29126e-05 7.76991e-06 2.14079e-05 5.00183e-10 9.95144e-08 
0 0 0 0.00325565 3.01803e-06 -0.0306619 0 776 1223 2.74872e-12 1.05028e-05 -2.58875e-11 5.24921e-10 1.04437e-07 
0 0 0 3.25567e-05 -3.21488e-12 0.000281499 0 777 894 1.09887e-20 1.05196e-05 9.61275e-20 5.24825e-10 1.04417e-07 
0 0 0 -0.00408505 4.89456e-05 -0.0009155 0 777 8603 2.62179e-09 1.03404e-05 2.81904e-09 5.29473e-10 1.05342e-07 
0 0 0 0.0198856 5.08545e-12 0.000828135 0 777 5892 -2.41708e-18 1.05196e-05 9.66981e-20 5.24825e-10 1.04417e-07 
0 0 0 0.0111615 -4.58265e-12 0.0015527 0 777 634 -7.96507e-19 1.05196e-05 1.49763e-19 5.24825e-10 1.04417e-07 
0 0 0 0.0704777 -4.74378e-12 0.00309493 0 777 8382 -2.72977e-18 1.05196e-05 2.99519e-19 5.24825e-10 1.04417e-07 
0 0 0 0.0243629 -5.22719e-12 -0.00993666 0 777 7053 0 1.05196e-05 0 5.24825e-10 1.04417e-07 
0 0 0 0.00319554 -0.00110589 -0.00587555 0 775 12 3.03248e-08 1.00916e-05 -1.35305e-06 5.11461e-10 1.01758e-07 
0 0 0 0.00339483 0.000225211 0.000482519 0 775 6544 -4.78675e-08 1.0244e-05 -8.83977e-07 5.44068e-10 1.08246e-07 
0 0 0 -0.17201 0.0111094 0.0594286 0 775 4459 4.92752e-06 9.89297e-06 -3.48146e-06 5.19696e-10 1.03397e-07 
0 0 0 -0.172804 0.00999693 0.0534788 0 775 9818 -0.00210489 0.00010339 0.000496956 5.1798e-10 1.03055e-07 
0 0 0 0.000645033 0.000811907 0.0121168 0 838 7937 2.00019e-05 7.47813e-06 2.44856e-06 9.30746e-10 1.85187e-07 
0 0 0 5.2102e-05 -5.29522e-05 -0.000450394 0 832 733 1.16431e-06 1.72556e-08 -5.81897e-07 1.37252e-10 2.73058e-08 
0 0 0 0.000425096 -0.000160959 -0.000601877 0 774 2641 1.39565e-07 1.04564e-05 1.26713e-06 4.98553e-10 9.91902e-08 
0 0 0 0.00136956 -0.000119923 -0.00103629 0 774 5113 -3.75024e-08 8.7839e-06 -8.21872e-07 4.81612e-10 9.58193e-08 
0 0 0 -0.00727653 -0.00242327 -0.0129634 0 774 4325 4.72611e-19 1.02659e-05 -1.35713e-06 5.18851e-10 1.03229e-07 
0 0 0 -0.0018739 -0.000311298 -0.00306193 0 774 3865 1.60574e-06 5.593e-06 1.0967e-06 3.94333e-10 7.84538e-08 
0 0 0 -0.0107577 0.000689808 -0.00448208 0 774 1165 3.11279e-05 6.85001e-05 1.95594e-07 2.0466e-09 4.07262e-07 
0 0 0 -0.00433988 -0.00276626 -0.0045711 0 774 2858 -3.31761e-06 8.84159e-05 2.51895e-05 1.77937e-09 3.54074e-07 
0 0 0 0.00436207 -0.00144711 -0.00812157 0 774 3869 5.1003e-07 9.98675e-06 -1.23219e-06 5.24096e-10 1.04272e-07 
0 0 0 0.00107561 -9.11122e-05 -0.000236236 0 774 6076 -1.93567e-05 1.10241e-05 -5.44463e-06 5.57972e-10 1.11013e-07 
0 0 0 0.0734124 -0.0137287 -0.073442 0 774 3877 6.12001e-18 1.02659e-05 -1.35713e-06 5.18851e-10 1.03229e-07 
0 0 0 0.0176632 0.000641133 0.00282048 0 774 9650 5.15712e-09 1.00906e-05 -1.32576e-06 5.37245e-10 1.06889e-07 
0 0 0 -4.46816e-05 -0.0018445 -0.00986719 0 774 5875 1.02142e-19 1.02659e-05 -1.35713e-06 5.18851e-10 1.03229e-07 
0 0 0 -0.0016179 -0.00487599 -0.0260842 0 774 8267 1.53044e-19 1.02659e-05 -1.35713e-06 5.18851e-10 1.03229e-07 
0 0 0 0.0538436 -0.0182979 -0.0978849 0 774 8682 -3.11474e-18 1.02659e-05 -1.35713e-06 5.18851e-10 1.03229e-07 
0 0 0 0.0414999 -0.0538399 -0.138977 0 772 3081 3.97907e-18 9.53905e-06 -2.53098e-06 5.00925e-10 9.96621e-08 
0 0 0 5.96312e-33 -9.64991e-21 2.36059e-12 0 884 5230 -2.09864e-34 5.25978e-06 -1.62002 1.22522e-06 0.0003 
0 0 0 -0.0391078 -0.0437631 -0.0883471 0 884 8392 0.000776081 -0.00121312 0.00262892 1.32617e-08 2.6427e-06 
0 0 0 0.000848042 -0.0209468 -0.0027956 0 884 148 5.61307e-06 5.96094e-05 0.000119746 2.25242e-09 4.4823e-07 
0 0 0 3.62096e-302 6.60917e-20 1.18143e-12 0 884 3064 1.04226e-306 5.25978e-06 -1.62002 1.22522e-06 0.0003 
0 0 0 4.29875e-302 -1.8635e-20 -2.36058e-12 0 884 871 1.07195e-306 5.25978e-06 -1.62002 1.22522e-06 0.0003 
0 0 0 -1.93705e-302 -8.49626e-20 -5.89788e-12 0 884 1962 9.47381e-307 5.25978e-06 -1.62002 1.22522e-06 0.0003 
0 0 0 1.94493e-17 -4.82036e-17 -3.53921e-12 0 884 2565 -0.00131445 -0.00726209 -1.62111 1.22564e-06 0.000300134 
0 0 0 3.9233e-302 8.4748e-20 1.18149e-12 0 884 7394 4.85654e-307 5.25978e-06 -1.62002 1.22522e-06 0.0003 
0 0 0 2.03771e-302 9.31921e-21 -4.72348e-12 0 884 3089 8.40115e-307 5.25978e-06 -1.62002 1.22522e-06 0.0003 
0 0 0 1.22658e-234 6.58611e-20 1.18148e-12 0 884 7839 -6.39327e-236 5.25978e-06 -1.62002 1.22522e-06 0.0003 
0 0 0 0.00951065 -0.00508313 -0.023996 0 884 1652 0.000518065 -0.000197864 0.000303536 2.08203e-09 4.14315e-07 
0 0 0 9.10757e-38 -3.78003e-20 -4.72349e-12 0 884 5274 -3.45118e-39 5.25978e-06 -1.62002 1.22522e-06 0.0003 
0 0 0 6.55439e-16 3.18335e-17 -1.77107e-12 0 884 2130 0.0734483 0.00408918 -1.63223 1.22994e-06 0.000301505 
0 0 0 0.00275678 0.00545284 0.00211993 0 884 5699 -4.03827e-06 -7.24703e-07 -8.20556e-06 2.25628e-10 4.48886e-08 
0 0 0 -5.11191e-16 -3.34069e-17 -1.7709e-12 0 884 4708 -0.0455846 -0.00252936 -1.60784 1.22049e-06 0.000298495 
0 0 0 -9.08893e-14 7.53594e-20 3.62894e-303 0 863 2723 -1.62002 5.25978e-06 -6.20388e-307 1.22522e-06 0.0003 
0 0 0 1.63037e-14 4.72763e-20 -1.59719e-302 0 862 444 -1.62002 5.25978e-06 -8.44422e-307 1.22522e-06 0.0003 
0 0 0 -5.8147e-14 9.5374e-21 2.16051e-302 0 862 927 -1.62002 5.25978e-06 8.55386e-307 1.22522e-06 0.0003 
0 0 0 1.57039 6.321 -9.75261 0 854 1599 0.0319934 -0.00663601 0.0145553 1.93041e-07 3.93732e-05 
0 0 0 0.0025012 -0.114822 0.213313 0 854 2086 0.000128584 5.7878e-05 2.79926e-05 3.14028e-09 6.24983e-07 
0 0 0 0.00149969 0.0347494 0.0496645 0 854 8701 0.00281714 0.000562687 -0.0012913 2.18744e-08 4.36368e-06 
0 0 0 0.00672158 -0.047801 0.157884 0 854 1308 -2.47386e-05 1.23653e-05 3.15228e-07 5.70506e-11 1.13499e-08 
0 0 0 -0.00996722 0.00776729 0.00444963 0 854 4354 0.000302798 0.000124038 -8.68111e-05 3.70074e-09 7.36579e-07 
0 0 0 0.0136592 -0.0569627 0.0902983 0 854 8768 -1.40441e-05 4.46928e-05 5.61608e-06 2.64647e-09 5.26673e-07 
0 0 0 -0.000702849 0.0515707 0.390517 0 854 9698 0.000185087 -0.00237452 -0.00198403 3.45472e-09 6.87591e-07 
0 0 0 0.0140455 -0.0796529 0.235164 0 854 9584 0.000237942 -4.49388e-05 8.38748e-05 5.98935e-09 1.19243e-06 
0 0 0 0.00103413 0.00321995 0.0223166 0 854 8838 1.67433e-05 -4.57578e-06 -7.01049e-06 9.21856e-10 1.83418e-07 
0 0 0 0.000940626 -0.0328487 -0.00775813 0 854 5061 0.000138767 3.80999e-05 5.79867e-05 3.0615e-09 6.09299e-07 
0 0 0 0.00137339 0.0178705 0.0227001 0 854 8624 0.000183783 -0.0002355 -0.000272775 3.71665e-09 7.39747e-07 
0 0 0 -0.00904755 0.3658 -0.104739 0 854 535 0.000866989 -0.00033765 0.000271865 8.99163e-09 1.79083e-06 
0 0 0 -0.0334785 0.0391743 0.0717476 0 854 1918 0.00160672 -6.90186e-05 -0.00080039 1.1854e-08 2.36177e-06 
0 0 0 8.10955e-06 -0.0253926 0.0229563 0 854 9743 5.82863e-05 2.60906e-05 -1.29848e-05 1.64443e-09 3.27215e-07 
0 0 0 -0.0118259 -0.00558783 0.0578555 0 854 6847 0.00044701 8.00152e-05 0.000208691 5.02196e-09 9.99711e-07 
0 0 0 0.0147194 -0.0322928 0.181366 0 854 7532 0.000291794 5.97415e-05 -0.000133105 6.62544e-09 1.31918e-06 
0 0 0 -0.000352887 0.0691397 -0.0217384 0 854 6217 2.78711e-05 -1.38988e-05 -1.01091e-06 9.39926e-10 1.87014e-07 
0 0 0 0.00231025 -0.02584 0.191691 0 854 10421 8.62338e-05 -6.62488e-05 -0.000340816 2.48482e-09 4.94491e-07 
0 0 0 0.0114773 -0.00275387 0.0046251 0 854 3215 0.000148045 -7.27466e-06 -5.80701e-05 4.64124e-09 9.23879e-07 
0 0 0 5.96312e-33 -9.64991e-21 2.36059e-12 0 850 5230 -2.09864e-34 5.25978e-06 1.62002 1.22522e-06 0.0003 
0 0 0 3.62096e-302 6.60917e-20 1.18143e-12 0 850 3064 -9.47919e-307 5.25978e-06 1.62002 1.22522e-06 0.0003 
0 0 0 -7.35024e-303 7.54069e-20 3.53499e-12 0 850 478 7.281e-307 5.25978e-06 1.62002 1.22522e-06 0.0003 
0 0 0 4.29875e-302 -1.8635e-20 -2.36058e-12 0 850 871 -9.77847e-307 5.25978e-06 1.62002 1.22522e-06 0.0003 
0 0 0 -1.93705e-302 -8.49626e-20 -5.89788e-12 0 850 1962 -8.54011e-307 5.25978e-06 1.62002 1.22522e-06 0.0003 
0 0 0 4.37495e-302 -6.60798e-20 -3.53504e-12 0 850 283 6.5208e-307 5.25978e-06 1.62002 1.22522e-06 0.0003 
0 0 0 -1.98028e-17 2.8988e-17 -3.53931e-12 0 850 6540 0.00131445 0.00727261 1.62111 1.22564e-06 0.000300134 
0 0 0 1.94493e-17 -4.82036e-17 -3.53921e-12 0 850 2565 -0.000844201 -0.00466216 1.61893 1.2248e-06 0.000299866 
0 0 0 2.61248e-17 2.91093e-18 1.7687e-12 0 850 5520 0.00155704 -0.00374605 1.62002 1.22522e-06 0.0003 
0 0 0 3.9233e-302 8.4748e-20 1.18149e-12 0 850 7394 -5.77793e-307 5.25978e-06 1.62002 1.22522e-06 0.0003 
0 0 0 3.38429e-228 1.88361e-20 -1.1814e-12 0 850 2321 1.20716e-229 5.25978e-06 1.62002 1.22522e-06 0.0003 
0 0 0 -2.63844e-17 -3.03938e-18 1.7687e-12 0 850 7581 -0.00155738 0.00375739 1.62002 1.22522e-06 0.0003 
0 0 0 0.00653717 0.000772436 -0.0339021 0 850 10198 0.008888 -0.000464791 1.61729 1.22353e-06 0.000299464 
0 0 0 2.03771e-302 9.31921e-21 -4.72348e-12 0 850 3089 -7.45115e-307 5.25978e-06 1.62002 1.22522e-06 0.0003 
0 0 0 -0.011816 0.248448 -0.22917 0 850 5323 -0.015922 -0.0013343 1.62681 1.22362e-06 0.00029949 
0 0 0 1.22658e-234 6.58611e-20 1.18148e-12 0 850 7839 -6.39327e-236 5.25978e-06 1.62002 1.22522e-06 0.0003 
0 0 0 3.85443e-302 2.84063e-20 -3.53505e-12 0 850 9691 -3.82684e-307 5.25978e-06 1.62002 1.22522e-06 0.0003 
0 0 0 -3.58179e-303 -4.65851e-20 2.16436e-15 0 850 1583 9.95785e-307 5.25978e-06 1.62002 1.22522e-06 0.0003 
0 0 0 3.69319e-302 -7.52966e-20 4.72345e-12 0 850 8195 -6.88093e-307 5.25978e-06 1.62002 1.22522e-06 0.0003 
0 0 0 9.10757e-38 -3.78003e-20 -4.72349e-12 0 850 5274 -3.45118e-39 5.25978e-06 1.62002 1.22522e-06 0.0003 
0 0 0 3.47144e-270 -8.49143e-20 3.53498e-12 0 850 10333 1.36659e-271 5.25978e-06 1.62002 1.22522e-06 0.0003 
0 0 0 6.55439e-16 3.18335e-17 -1.77107e-12 0 850 2130 0.0455846 0.00253987 1.60784 1.22049e-06 0.000298495 
0 0 0 -5.11191e-16 -3.34069e-17 -1.7709e-12 0 850 4708 -0.0734483 -0.00407865 1.63223 1.22994e-06 0.000301505 
0 0 0 1.63037e-14 4.72763e-20 -1.59719e-302 0 822 444 1.62002 5.25978e-06 7.51136e-307 1.22522e-06 0.0003 
0 0 0 -5.8147e-14 9.5374e-21 2.16051e-302 0 821 927 1.62002 5.25978e-06 -9.49502e-307 1.22522e-06 0.0003 
0 0 0 -9.08893e-14 7.53594e-20 3.62894e-303 0 821 2723 1.62002 5.25978e-06 7.15481e-307 1.22522e-06 0.0003 
0 0 0 -7.35024e-303 7.54069e-20 3.53499e-12 0 885 478 -8.21223e-307 5.25978e-06 -1.62002 1.22522e-06 0.0003 
0 0 0 4.37495e-302 -6.60798e-20 -3.53504e-12 0 885 283 -5.60287e-307 5.25978e-06 -1.62002 1.22522e-06 0.0003 
0 0 0 -1.98028e-17 2.8988e-17 -3.53931e-12 0 885 6540 0.000844201 0.00467268 -1.61893 1.2248e-06 0.000299866 
0 0 0 2.61248e-17 2.91093e-18 1.7687e-12 0 885 5520 0.00155738 -0.00374687 -1.62002 1.22522e-06 0.0003 
0 0 0 3.38429e-228 1.88361e-20 -1.1814e-12 0 885 2321 1.20716e-229 5.25978e-06 -1.62002 1.22522e-06 0.0003 
0 0 0 -2.63844e-17 -3.03938e-18 1.7687e-12 0 885 7581 -0.00155704 0.00375657 -1.62002 1.22522e-06 0.0003 
0 0 0 0.00653717 0.000772436 -0.0339021 0 885 10198 0.0142011 -0.000138932 -1.62275 1.22691e-06 0.000300536 
0 0 0 -0.011816 0.248448 -0.22917 0 885 5323 -0.00439766 -0.00230499 -1.61323 1.22682e-06 0.00030051 
0 0 0 3.85443e-302 2.84063e-20 -3.53505e-12 0 885 9691 4.74862e-307 5.25978e-06 -1.62002 1.22522e-06 0.0003 
0 0 0 -3.58179e-303 -4.65851e-20 2.16436e-15 0 885 1583 -1.08965e-306 5.25978e-06 -1.62002 1.22522e-06 0.0003 
0 0 0 3.69319e-302 -7.52966e-20 4.72345e-12 0 885 8195 5.93739e-307 5.25978e-06 -1.62002 1.22522e-06 0.0003 
0 0 0 3.47144e-270 -8.49143e-20 3.53498e-12 0 885 10333 1.36659e-271 5.25978e-06 -1.62002 1.22522e-06 0.0003 
0 0 0 0.0505639 -0.00856755 0.0370821 0 853 7660 -0.000236721 -0.00100331 5.39626e-05 1.18064e-08 2.35226e-06 
0 0 0 0.055329 -0.00528135 -0.0408868 0 853 1676 -0.000308362 -0.00151458 6.92758e-05 1.48896e-08 2.9677e-06 
0 0 0 0.0529996 -0.00845116 0.0445607 0 853 4015 8.67009e-05 -6.39663e-05 -3.67529e-05 3.07917e-09 6.12815e-07 
0 0 0 0.073497 0.000371927 0.0057873 0 853 9735 7.39804e-05 -0.000237881 -3.0594e-05 4.14709e-09 8.25464e-07 
0 0 0 0.0777796 0.0157627 0.0135887 0 853 6972 -0.000736074 -0.000122738 2.75494e-05 6.50361e-10 1.29396e-07 
0 0 0 0.0408438 0.00115389 0.00732431 0 853 7268 -4.06629e-06 -0.000141085 7.04253e-05 2.79979e-09 5.57194e-07 
0 0 0 0.0051433 -0.173318 -0.0397547 0 794 1798 -8.76982e-06 0.000166702 0.000428672 3.3252e-09 6.61802e-07 
0 0 0 0.0197793 -0.0097921 0.0217305 0 852 3171 0.000170774 1.9004e-07 -4.95109e-05 2.21327e-09 4.40438e-07 
0 0 0 0.0825446 -0.0329934 0.0228596 0 852 8743 3.42047e-05 -0.000149721 6.65894e-05 7.48232e-09 1.48995e-06 
0 0 0 -0.0240346 0.0139984 0.0415202 0 852 9666 -0.000258462 -7.13512e-05 0.000118091 1.75889e-10 3.49928e-08 
0 0 0 -0.0421884 0.00885405 0.0679539 0 852 3120 0.000242787 -0.00226747 -0.000409008 1.80453e-08 3.59809e-06 
0 0 0 -0.0175025 0.00402676 0.0638998 0 852 7284 7.99331e-05 -8.61816e-05 -0.000407432 1.52241e-09 3.02932e-07 
0 0 0 0.024371 -0.0227261 0.123409 0 852 9576 -0.000422622 -0.00200843 -0.000658059 1.94043e-08 3.86971e-06 
0 0 0 0.0268875 -0.00278697 0.0240234 0 852 7587 6.16453e-05 -0.000268951 0.000119513 4.90342e-09 9.761e-07 
0 0 0 0.132348 -0.0403716 0.0472555 0 852 9820 5.33638e-05 -0.000331732 8.39521e-05 1.00364e-08 1.99919e-06 
0 0 0 -0.0426577 0.0030427 0.0293909 0 852 4903 0.000277535 -0.0033176 -0.000706742 2.39935e-08 4.78768e-06 
0 0 0 -0.0641317 0.076446 0.229748 0 852 5375 -0.001043 -0.00215233 -0.000265104 1.14661e-08 2.28437e-06 
0 0 0 -0.0321093 -0.0473338 0.00627616 0 894 3942 -9.77914e-05 0.000675522 -0.000726951 8.15984e-09 1.625e-06 
0 0 0 0.000975479 -0.00356424 -0.0100871 0 894 4919 0.000296153 5.77596e-05 -0.00107715 1.24773e-08 2.48614e-06 
0 0 0 -0.00908519 -0.0463475 0.002531 0 894 6357 -2.25957e-05 1.86082e-05 -0.000128351 2.42027e-09 4.81642e-07 
0 0 0 0.00112047 -0.0585015 -0.00705789 0 894 8950 9.98698e-05 0.000102828 -0.00114373 1.26354e-08 2.5177e-06 
0 0 0 0.0202573 -0.0638479 -0.00318304 0 894 1497 1.65415e-06 3.13712e-06 7.09303e-06 6.60263e-10 1.31366e-07 
0 0 0 -0.0208138 0.00295911 -0.0105165 0 894 7722 5.26646e-06 5.88154e-05 -0.000113933 4.08068e-09 8.12237e-07 
0 0 0 -0.0119472 0.0298881 -0.0227422 0 894 7592 -5.10285e-06 -0.000116218 -0.000728585 1.12578e-08 2.24281e-06 
0 0 0 0.010305 -0.0675921 -0.00282886 0 894 9478 2.86935e-05 1.25181e-05 -7.19906e-05 2.33458e-09 4.64585e-07 
0 0 0 0.0218561 -0.0751789 0.00015328 0 894 5680 -2.52544e-05 0.000196507 -0.000396247 5.87536e-09 1.16972e-06 
0 0 0 0.0198141 -0.189551 0.0103024 0 894 3785 0.000152769 0.00118162 -0.000120916 1.23341e-09 2.45416e-07 
0 0 0 0.0822315 -0.230286 0.00244087 0 894 3375 0.00109455 0.0001041 -0.00109261 1.13375e-08 2.25872e-06 
0 0 0 0.0434741 -0.0967157 0.00168554 0 894 7607 -1.29156e-05 9.31526e-05 -3.42346e-05 8.54218e-10 1.69959e-07 
0 0 0 0.0481085 -0.092664 0.00521093 0 894 1585 -6.72699e-07 4.64184e-05 -0.000227917 3.40324e-09 6.7734e-07 
0 0 0 0.0278657 -0.0569512 -0.00143152 0 894 6397 0.000232745 0.000172469 -0.00103829 1.13377e-08 2.25875e-06 
0 0 0 0.0242804 0.0314917 0.0116827 0 894 3617 0.00010063 -0.000715137 -0.000346436 3.98478e-09 7.9314e-07 
0 0 0 -0.00942383 -0.074493 0.00422254 0 894 6077 -5.99778e-05 2.14737e-05 -1.96403e-05 1.10694e-10 2.20221e-08 
0 0 0 -0.00404276 -0.0740036 -0.00198812 0 894 7745 -5.00192e-05 9.71995e-05 -0.000240309 4.47856e-09 8.91478e-07 
0 0 0 -0.0087663 -0.0602756 -0.00378097 0 894 9300 -9.21223e-05 0.000270198 -0.000818553 9.94998e-09 1.98194e-06 
0 0 0 0.163112 -0.322719 -0.0193538 0 894 5284 0.00118452 0.000158527 -0.00157385 1.65744e-08 3.30419e-06 
0 0 0 0.0279712 -0.137618 -0.00615454 0 894 9706 -6.72076e-06 -1.26343e-06 -0.000154728 3.9974e-09 7.95654e-07 
0 0 0 0.0265553 -0.227123 -0.000767831 0 894 5981 -1.27696e-05 5.9316e-05 -0.00012135 2.78919e-09 5.55085e-07 
0 0 0 0.00320375 -0.030941 -0.00918825 0 894 4078 1.91198e-05 1.20397e-05 4.51894e-05 2.18106e-10 4.33921e-08 
0 0 0 -0.0163036 -0.0593738 0.00317237 0 894 1113 0.000142328 0.000287349 -0.00215599 1.7922e-08 3.57345e-06 
0 0 0 0.00877282 -0.06683 -0.00160361 0 894 3842 -5.29624e-05 -9.4161e-05 -0.000564713 7.64044e-09 1.52146e-06 
0 0 0 -0.0223964 -0.0559477 -0.00335481 0 894 2792 7.81304e-05 0.0004634 -0.00144994 1.42988e-08 2.84973e-06 
0 0 0 -0.014766 -0.214648 -0.0113011 0 894 9268 -1.45268e-05 1.896e-05 -8.70127e-05 3.83528e-09 7.63369e-07 
0 0 0 0.00880816 -0.0570662 -0.00952671 0 894 8590 -0.000149784 0.000133709 -0.000503806 7.99477e-09 1.59209e-06 
0 0 0 0.0330743 -0.0848872 -0.0100948 0 894 9774 0.000317869 0.000145764 -0.000237889 5.48797e-09 1.09254e-06 
0 0 0 -0.0219914 -0.0798189 0.000288074 0 894 8681 2.85347e-05 -2.91843e-06 -5.73671e-05 1.57881e-09 3.14156e-07 
0 0 0 0.00840068 -0.0292274 -0.020573 0 894 3334 2.14408e-05 0.000304014 -0.000526385 9.42635e-09 1.87752e-06 
0 0 0 -0.0268782 -0.035387 -0.0066123 0 894 3337 -2.65923e-05 3.29268e-05 -0.000180627 4.3796e-09 8.71769e-07 
0 0 0 0.0291473 -0.090866 0.021427 0 894 22 -3.32348e-05 0.000197628 -0.000400807 3.45131e-09 6.86912e-07 
0 0 0 0.0279061 -0.220421 -0.0157183 0 894 10185 -5.14081e-05 1.10133e-05 -4.35397e-05 3.8889e-09 7.74047e-07 
0 0 0 0.0742252 -0.170157 0.00244402 0 894 9704 -6.43479e-05 5.26214e-05 -6.45356e-05 1.36895e-09 2.72391e-07 
0 0 0 0.0342884 -0.0635876 -0.0158493 0 894 8496 0.000188376 1.63562e-05 -0.000692505 1.02484e-08 2.04145e-06 
0 0 0 0.00121852 -0.100069 -0.00453255 0 894 4868 -6.66054e-05 0.000177248 -0.00072089 9.26358e-09 1.84506e-06 
0 0 0 0.0208968 -0.175872 -0.00220562 0 894 7912 -2.24759e-05 7.55672e-05 -0.000157678 3.49313e-09 6.95239e-07 
0 0 0 0.00985366 -0.17935 -0.0165649 0 894 6583 0.000234876 0.00189656 -0.000219458 6.11326e-09 1.21712e-06 
0 0 0 0.0580211 -0.0825742 -0.158654 0 894 4521 0.00374977 -0.00299523 -0.0142099 7.37642e-08 1.48121e-05 
0 0 0 -0.0236203 -0.0116144 -0.00831906 0 894 8064 0.000697956 -0.000162007 -0.00244751 2.05279e-08 4.09438e-06 
0 0 0 0.0477889 -0.221383 0.00533034 0 894 3707 -0.000150228 0.000397979 -0.000850777 9.25031e-09 1.84241e-06 
0 0 0 0.0201398 -0.0922717 0.000932056 0 894 7103 -1.44179e-05 3.77696e-05 -0.00119783 1.22201e-08 2.43481e-06 
0 0 0 0.0289261 -0.148921 0.00426123 0 894 10136 -0.000156281 -0.000149864 -0.00054656 6.82489e-09 1.35892e-06 
0 0 0 0.0322377 -0.115995 -0.0107479 0 894 3786 1.4339e-05 0.000239123 -0.000479104 7.91513e-09 1.57622e-06 
0 0 0 0.0397358 -0.116479 -0.0010072 0 894 4320 -1.44368e-05 2.12427e-05 -5.13682e-05 1.67762e-09 3.33821e-07 
0 0 0 0.0565512 -0.100763 -0.00159258 0 894 3799 -0.000352778 0.000446286 -0.000499937 7.06124e-09 1.40602e-06 
0 0 0 0.0403697 -0.217778 0.0595892 0 894 4217 -0.000252623 0.000859536 -0.00179178 1.06825e-08 2.12805e-06 
0 0 0 0.0366096 -0.208905 -0.0150134 0 894 10537 1.97215e-05 0.000357102 -0.00118077 1.36683e-08 2.72385e-06 
0 0 0 -0.00298844 -0.152173 -0.0112878 0 894 9720 -3.18706e-05 2.33336e-05 -4.50265e-05 3.2306e-09 6.42966e-07 
0 0 0 -0.0582783 -0.0332789 -0.0105245 0 894 7195 0.000441001 7.34556e-05 -0.00120895 1.34169e-08 2.67367e-06 
0 0 0 0.0974022 -0.031224 0.0505865 0 894 7138 -3.20201e-05 0.000920381 -0.00184188 1.18058e-08 2.35216e-06 
0 0 0 0.027356 -0.0880228 0.00533123 0 894 2553 -2.16716e-05 0.000248195 -0.000498279 6.25981e-09 1.24632e-06 
0 0 0 0.0574364 -0.21947 0.00782953 0 894 168 -0.000125315 0.000283983 -0.000659036 7.42237e-09 1.478e-06 
0 0 0 0.0115866 -0.0207806 -0.00771759 0 894 4775 0.000148851 0.000247389 -0.00115163 1.27545e-08 2.54146e-06 
0 0 0 -7.67174e-05 -0.0635126 8.76809e-05 0 894 9021 -5.18836e-05 0.000230707 -0.00194486 1.69895e-08 3.38712e-06 
0 0 0 -0.000701067 -0.28525 0.0130613 0 894 2165 -0.000160484 0.000366226 -0.000799692 8.03883e-09 1.60088e-06 
0 0 0 0.0577883 -0.278852 -0.00186359 0 894 10523 -7.77401e-05 0.000144984 -1.13897e-05 9.45522e-10 1.88128e-07 
0 0 0 -0.0636134 -0.256572 0.00154123 0 894 4790 0.000228539 0.000403221 -0.000105363 2.21105e-09 4.39996e-07 
0 0 0 -0.00841194 -0.123422 0.0020575 0 894 466 -2.96903e-05 0.000297237 -0.00027145 4.32186e-09 8.6027e-07 
0 0 0 0.0718165 -0.122173 -0.0038252 0 894 2373 -0.00087619 0.00140998 -0.00051588 7.45774e-09 1.48505e-06 
0 0 0 0.010971 -0.230802 -0.0224477 0 894 10207 6.38386e-05 0.000104504 -0.000734923 1.12744e-08 2.24613e-06 
0 0 0 0.00762986 -0.272034 0.00648073 0 894 7287 6.99481e-06 3.28564e-05 -6.71854e-05 8.10144e-10 1.61189e-07 
0 0 0 -0.0328537 -0.260285 0.00303153 0 894 8018 4.13673e-05 5.90445e-05 -0.000144187 2.58155e-09 5.13749e-07 
0 0 0 -0.00969755 -0.194096 -0.0123314 0 894 2601 0.000144821 4.55352e-05 -0.000330024 6.71327e-09 1.33668e-06 
0 0 0 0.0252278 -0.0981678 -0.00512467 0 894 10032 -7.18328e-05 -3.50661e-05 -9.78199e-05 3.0815e-09 6.1328e-07 
0 0 0 0.0314345 -0.143018 9.63257e-05 0 894 2290 0.000341289 0.00135148 -0.000368929 5.60805e-09 1.11647e-06 
0 0 0 0.0698113 -0.191907 -0.00440168 0 894 6412 -6.49147e-05 0.000104523 -0.000246081 4.85304e-09 9.66064e-07 
0 0 0 -0.0139483 -0.281094 0.012066 0 894 10541 4.50306e-05 0.000138251 -0.000290799 3.30591e-09 6.57961e-07 
0 0 0 0.0263545 -0.213366 -0.0046454 0 894 1664 -3.66018e-07 2.06321e-05 -4.12708e-05 2.09646e-09 4.17185e-07 
0 0 0 0.0370949 -0.197191 -0.050855 0 894 10926 0.000169259 -8.42906e-07 0.000310344 4.35086e-09 8.66046e-07 
0 0 0 0.00491229 -0.195197 0.00579849 0 894 8294 -0.000146965 0.000199158 -0.000495025 6.17619e-09 1.22966e-06 
0 0 0 0.0206744 -0.194865 -0.0155996 0 894 9061 -1.72007e-06 2.00709e-05 -4.02889e-05 3.82495e-09 7.61312e-07 
0 0 0 0.037136 -0.249109 -8.08244e-06 0 894 9016 -0.000342415 0.00274961 -0.000181047 3.49826e-09 6.96259e-07 
0 0 0 7.23843e-14 8.43513e-20 2.26456e-302 0 866 887 -1.62002 5.25978e-06 3.81e-307 1.22522e-06 0.0003 
0 0 0 0.272068 0.421419 -0.594178 0 855 4079 0.0623417 -0.00936439 0.0297309 1.81432e-07 3.6948e-05 
0 0 0 0.291182 0.0937265 0.0499406 0 855 2880 0.0408189 -0.00375992 -0.00142895 1.42861e-07 2.89448e-05 