ITEM: TIMESTEP
4450000
ITEM: NUMBER OF ENTRIES
1487
ITEM: BOX BOUNDS ff ff ff
-0.01 0.45
-0.15 0.15
-0.08 0.1
ITEM: ENTRIES c_pwc[1] c_pwc[2] c_pwc[3] c_pwc[4] c_pwc[5] c_pwc[6] c_pwc[7] c_pwc[8] c_pwc[9] c_pwc[10] c_pwc[11] c_pwc[12] c_pwc[13] c_pwc[14] 
0 0 0 14.4505 -12.2507 43.4064 0 932 8390 -0.014417 -0.0264545 0.0480918 2.64074e-07 5.43844e-05 
0 0 0 0.00167062 -0.00244831 0.0130973 0 778 5540 -7.00276e-19 1.02659e-05 1.35713e-06 5.18851e-10 1.03229e-07 
0 0 0 0.00126724 -0.0109036 0.0583292 0 778 5167 1.14527e-18 1.02659e-05 1.35713e-06 5.18851e-10 1.03229e-07 
0 0 0 -0.0713865 -0.00757138 0.0405033 0 778 6702 2.82649e-17 1.02659e-05 1.35713e-06 5.18851e-10 1.03229e-07 
0 0 0 0.00787979 0.00490148 -0.0262206 0 778 3631 4.2699e-19 1.02659e-05 1.35713e-06 5.18851e-10 1.03229e-07 
0 0 0 0.0341443 -2.21184e-05 0.169178 0 776 72 -1.35938e-06 1.20319e-05 -5.86037e-06 5.69308e-10 1.13268e-07 
0 0 0 0.00174621 -1.03768e-12 -0.000750166 0 776 1200 1.12311e-19 1.05196e-05 7.48826e-20 5.24825e-10 1.04417e-07 
0 0 0 -0.00058511 -6.28618e-08 -0.000824291 0 776 1871 -4.79004e-10 1.05193e-05 -7.31358e-10 5.24801e-10 1.04413e-07 
0 0 0 1.20426e-06 -3.95382e-07 -0.000793468 0 776 206 8.10517e-09 1.0535e-05 2.42271e-08 5.25254e-10 1.04503e-07 
0 0 0 0.00085134 -8.02201e-08 -0.000980454 0 776 1972 -5.32196e-08 1.07012e-05 2.37763e-07 5.30833e-10 1.05613e-07 
0 0 0 -5.59024e-05 7.62543e-06 -0.00117319 0 776 733 1.81098e-07 1.12886e-05 9.17671e-07 5.51731e-10 1.09771e-07 
0 0 0 0.0145734 -6.51626e-12 0.00584853 0 776 414 2.39608e-18 1.05196e-05 6.043e-19 5.24825e-10 1.04417e-07 
0 0 0 0.000538696 -3.93137e-13 0.00557879 0 776 690 7.55394e-20 1.05196e-05 -1.76944e-19 5.24825e-10 1.04417e-07 
0 0 0 0.00107047 1.50186e-09 -0.00641553 0 776 280 4.5033e-16 1.05196e-05 -2.69895e-15 5.24825e-10 1.04417e-07 
0 0 0 0.00112378 9.75906e-10 -0.00631004 0 776 210 2.82441e-16 1.05196e-05 -1.58589e-15 5.24828e-10 1.04418e-07 
0 0 0 0.00159017 -5.26577e-06 -0.00635473 0 776 1894 2.00345e-07 1.06877e-05 9.85364e-08 5.29264e-10 1.05301e-07 
0 0 0 -0.00127191 -8.76542e-13 -0.00700136 0 776 553 1.49756e-19 1.05196e-05 1.20328e-18 5.24825e-10 1.04417e-07 
0 0 0 0.0168019 -2.81016e-12 -0.000911402 0 776 101 -2.39602e-18 1.05196e-05 -9.45479e-21 5.24825e-10 1.04417e-07 
0 0 0 0.00171246 -8.76542e-13 0.00244643 0 776 317 3.00812e-19 1.05196e-05 1.0304e-20 5.24825e-10 1.04417e-07 
0 0 0 2.07536e-06 3.77377e-05 -0.00366188 0 776 1705 -2.26835e-08 1.10438e-05 1.08181e-06 5.5022e-10 1.0947e-07 
0 0 0 0.0067781 -3.35413e-06 0.00491785 0 776 4095 1.40946e-05 1.04828e-05 -1.66851e-05 5.22875e-10 1.04029e-07 
0 0 0 -0.0018112 1.05708e-12 -0.00440153 0 776 1002 -9.23384e-20 1.05196e-05 -1.07576e-19 5.24825e-10 1.04417e-07 
0 0 0 -0.0065861 -2.32002e-13 -0.00308337 0 776 585 -2.2949e-20 1.05196e-05 -9.72118e-20 5.24825e-10 1.04417e-07 
0 0 0 0.00147789 -5.93081e-06 -0.0011517 0 776 2069 -3.90705e-07 1.09014e-05 2.39585e-07 5.36172e-10 1.06675e-07 
0 0 0 -0.000663417 1.58374e-06 -0.00385493 0 776 531 -7.71772e-10 1.04348e-05 4.94205e-10 5.22346e-10 1.03924e-07 
0 0 0 -0.0118372 -1.82272e-10 0.0343454 0 776 3491 5.96947e-16 1.05196e-05 -1.73216e-15 5.24825e-10 1.04417e-07 
0 0 0 0.0241116 4.44091e-12 -0.0012242 0 776 3630 -2.39582e-18 1.05196e-05 1.51074e-19 5.24825e-10 1.04417e-07 
0 0 0 0.00132809 -1.81735e-06 -0.00496367 0 776 4165 -4.6934e-08 1.04695e-05 3.75978e-09 5.22764e-10 1.04007e-07 
0 0 0 -0.00358071 -5.22101e-08 -0.0034297 0 776 1470 5.21892e-14 1.05197e-05 4.99809e-14 5.24817e-10 1.04416e-07 
0 0 0 0.000278427 3.04507e-06 -0.00254372 0 776 154 -5.73659e-10 1.04839e-05 3.08008e-10 5.24299e-10 1.04313e-07 
0 0 0 -0.000247071 -1.47551e-05 -0.00193533 0 776 1920 9.42872e-08 1.01925e-05 4.58214e-09 5.10679e-10 1.01603e-07 
0 0 0 -0.000932688 4.94297e-05 -0.00169195 0 776 18 -2.47968e-07 1.2808e-05 1.27089e-06 6.08762e-10 1.21118e-07 
0 0 0 -0.00032294 -6.38354e-05 -0.00112268 0 776 1367 2.34764e-06 7.58271e-06 8.7348e-07 4.07337e-10 8.10413e-08 
0 0 0 0.0142327 3.63524e-12 -0.021526 0 776 209 -3.21764e-19 1.05196e-05 9.66097e-19 5.24825e-10 1.04417e-07 
0 0 0 -0.000601352 3.87505e-05 -0.00207638 0 776 1890 6.49804e-07 1.39038e-05 1.44269e-06 6.40077e-10 1.27349e-07 
0 0 0 -0.00232436 5.56886e-12 -0.00993407 0 776 7185 2.99519e-19 1.05196e-05 1.20854e-18 5.24825e-10 1.04417e-07 
0 0 0 -0.00334012 6.46862e-05 -0.00546372 0 776 1118 -2.90907e-07 8.44109e-06 -4.04484e-08 4.67718e-10 9.30549e-08 
0 0 0 0.020211 5.72999e-12 -0.00681056 0 776 1887 -2.17064e-18 1.05196e-05 1.19799e-18 5.24825e-10 1.04417e-07 
0 0 0 -0.000161607 -5.91633e-05 -0.000870212 0 776 5892 -2.17936e-06 1.26266e-05 1.52419e-06 5.80326e-10 1.15461e-07 
0 0 0 -0.00637566 -5.06566e-12 -0.000691806 0 776 5191 -4.60874e-19 1.05196e-05 -7.55368e-20 5.24825e-10 1.04417e-07 
0 0 0 -0.0174418 -8.44446e-06 -0.00795228 0 776 5313 6.05445e-09 1.0494e-05 -6.17487e-09 5.22146e-10 1.03884e-07 
0 0 0 0.00913359 8.22271e-10 -0.0159231 0 776 693 -1.97145e-05 1.05196e-05 0.00010676 5.24825e-10 1.04417e-07 
0 0 0 -0.00190688 -3.49222e-06 -0.00527482 0 776 2966 -4.65929e-11 1.05937e-05 -6.24474e-09 5.26534e-10 1.04758e-07 
0 0 0 0.000496331 -1.15873e-05 -0.00489505 0 776 1039 3.19399e-10 1.0367e-05 4.68956e-09 5.17224e-10 1.02905e-07 
0 0 0 0.00537444 5.59403e-08 -0.0330357 0 776 3427 9.13741e-06 1.04413e-05 5.70003e-06 5.22232e-10 1.03901e-07 
0 0 0 -0.0166438 7.69242e-06 -0.0154521 0 776 4183 -3.39992e-11 1.06033e-05 -3.37618e-11 5.29269e-10 1.05302e-07 
0 0 0 0.00105997 -3.65254e-07 -0.00299183 0 776 4298 1.70801e-11 1.05253e-05 1.71541e-11 5.24938e-10 1.0444e-07 
0 0 0 0.00191966 -4.2911e-06 -0.00303185 0 776 604 -3.11818e-12 1.05381e-05 3.95438e-12 5.24512e-10 1.04355e-07 
0 0 0 -0.00165001 0.000138457 0.00178921 0 776 510 2.88153e-06 7.69427e-06 -7.30428e-07 4.57617e-10 9.10452e-08 
0 0 0 0.00363032 -7.18993e-05 -0.0243572 0 776 5729 4.63895e-06 1.62765e-05 6.68665e-06 6.87602e-10 1.36806e-07 
0 0 0 0.00175432 1.32083e-06 -0.00341868 0 776 7053 -1.68334e-11 1.04935e-05 -1.68151e-11 5.24243e-10 1.04302e-07 
0 0 0 -0.00175693 0.000410224 0.00123144 0 776 1937 9.69921e-06 2.23145e-05 -5.51451e-06 9.44695e-10 1.87963e-07 
0 0 0 -0.00451293 0.000287957 -0.0141062 0 776 7843 5.57633e-05 4.63607e-06 7.55614e-05 3.75224e-10 7.4652e-08 
0 0 0 0.00273583 0.000619502 0.00307319 0 776 316 -6.40521e-07 2.6293e-06 -1.07968e-06 3.74229e-10 7.44539e-08 
0 0 0 0.00447748 -9.55702e-06 0.00162402 0 776 163 -4.44306e-08 1.07241e-05 2.3438e-09 5.29544e-10 1.05356e-07 
0 0 0 0.00297022 -0.00192233 0.00521023 0 776 6920 -1.97126e-06 1.10163e-05 -5.14333e-06 1.58405e-10 3.15143e-08 
0 0 0 0.0277877 -0.00105912 -0.0166386 0 776 3055 -1.25996e-05 2.52426e-05 7.40288e-07 7.43104e-10 1.47849e-07 
0 0 0 0.0715232 7.49026e-05 0.162268 0 777 7121 -4.50358e-07 0.000152461 -1.73328e-07 3.12913e-09 6.22763e-07 
0 0 0 0.0582789 6.85794e-12 -0.0547217 0 777 6612 -3.69214e-18 1.05196e-05 0 5.24825e-10 1.04417e-07 
0 0 0 -0.000975493 -0.000168463 -0.00163743 0 775 3087 1.58942e-06 1.21665e-05 -3.36318e-06 6.1962e-10 1.23279e-07 
0 0 0 -0.000248655 -0.000394049 -0.00215945 0 775 4938 -4.36531e-10 1.02743e-05 -1.35921e-06 5.21192e-10 1.03695e-07 
0 0 0 -0.00153043 -0.000153655 -0.000400482 0 775 6574 2.2672e-05 4.61179e-06 -3.97786e-07 2.83412e-10 5.6385e-08 
0 0 0 -0.00298835 -0.000713053 -0.00585606 0 775 570 -1.26346e-06 1.78922e-05 -4.81715e-06 8.37757e-10 1.66684e-07 
0 0 0 -0.00455954 -0.00116844 -0.00630679 0 775 2951 -6.10515e-08 1.02325e-05 -1.40345e-06 5.2028e-10 1.03513e-07 
0 0 0 0.00309581 0.00046004 0.00261922 0 775 833 7.33657e-07 1.20055e-05 -4.27408e-06 5.85385e-10 1.16467e-07 
0 0 0 0.0148521 -0.00197385 -0.0104722 0 775 5373 -1.02275e-07 9.67494e-06 -1.32247e-06 4.95518e-10 9.85862e-08 
0 0 0 0.0132303 -0.000272426 0.00127901 0 775 6782 -4.35473e-06 1.46716e-05 -9.69239e-06 5.98817e-10 1.1914e-07 
0 0 0 -4.57282e-05 -0.000128145 -0.000687963 0 839 5113 2.22372e-07 2.90346e-05 0.000154547 2.16675e-11 4.31062e-09 
0 0 0 -5.59024e-05 7.62543e-06 -0.00117319 0 832 733 2.67046e-07 1.55421e-07 1.34145e-05 2.35051e-11 4.6762e-09 
0 0 0 -0.000800486 -0.000182944 -0.00093478 0 774 2641 -2.17741e-07 9.54575e-06 -8.75879e-07 4.90088e-10 9.75058e-08 
0 0 0 -4.57282e-05 -0.000128145 -0.000687963 0 774 5113 1.30822e-07 1.02106e-05 -1.57483e-06 5.18469e-10 1.03153e-07 
0 0 0 -0.000344006 -0.000325099 -0.00180932 0 774 3865 3.68276e-06 1.45627e-05 3.17275e-06 6.29517e-10 1.25248e-07 
0 0 0 0.00352907 0.000515787 0.00224784 0 774 1165 -1.09479e-06 9.86345e-06 -1.17675e-06 5.24947e-10 1.04442e-07 
0 0 0 -0.0010462 -0.00066747 -0.00349251 0 774 2352 7.45501e-07 1.00789e-05 -1.02917e-06 5.07527e-10 1.00976e-07 
0 0 0 -0.000632436 -0.000148395 -0.00146475 0 774 3869 9.70754e-07 9.57606e-06 -1.87462e-07 5.15693e-10 1.026e-07 
0 0 0 -0.00147688 -0.000444225 -0.00254833 0 774 2116 1.63301e-06 1.23158e-05 -2.94913e-07 5.84738e-10 1.16338e-07 
0 0 0 -5.99674e-05 -0.000388682 -0.00223009 0 774 1045 -1.20101e-07 9.00765e-06 -9.95086e-07 4.80436e-10 9.55855e-08 
0 0 0 -0.000659722 -0.000617165 -0.00279473 0 774 4248 -1.04608e-06 7.80567e-06 1.08747e-07 4.03272e-10 8.02325e-08 
0 0 0 -0.000275366 -0.000424307 -0.00177658 0 774 3081 -9.20233e-09 1.0459e-05 -1.32869e-06 5.05393e-10 1.00551e-07 
0 0 0 -0.000661325 -0.000266466 -0.00110101 0 774 5900 4.83418e-06 1.21456e-05 -3.62811e-06 5.79566e-10 1.15309e-07 
0 0 0 -5.37535e-05 0.000180285 -4.92975e-05 0 774 1352 -9.71561e-07 1.123e-05 -4.91145e-06 6.10563e-10 1.21477e-07 
0 0 0 -0.00418742 -0.00122381 -0.00654022 0 774 6135 1.10307e-07 1.0275e-05 -1.33176e-06 5.18732e-10 1.03205e-07 
0 0 0 3.78721e-05 -0.000117617 -0.000623592 0 839 4325 8.92303e-07 -3.37009e-05 -0.000179249 1.13683e-10 2.26168e-08 
0 0 0 -6.67008e-13 14.7072 6.20994 0 948 8498 5.67896e-17 0.001147 0.00416217 7.8479e-08 1.57683e-05 
0 0 0 3.78721e-05 -0.000117617 -0.000623592 0 774 4325 2.25539e-07 1.02894e-05 -1.30558e-06 5.19085e-10 1.03275e-07 
0 0 0 -0.000273829 1.35098e-05 9.40269e-05 0 774 6076 9.54273e-07 1.08105e-05 -2.63236e-06 5.43427e-10 1.08119e-07 
0 0 0 -4.14358e-302 3.78143e-20 -3.53501e-12 0 884 5230 -1.53617e-307 5.25978e-06 -1.62002 1.22522e-06 0.0003 
0 0 0 0.193216 -0.367883 0.120581 0 884 6826 -0.135275 -0.155409 0.000550859 2.01102e-08 4.01086e-06 
0 0 0 -3.71623e-235 -3.76758e-20 2.36054e-12 0 884 3064 -4.6286e-237 5.25978e-06 -1.62002 1.22522e-06 0.0003 
0 0 0 5.95896e-303 -5.7127e-20 -2.16043e-15 0 884 871 -2.63259e-307 5.25978e-06 -1.62002 1.22522e-06 0.0003 
0 0 0 1.79899e-247 5.65332e-20 -3.53504e-12 0 884 1962 -7.72168e-249 5.25978e-06 -1.62002 1.22522e-06 0.0003 
0 0 0 0.0486988 0.0102573 0.0139197 0 884 8206 7.52048e-05 -4.62579e-05 0.000176585 5.30221e-09 1.05554e-06 
0 0 0 2.45984e-17 -5.1375e-17 5.94228e-13 0 884 2565 -0.00123945 -0.00686778 -1.62018 1.22528e-06 0.00030002 
0 0 0 0.00154489 0.106839 -0.0262482 0 884 3733 0.000758504 -0.000456499 0.00617523 3.4683e-08 6.92998e-06 
0 0 0 0.026364 0.00226953 0.00334558 0 884 2203 0.000156942 -3.59122e-05 0.000321997 5.54135e-09 1.10318e-06 
0 0 0 -1.1601e-302 8.48451e-20 -5.8979e-12 0 884 7394 8.03082e-307 5.25978e-06 -1.62002 1.22522e-06 0.0003 
0 0 0 1.5465e-302 9.49694e-21 -1.18148e-12 0 884 3089 7.93653e-307 5.25978e-06 -1.62002 1.22522e-06 0.0003 
0 0 0 1.22687e-49 1.89078e-20 -2.36052e-12 0 884 7839 6.2947e-51 5.25978e-06 -1.62002 1.22522e-06 0.0003 
0 0 0 2.28431e-232 3.77278e-20 3.53498e-12 0 884 5274 3.00204e-234 5.25978e-06 -1.62002 1.22522e-06 0.0003 
0 0 0 0.0593863 -0.0191912 -0.0232716 0 884 7922 0.000245447 -8.06127e-05 0.000516692 4.43356e-09 8.82515e-07 
0 0 0 3.45379e-16 7.70067e-17 -2.35868e-12 0 884 2130 0.0518806 0.00277484 -1.61412 1.22293e-06 0.000299271 
0 0 0 -4.22253e-16 -7.91656e-17 -2.3592e-12 0 884 4708 -0.0653871 -0.00348535 -1.62593 1.22751e-06 0.000300729 
0 0 0 -7.68883e-14 4.74431e-20 -3.5978e-302 0 863 2723 -1.62002 5.25978e-06 -8.49908e-307 1.22522e-06 0.0003 
0 0 0 1.63037e-14 4.72763e-20 -1.59719e-302 0 862 444 -1.62002 5.25978e-06 -8.44422e-307 1.22522e-06 0.0003 
0 0 0 -3.49913e-14 -4.7524e-20 2.5424e-302 0 862 927 -1.62002 5.25978e-06 5.82505e-307 1.22522e-06 0.0003 
0 0 0 -0.562827 -0.480788 0.00935992 0 854 3531 0.0466021 -0.00611686 -0.0224838 1.10051e-07 2.22021e-05 
0 0 0 0.19689 4.32896 0.147304 0 854 5004 0.0159588 -0.0075132 0.00268747 8.10179e-08 1.62837e-05 
0 0 0 -0.969168 0.596327 -1.64058 0 854 1326 0.0976673 -0.0335559 0.0354786 1.81896e-07 3.70447e-05 
0 0 0 -0.0109237 -0.0758497 0.162484 0 854 6507 0.00400834 7.73984e-05 -6.34238e-05 2.66191e-08 5.31334e-06 
0 0 0 0.0177563 -0.0712564 -0.00271709 0 854 3640 0.000792957 0.00023135 9.80065e-05 1.12169e-08 2.23465e-06 
0 0 0 0.00152333 -0.0384386 0.122156 0 854 7592 0.000173455 1.72828e-05 -8.4988e-05 3.60521e-09 7.17555e-07 
0 0 0 0.0160133 0.141157 -0.156703 0 854 5610 0.0019314 -0.000821623 0.000507455 1.8366e-08 3.66219e-06 
0 0 0 -0.0397647 1.06363 0.139875 0 854 4232 0.0214946 -0.0105935 -0.00181162 8.126e-08 1.63329e-05 
0 0 0 -0.0385491 0.0951219 -0.0220109 0 854 5814 0.00148636 0.000285472 0.00183521 1.05847e-08 2.10854e-06 
0 0 0 -0.00837758 0.175245 -0.119527 0 854 7748 0.000704855 -0.00126421 0.00149689 7.75182e-09 1.54366e-06 
0 0 0 0.0221973 0.0217443 0.0916268 0 854 6819 0.00158697 0.000585934 -0.000203837 1.69187e-08 3.37298e-06 
0 0 0 -0.0148736 -0.0382704 0.0364612 0 854 970 7.13902e-05 0.000165321 -0.000515591 1.42745e-10 2.83988e-08 
0 0 0 0.0116241 -0.0323245 0.0578036 0 854 6992 0.00069194 0.000284828 -0.000196388 9.7916e-09 1.95035e-06 
0 0 0 -0.055136 0.0451792 0.0813061 0 854 7357 0.00183295 -0.00067402 -0.000620988 1.13426e-08 2.25974e-06 
0 0 0 -4.14358e-302 3.78143e-20 -3.53501e-12 0 850 5230 2.47642e-307 5.25978e-06 1.62002 1.22522e-06 0.0003 
0 0 0 -3.71623e-235 -3.76758e-20 2.36054e-12 0 850 3064 -4.6286e-237 5.25978e-06 1.62002 1.22522e-06 0.0003 
0 0 0 1.17547e-94 -2.82717e-20 5.89789e-12 0 850 478 -1.62381e-95 5.25978e-06 1.62002 1.22522e-06 0.0003 
0 0 0 5.95896e-303 -5.7127e-20 -2.16043e-15 0 850 871 1.68322e-307 5.25978e-06 1.62002 1.22522e-06 0.0003 
0 0 0 1.79899e-247 5.65332e-20 -3.53504e-12 0 850 1962 -7.72168e-249 5.25978e-06 1.62002 1.22522e-06 0.0003 
0 0 0 -3.57934e-302 4.74637e-20 -2.30694e-15 0 850 283 9.46604e-307 5.25978e-06 1.62002 1.22522e-06 0.0003 
0 0 0 -2.61346e-17 4.03863e-17 5.94209e-13 0 850 6540 0.00123945 0.0068783 1.62018 1.22528e-06 0.00030002 
0 0 0 2.45984e-17 -5.1375e-17 5.94228e-13 0 850 2565 -0.00116944 -0.00647955 1.61986 1.22516e-06 0.00029998 
0 0 0 1.57811e-302 -8.49594e-20 3.53501e-12 0 850 5520 -3.56448e-307 5.25978e-06 1.62002 1.22522e-06 0.0003 
0 0 0 -1.1601e-302 8.48451e-20 -5.8979e-12 0 850 7394 -7.07858e-307 5.25978e-06 1.62002 1.22522e-06 0.0003 
0 0 0 -4.03465e-302 -1.40897e-22 -5.89792e-12 0 850 2321 5.08163e-307 5.25978e-06 1.62002 1.22522e-06 0.0003 
0 0 0 1.5465e-302 9.49694e-21 -1.18148e-12 0 850 3089 -6.99355e-307 5.25978e-06 1.62002 1.22522e-06 0.0003 
0 0 0 1.22687e-49 1.89078e-20 -2.36052e-12 0 850 7839 6.2947e-51 5.25978e-06 1.62002 1.22522e-06 0.0003 
0 0 0 -9.39706e-303 9.32513e-21 -4.72347e-12 0 850 1583 -1.4064e-307 5.25978e-06 1.62002 1.22522e-06 0.0003 
0 0 0 1.15188e-168 -7.53151e-20 -5.8979e-12 0 850 8195 -1.26021e-169 5.25978e-06 1.62002 1.22522e-06 0.0003 
0 0 0 2.28431e-232 3.77278e-20 3.53498e-12 0 850 5274 3.00204e-234 5.25978e-06 1.62002 1.22522e-06 0.0003 
0 0 0 3.45379e-16 7.70067e-17 -2.35868e-12 0 850 2130 0.0653871 0.00349588 1.62593 1.22751e-06 0.000300729 
0 0 0 -4.22253e-16 -7.91656e-17 -2.3592e-12 0 850 4708 -0.0518806 -0.00276433 1.61412 1.22293e-06 0.000299271 
0 0 0 1.63037e-14 4.72763e-20 -1.59719e-302 0 822 444 1.62002 5.25978e-06 7.51136e-307 1.22522e-06 0.0003 
0 0 0 -3.49913e-14 -4.7524e-20 2.5424e-302 0 821 927 1.62002 5.25978e-06 -4.88502e-307 1.22522e-06 0.0003 
0 0 0 -7.68883e-14 4.74431e-20 -3.5978e-302 0 821 2723 1.62002 5.25978e-06 7.56129e-307 1.22522e-06 0.0003 
0 0 0 1.17547e-94 -2.82717e-20 5.89789e-12 0 885 478 -1.62381e-95 5.25978e-06 -1.62002 1.22522e-06 0.0003 
0 0 0 -3.57934e-302 4.74637e-20 -2.30694e-15 0 885 283 -8.51202e-307 5.25978e-06 -1.62002 1.22522e-06 0.0003 
0 0 0 -2.61346e-17 4.03863e-17 5.94209e-13 0 885 6540 0.00116944 0.00649007 -1.61986 1.22516e-06 0.00029998 
0 0 0 1.57811e-302 -8.49594e-20 3.53501e-12 0 885 5520 2.6228e-307 5.25978e-06 -1.62002 1.22522e-06 0.0003 
0 0 0 -4.03465e-302 -1.40897e-22 -5.89792e-12 0 885 2321 -4.16522e-307 5.25978e-06 -1.62002 1.22522e-06 0.0003 
0 0 0 -9.39706e-303 9.32513e-21 -4.72347e-12 0 885 1583 2.32568e-307 5.25978e-06 -1.62002 1.22522e-06 0.0003 
0 0 0 1.15188e-168 -7.53151e-20 -5.8979e-12 0 885 8195 -1.26021e-169 5.25978e-06 -1.62002 1.22522e-06 0.0003 
0 0 0 -0.0302573 0.0179017 -0.00950488 0 853 1412 -0.000482077 -0.00114919 -0.000523238 1.02113e-08 2.03406e-06 
0 0 0 0.147474 -0.00943527 -0.00459614 0 853 4609 -0.00052042 -0.000138721 -0.000718093 4.24657e-09 8.45275e-07 
0 0 0 0.161994 -0.0654877 0.268498 0 853 6772 -1.9017e-05 0.000462585 -6.42071e-06 4.55084e-09 9.05873e-07 
0 0 0 0.107337 -0.0336511 0.219155 0 853 4513 -7.73655e-06 0.000171773 3.51019e-05 2.11437e-10 4.20651e-08 
0 0 0 0.148599 0.00530308 -0.0332742 0 853 4695 4.85778e-05 -0.00144421 5.37374e-06 1.344e-08 2.67829e-06 
0 0 0 0.0116241 -0.0323245 0.0578036 0 852 6992 -0.000672786 -0.000339243 -0.00043253 9.169e-09 1.8262e-06 
0 0 0 0.0235905 -0.00312435 0.00691121 0 852 6325 6.61537e-05 -0.00163771 0.000221633 1.5451e-08 3.0798e-06 
0 0 0 -0.055136 0.0451792 0.0813061 0 852 7357 -0.000163488 -0.00414312 -0.000411666 2.45172e-08 4.89249e-06 
0 0 0 0.0284737 -0.00608036 0.0443474 0 852 6881 0.000626195 -0.00125256 -1.0254e-05 1.32744e-08 2.64524e-06 
0 0 0 -0.0395166 -0.0191403 0.00623509 0 852 105 9.13395e-05 -0.000229795 6.97036e-05 6.54611e-09 1.30337e-06 
0 0 0 0.0970383 -0.0113644 0.0300251 0 852 3785 -0.000755685 -0.00212103 -1.0158e-05 1.90176e-08 3.79243e-06 
0 0 0 0.055409 -0.0138451 0.0980881 0 852 2563 -0.00020365 -0.00103725 -0.000127488 1.25757e-08 2.50577e-06 
0 0 0 -0.0659227 -0.0240026 0.100948 0 852 1752 7.7991e-05 0.000155995 -1.00947e-06 1.11918e-09 2.22686e-07 
0 0 0 -0.0291179 -0.034541 0.125197 0 852 644 0.000221945 -0.000321282 -0.000129166 9.27032e-09 1.8464e-06 
0 0 0 -0.0901899 0.067176 0.160475 0 852 7930 0.00135585 -0.00322947 -0.000876945 1.82659e-08 3.64217e-06 
0 0 0 -0.0641799 -0.024832 -0.0114783 0 852 4696 -1.30266e-05 -0.000203711 7.0715e-05 6.99547e-09 1.39292e-06 
0 0 0 -0.467396 -0.0281371 1.20855 0 852 5168 0.000418083 -0.00253081 -0.00119434 2.26787e-08 4.52458e-06 
0 0 0 -0.0291661 -0.114136 0.0209951 0 894 566 -3.39997e-05 0.000119136 -0.000247785 1.73876e-09 3.4599e-07 
0 0 0 0.00163982 -0.127562 0.0048006 0 894 3249 -5.52381e-06 5.46152e-05 -0.000109788 1.80713e-09 3.59599e-07 
0 0 0 0.00316772 -0.146506 -0.00223332 0 894 7014 -1.90603e-05 0.000255972 -0.000513361 7.25536e-09 1.44471e-06 
0 0 0 -0.0125234 -0.131909 0.0226204 0 894 1185 0.000103196 -5.58541e-05 -0.000617269 5.4558e-09 1.08613e-06 
0 0 0 -0.0101429 -0.128126 0.00108064 0 894 5710 -6.82591e-06 0.000277584 -0.000555337 7.25877e-09 1.44539e-06 
0 0 0 0.0385559 -0.120323 0.000769593 0 894 4390 3.60547e-07 6.60678e-05 -0.00022042 3.88693e-09 7.73654e-07 
0 0 0 -0.00254751 -0.0556597 -0.00308633 0 894 6213 -1.21302e-05 1.1338e-05 -5.01284e-05 1.99843e-09 3.97673e-07 
0 0 0 0.0204368 -0.172191 -0.00667274 0 894 6671 -4.5912e-05 0.000190587 -0.000392079 6.64047e-09 1.32217e-06 
0 0 0 0.00246045 -0.141434 -0.00274856 0 894 4389 -0.000139076 0.000666574 -7.65746e-05 2.39716e-09 4.77042e-07 
0 0 0 0.0227895 -0.191119 0.00330226 0 894 5007 9.35457e-07 5.61034e-05 -0.000112222 2.0623e-09 4.10387e-07 
0 0 0 0.0176673 -0.180382 0.0118906 0 894 2376 3.54114e-06 3.46402e-05 -6.96415e-05 2.72774e-10 5.42685e-08 
0 0 0 0.00717102 -0.118233 -0.00102064 0 894 7493 -2.05675e-05 9.28572e-05 -0.000367446 5.72651e-09 1.14007e-06 
0 0 0 0.00521839 -0.157503 -0.011131 0 894 5067 -1.08164e-06 5.41156e-06 1.10372e-05 2.24583e-09 4.46919e-07 
0 0 0 -0.00910774 -0.165125 0.00374708 0 894 3209 8.58228e-05 0.000410234 -0.000965212 1.02822e-08 2.0482e-06 
0 0 0 0.0289509 -0.201469 -0.0133378 0 894 1841 -1.02084e-05 1.97997e-05 2.9829e-05 2.28414e-09 4.54543e-07 
0 0 0 0.009735 -0.114604 -0.00522585 0 894 5534 -9.73902e-07 -3.04281e-06 2.35227e-05 1.61052e-10 3.2041e-08 
0 0 0 -0.0204959 -0.0950692 -0.00488564 0 894 3898 2.99592e-06 1.04016e-05 2.1649e-05 4.98504e-10 9.91803e-08 
0 0 0 0.000351726 -0.221219 0.00764591 0 894 518 2.48452e-05 4.26979e-05 -9.88007e-05 1.22126e-09 2.42999e-07 
0 0 0 0.0138849 -0.164849 0.000206672 0 894 7396 -1.47958e-05 3.21726e-05 -7.08235e-05 1.83841e-09 3.65823e-07 
0 0 0 -0.0132801 -0.131776 0.0106549 0 894 2803 3.00884e-05 5.48944e-05 -0.000125199 1.25609e-09 2.4993e-07 
0 0 0 -0.0282222 -0.252798 0.00235444 0 894 7593 -0.000118785 4.96005e-05 -0.000257449 4.1231e-09 8.20686e-07 
0 0 0 0.0338344 -0.155648 -0.000469491 0 894 3529 -7.82537e-06 1.67493e-05 -3.69744e-05 1.29552e-09 2.57777e-07 
0 0 0 -0.038506 -0.292371 -0.00162164 0 894 4329 -2.39862e-05 0.000231371 -0.000465222 6.74472e-09 1.34295e-06 
0 0 0 0.0444714 -0.184675 -0.00546533 0 894 3210 -2.64807e-07 7.89966e-06 -1.58082e-05 1.74591e-09 3.47414e-07 
0 0 0 -0.00585018 -0.0659571 0.00255467 0 894 4626 0.000243006 0.000569598 -0.000137001 2.54433e-09 5.06339e-07 
0 0 0 0.0623631 -0.163769 -0.0020602 0 894 2855 -5.91031e-06 7.3371e-05 -0.000147217 3.33377e-09 6.63509e-07 
0 0 0 0.0156772 -0.25283 0.0209933 0 894 6764 -4.55424e-05 0.000251345 -0.000510875 4.62554e-09 9.20752e-07 
0 0 0 0.0289958 -0.185599 -0.000471402 0 894 2004 -6.18171e-08 5.63328e-07 1.13342e-06 1.09163e-11 2.17173e-09 
0 0 0 0.0991761 -0.180167 -0.00354715 0 894 1872 -1.44571e-06 7.72968e-06 1.57274e-05 2.42396e-10 4.82246e-08 
0 0 0 0.0165464 -0.139808 -0.0102069 0 894 900 -4.30881e-07 8.87528e-06 1.77715e-05 1.9302e-09 3.84093e-07 
0 0 0 0.000165555 -0.236886 -0.000950759 0 894 6792 3.60646e-05 0.00021516 -6.18211e-05 1.86194e-09 3.70508e-07 
0 0 0 5.37571e-14 7.46083e-20 1.18542e-302 0 866 887 -1.62002 5.25978e-06 -3.44972e-307 1.22522e-06 0.0003 
0 0 0 1.61449e-14 -8.56476e-20 1.03676e-306 0 866 964 -1.62002 5.25978e-06 6.44025e-307 1.22522e-06 0.0003 
0 0 0 0.00353901 -0.0943352 0.00446 0 855 3492 4.2215e-05 2.10835e-05 -1.0061e-06 1.92822e-09 3.83699e-07 
0 0 0 0.014914 -0.0827864 -0.0253019 0 855 6642 0.0012556 0.000383934 0.000390685 1.41526e-08 2.82055e-06 
0 0 0 0.000978775 -0.12813 -0.0175293 0 855 1985 7.1674e-05 3.2334e-05 1.54533e-05 2.03964e-09 4.05876e-07 
0 0 0 0.00163982 -0.127562 0.0048006 0 855 3249 0.000329727 0.000164239 -1.43372e-05 5.41395e-09 1.0778e-06 
0 0 0 0.00316772 -0.146506 -0.00223332 0 855 7014 5.3253e-05 0.000653748 4.63523e-05 2.06787e-09 4.11495e-07 
0 0 0 -0.000315352 -0.185837 -0.0763307 0 855 983 0.000441157 0.000138928 0.000171329 6.29383e-09 1.2531e-06 
0 0 0 0.00288195 -0.200683 -0.018224 0 855 4132 2.94216e-06 0.0011329 -6.35716e-05 9.23097e-10 1.83665e-07 
0 0 0 -0.00984867 -0.220025 0.0111417 0 855 3524 0.000141083 6.96715e-05 -1.10436e-05 1.60585e-09 3.19538e-07 
0 0 0 -0.0217791 -0.207548 0.0132808 0 855 4213 0.00047339 0.00020155 -0.000124105 4.16646e-09 8.29321e-07 
0 0 0 -0.0020468 -0.129347 -0.0125223 0 855 5742 0.000115811 5.79003e-05 -7.63451e-07 2.29995e-09 4.57692e-07 
0 0 0 -0.00326811 -0.16555 0.0209049 0 855 2420 0.000124726 5.77065e-05 -2.36451e-05 2.26084e-09 4.49906e-07 
0 0 0 -0.00048966 -0.104482 0.0295207 0 855 977 0.000207917 0.000103428 -1.04882e-05 3.77059e-09 7.50488e-07 
0 0 0 -5.89628e-14 4.56696e-14 0.0782538 0 819 846 2.71714e-06 3.95108e-14 8.93922e-18 2.12866e-10 4.23496e-08 
0 0 0 -23.3301 31.9275 -39.3014 0 962 5937 -0.0277104 -0.0431746 -0.0839869 3.38183e-07 7.03748e-05 
0 0 0 0.0909876 -0.144615 -0.0194477 0 895 3431 -5.02839e-06 0.000169244 -0.000338637 7.6479e-09 1.52295e-06 
0 0 0 -5.82144e-14 -6.68574e-20 4.19287e-302 0 861 1395 -1.62002 5.25978e-06 -5.20576e-307 1.22522e-06 0.0003 
0 0 0 -1.63076e-14 -4.72622e-20 4.36586e-302 0 857 2716 -1.62002 5.25978e-06 5.56196e-307 1.22522e-06 0.0003 
0 0 0 -5.89628e-14 4.56696e-14 0.0782538 0 854 846 -2.71714e-06 1.05196e-05 3.36356e-18 5.36245e-10 1.0669e-07 
0 0 0 -0.176171 0.0684141 0.21338 0 854 5941 0.00461004 -0.0016363 -0.00162347 1.66615e-08 3.3216e-06 
0 0 0 0.0292432 -0.130923 0.469541 0 854 5995 0.000432447 0.000121338 -0.000178968 9.61473e-09 1.91508e-06 
0 0 0 -5.82144e-14 -6.68574e-20 4.19287e-302 0 822 1395 1.62002 5.25978e-06 4.26095e-307 1.22522e-06 0.0003 
0 0 0 -1.63076e-14 -4.72622e-20 4.36586e-302 0 820 2716 1.62002 5.25978e-06 -4.64599e-307 1.22522e-06 0.0003 
0 0 0 5.37571e-14 7.46083e-20 1.18542e-302 0 828 887 1.62002 5.25978e-06 4.37274e-307 1.22522e-06 0.0003 
0 0 0 1.61449e-14 -8.56476e-20 1.03676e-306 0 828 964 1.62002 5.25978e-06 -7.37165e-307 1.22522e-06 0.0003 
0 0 0 1.49685 -5.42053 17.0982 0 932 2109 -0.000881372 -0.0107913 0.000945512 6.50437e-08 1.30464e-05 
0 0 0 0.0490445 0.00220138 -0.0117763 0 778 5618 -2.20923e-18 1.02659e-05 1.35713e-06 5.18851e-10 1.03229e-07 
0 0 0 0.089414 0.00520345 -0.027836 0 778 839 -2.57754e-18 1.02659e-05 1.35713e-06 5.18851e-10 1.03229e-07 
0 0 0 -0.00504655 2.45134e-07 -0.00585813 0 776 4357 -4.34297e-10 1.05147e-05 1.29958e-09 5.24715e-10 1.04396e-07 
0 0 0 0.00869552 -1.35995e-12 -0.00245929 0 776 3193 1.20854e-18 1.05196e-05 2.51265e-19 5.24825e-10 1.04417e-07 
0 0 0 -0.0349143 4.12538e-13 -0.038932 0 776 7846 2.47193e-18 1.05196e-05 2.46992e-18 5.24825e-10 1.04417e-07 
0 0 0 -0.00807861 4.44088e-12 -0.00363967 0 776 2843 1.20865e-18 1.05196e-05 4.28735e-19 5.24825e-10 1.04417e-07 
0 0 0 0.0109957 2.34616e-12 -0.00798805 0 776 4532 1.19802e-18 1.05196e-05 -1.20861e-18 5.24825e-10 1.04417e-07 
0 0 0 0.0196648 -6.35513e-12 -0.0681442 0 776 2062 -1.24539e-18 1.05196e-05 -9.66842e-18 5.24825e-10 1.04417e-07 
0 0 0 -0.00159021 3.31297e-12 -0.0669594 0 776 6387 1.4976e-19 1.05196e-05 -5.9726e-18 5.24825e-10 1.04417e-07 
0 0 0 -0.00239536 3.4741e-12 -0.0568939 0 776 4050 2.99494e-19 1.05196e-05 -6.0739e-18 5.24825e-10 1.04417e-07 
0 0 0 0.0214114 7.32565e-07 -0.0259213 0 776 3877 4.39899e-12 1.05139e-05 -5.32523e-12 5.24795e-10 1.04411e-07 
0 0 0 0.0474883 -5.06605e-12 -0.0537886 0 776 3742 -4.57799e-18 1.05196e-05 6.21829e-18 5.24825e-10 1.04417e-07 
0 0 0 -7.1915e-05 -2.16562e-12 -0.0665442 0 776 1374 -5.66698e-21 1.05196e-05 9.66844e-18 5.24825e-10 1.04417e-07 
0 0 0 -0.00242765 -2.23506e-05 -0.030387 0 776 6154 2.18007e-10 1.07672e-05 2.62912e-10 5.2821e-10 1.05091e-07 
0 0 0 0.015567 1.37935e-12 -0.0228181 0 776 1223 7.18121e-19 1.05196e-05 2.39623e-18 5.24825e-10 1.04417e-07 
0 0 0 0.00805186 1.104e-07 -0.021952 0 776 2748 -1.35927e-07 1.06481e-05 1.0505e-07 5.29116e-10 1.05271e-07 
0 0 0 -0.00807377 3.67436e-05 -0.00852499 0 776 12 1.20563e-09 9.85095e-06 -1.41463e-09 5.10385e-10 1.01544e-07 
0 0 0 0.00981531 3.34737e-11 -0.0247316 0 776 4507 9.1062e-17 1.05196e-05 -2.29395e-16 5.24825e-10 1.04417e-07 
0 0 0 -0.0330491 -2.06567e-05 -0.0116108 0 776 4008 -3.30917e-06 1.50338e-05 6.74932e-06 6.61655e-10 1.31643e-07 
0 0 0 -0.0056321 -5.72004e-05 -0.0013093 0 776 6486 1.50942e-05 4.02886e-06 -2.26146e-06 2.62264e-10 5.21775e-08 
0 0 0 0.00912434 6.76587e-05 -0.00694214 0 776 4459 1.63321e-07 1.44452e-05 7.47457e-08 6.62263e-10 1.31764e-07 
0 0 0 0.00961773 8.41589e-12 -0.000969732 0 776 4483 2.99032e-17 1.05196e-05 -2.98769e-18 5.24825e-10 1.04417e-07 
0 0 0 0.0167686 2.82956e-12 -0.0201645 0 776 481 -2.41727e-18 1.05196e-05 1.87648e-18 5.24825e-10 1.04417e-07 
0 0 0 0.0031972 -2.16562e-12 0.0447887 0 776 1073 0 1.05196e-05 0 5.24825e-10 1.04417e-07 
0 0 0 0.0155961 4.76318e-12 -0.0103878 0 776 2925 -1.98006e-19 1.05196e-05 1.19798e-18 5.24825e-10 1.04417e-07 
0 0 0 0.0173981 -4.25898e-12 -0.010194 0 776 1969 1.97872e-18 1.05196e-05 -1.19807e-18 5.24825e-10 1.04417e-07 
0 0 0 0.0189993 3.15075e-12 -0.0366238 0 776 4893 -2.39579e-18 1.05196e-05 4.79195e-18 5.24825e-10 1.04417e-07 
0 0 0 -0.00104633 -1.52108e-12 -0.0151102 0 776 1306 -1.49749e-19 1.05196e-05 2.3384e-18 5.24825e-10 1.04417e-07 
0 0 0 0.00547534 5.72999e-12 -0.0166882 0 776 7120 -5.30413e-19 1.05196e-05 2.39588e-18 5.24825e-10 1.04417e-07 
0 0 0 0.0206751 -5.45644e-12 -0.029891 0 776 1771 2.41779e-18 1.05196e-05 -4.85825e-18 5.24825e-10 1.04417e-07 
0 0 0 0.0685811 -9.14953e-11 -0.0307294 0 776 6636 -1.72779e-15 1.05196e-05 7.74152e-16 5.24825e-10 1.04417e-07 
0 0 0 0.00631123 1.54048e-12 0.0292141 0 776 5213 -5.58359e-19 1.05196e-05 -1.77769e-18 5.24825e-10 1.04417e-07 
0 0 0 0.0103964 5.56886e-12 0.0311441 0 776 112 -1.2086e-18 1.05196e-05 -4.79204e-18 5.24825e-10 1.04417e-07 
0 0 0 0.00871141 4.44091e-12 -0.00336216 0 776 1974 -1.1979e-18 1.05196e-05 -1.94403e-19 5.24825e-10 1.04417e-07 
0 0 0 -0.000994714 -1.11943e-06 0.0164258 0 776 7392 3.85501e-09 1.05349e-05 -7.06148e-09 5.25094e-10 1.04471e-07 
0 0 0 -0.00201455 0.000209694 0.00637637 0 776 6001 -3.58006e-07 1.30077e-05 1.1069e-06 6.48409e-10 1.29007e-07 
0 0 0 1.07664 -18.4147 11.0145 0 921 7941 0.00351001 -0.0616452 -0.191592 1.53528e-07 3.11499e-05 
0 0 0 -0.0704171 0.0262735 -0.140551 0 779 1376 6.7508e-18 1.02659e-05 1.35713e-06 5.18851e-10 1.03229e-07 
0 0 0 -0.128536 6.51897e-08 0.0209307 0 777 3905 0.00071474 1.05195e-05 -0.000742394 5.24836e-10 1.0442e-07 
0 0 0 0.0424668 -0.000592244 0.0905851 0 777 7286 -0.000143752 2.40576e-06 -0.000266621 4.77716e-11 9.50391e-09 
0 0 0 0.125153 -2.71275e-08 -0.0616114 0 777 6537 -0.000179826 1.05188e-05 9.11212e-05 5.24792e-10 1.04411e-07 
0 0 0 0.190367 -8.60898e-07 0.0362174 0 777 6055 -0.000637037 1.04907e-05 -0.000220855 5.2368e-10 1.0419e-07 
0 0 0 0.0578633 5.55018e-08 0.052194 0 777 7763 5.26004e-06 1.05201e-05 1.15465e-08 5.24855e-10 1.04423e-07 
0 0 0 -0.0635703 -2.81016e-12 0.022783 0 777 7454 6.40762e-18 1.05196e-05 2.41708e-18 5.24825e-10 1.04417e-07 
0 0 0 -0.00571848 -5.54945e-12 -0.00263305 0 777 6450 -6.0432e-19 1.05196e-05 2.56615e-19 5.24825e-10 1.04417e-07 
0 0 0 -0.0177656 4.11864e-12 -0.0217419 0 777 658 2.41721e-18 1.05196e-05 2.41715e-18 5.24825e-10 1.04417e-07 