ITEM: TIMESTEP
10950000
ITEM: NUMBER OF ENTRIES
3156
ITEM: BOX BOUNDS ff ff ff
-0.01 0.45
-0.15 0.15
-0.08 0.1
ITEM: ENTRIES c_pwc[1] c_pwc[2] c_pwc[3] c_pwc[4] c_pwc[5] c_pwc[6] c_pwc[7] c_pwc[8] c_pwc[9] c_pwc[10] c_pwc[11] c_pwc[12] c_pwc[13] c_pwc[14] 
0 0 0 5.44271e-05 1.86416e-06 5.20745e-05 0 776 7649 -4.1099e-10 1.1356e-05 -1.2245e-06 5.52684e-10 1.09961e-07 
0 0 0 3.18932e-05 1.3743e-07 3.85919e-05 0 776 7937 -1.35646e-09 1.06788e-05 -3.90725e-07 5.30136e-10 1.05474e-07 
0 0 0 3.50197e-05 -1.65284e-06 2.05408e-05 0 776 5540 2.36406e-09 1.05794e-05 -1.73649e-07 5.26457e-10 1.04742e-07 
0 0 0 3.43146e-06 -1.2389e-06 1.85611e-05 0 776 1200 7.56824e-08 1.13129e-05 -2.94795e-07 5.50623e-10 1.0955e-07 
0 0 0 -3.98107e-07 -9.06947e-07 1.27363e-05 0 776 1871 2.95934e-07 9.97024e-06 2.7458e-07 5.06194e-10 1.0071e-07 
0 0 0 5.39043e-07 1.6504e-07 7.1645e-06 0 776 1972 2.83446e-08 1.16727e-05 3.21476e-06 5.62543e-10 1.11922e-07 
0 0 0 -1.88253e-06 -8.7763e-07 1.28676e-06 0 776 733 2.76236e-08 1.12547e-05 8.36041e-07 5.48811e-10 1.0919e-07 
0 0 0 -6.61656e-05 -1.05456e-07 -3.78749e-07 0 776 10595 -2.0423e-09 1.19321e-05 -3.97505e-06 5.70789e-10 1.13563e-07 
0 0 0 -1.11852e-05 -6.01123e-07 -1.20826e-06 0 776 894 1.00076e-08 1.16041e-05 -1.57583e-06 5.60173e-10 1.11451e-07 
0 0 0 -2.54039e-06 8.65347e-08 -5.07135e-06 0 776 9680 1.48569e-06 1.16184e-05 7.34496e-08 5.60781e-10 1.11572e-07 
0 0 0 -1.03831e-05 9.72808e-07 -1.47532e-05 0 776 414 -2.02175e-07 1.09479e-05 8.0555e-08 5.39184e-10 1.07274e-07 
0 0 0 -4.95995e-06 2.79186e-07 -5.79327e-06 0 776 206 -4.10126e-06 1.06092e-05 2.81526e-06 5.27863e-10 1.05022e-07 
0 0 0 1.83008e-06 -4.4034e-07 -6.41888e-07 0 776 1894 1.34962e-06 5.94765e-06 9.93503e-07 3.58752e-10 7.13747e-08 
0 0 0 -0.000126884 1.91885e-07 1.1354e-06 0 776 4413 1.09952e-08 1.09306e-05 -1.09848e-06 5.38447e-10 1.07128e-07 
0 0 0 4.22205e-05 -1.20744e-06 4.04937e-06 0 776 9977 -1.94483e-08 1.08327e-05 -5.93495e-07 5.34929e-10 1.06428e-07 
0 0 0 -1.9836e-06 4.87075e-07 4.11541e-06 0 776 1225 1.12521e-07 1.06043e-05 -1.64461e-07 5.27745e-10 1.04998e-07 
0 0 0 -2.35531e-06 -5.65383e-07 -9.15811e-07 0 776 3512 2.56905e-06 1.10002e-05 1.74874e-06 5.4057e-10 1.0755e-07 
0 0 0 2.00778e-06 1.26963e-07 8.05639e-06 0 776 690 -2.65651e-06 1.22233e-05 1.5478e-06 5.80086e-10 1.15413e-07 
0 0 0 -0.000121577 6.87152e-09 -0.000269931 0 776 280 -2.4056e-16 1.05195e-05 -5.17712e-16 5.24825e-10 1.04417e-07 
0 0 0 8.97754e-07 7.39649e-07 4.8718e-07 0 776 2352 -4.88759e-07 1.92478e-05 3.65849e-06 7.85242e-10 1.56234e-07 
0 0 0 -6.32971e-05 4.2098e-07 -1.99269e-07 0 776 5611 2.3583e-08 1.10488e-05 -6.38225e-07 5.42372e-10 1.07909e-07 
0 0 0 -2.70654e-05 5.2406e-07 1.1443e-06 0 776 9269 -1.77454e-08 1.08032e-05 1.49243e-07 5.34329e-10 1.06309e-07 
0 0 0 -4.85843e-06 -1.76708e-06 3.68289e-06 0 776 6408 9.03592e-07 1.1698e-05 7.46564e-07 5.62945e-10 1.12002e-07 
0 0 0 -2.28083e-06 2.54717e-07 8.64868e-07 0 776 101 -8.73594e-07 8.78808e-06 4.2732e-06 4.65587e-10 9.2631e-08 
0 0 0 1.78141e-05 2.52279e-07 6.94457e-07 0 776 317 2.34409e-08 1.15965e-05 4.55103e-06 5.60112e-10 1.11438e-07 
0 0 0 2.33904e-06 -4.12776e-07 -1.39842e-06 0 776 1705 -1.811e-06 5.01761e-06 1.45762e-06 3.20298e-10 6.37238e-08 
0 0 0 1.26793e-06 1.24554e-06 -2.31647e-06 0 776 2116 1.00047e-06 1.10831e-05 3.70865e-07 5.43669e-10 1.08167e-07 
0 0 0 -0.000259024 1.45517e-06 -4.05368e-06 0 776 8455 2.30454e-08 1.04446e-05 -3.87404e-07 5.22644e-10 1.03984e-07 
0 0 0 -4.70845e-06 -2.92435e-06 -1.81286e-06 0 776 11208 4.21828e-07 1.07531e-05 -2.04256e-07 5.31933e-10 1.05832e-07 
0 0 0 -8.62048e-06 -5.22286e-07 -5.9498e-06 0 776 553 -3.12742e-06 9.5406e-06 2.94168e-06 4.91624e-10 9.78115e-08 
0 0 0 -0.000126472 1.02617e-06 -5.04781e-07 0 776 585 -1.86633e-08 1.10934e-05 8.72019e-07 5.43961e-10 1.08225e-07 
0 0 0 -8.4776e-05 8.58612e-07 6.27001e-07 0 776 2069 -5.24011e-09 9.77298e-06 6.74008e-07 4.9988e-10 9.94541e-08 
0 0 0 -3.73496e-07 7.52023e-07 4.88121e-06 0 776 531 -3.46196e-06 1.10072e-05 -2.25173e-06 5.41081e-10 1.07652e-07 
0 0 0 -0.000772146 6.05226e-12 0.00153886 0 776 10613 -3.10605e-20 1.05196e-05 6.22046e-20 5.24825e-10 1.04417e-07 
0 0 0 -1.36779e-05 -1.07369e-05 1.70719e-05 0 776 6702 -3.40031e-06 1.16247e-05 2.76964e-06 5.58678e-10 1.11153e-07 
0 0 0 1.06966e-05 -1.90522e-07 -3.63289e-06 0 776 1002 -5.0841e-08 9.27453e-06 4.02269e-07 4.82512e-10 9.59985e-08 
0 0 0 4.55372e-06 1.89233e-06 -5.54163e-06 0 776 1470 -7.62342e-08 1.08277e-05 -4.84338e-07 5.3543e-10 1.06528e-07 
0 0 0 -1.38037e-05 1.15886e-07 -7.60059e-07 0 776 154 1.47603e-07 1.17574e-05 1.00726e-06 5.65251e-10 1.12461e-07 
0 0 0 1.68124e-05 -1.25053e-06 -1.84006e-05 0 776 1045 -5.93137e-07 1.38406e-05 5.03252e-07 6.29896e-10 1.25324e-07 
0 0 0 -0.000740062 5.18149e-06 3.55274e-05 0 776 12304 3.79068e-06 7.58324e-06 8.42738e-08 4.23131e-10 8.41837e-08 
0 0 0 -0.000142556 -5.07293e-06 -9.5893e-06 0 776 4634 -5.23711e-07 1.37891e-05 -3.17616e-06 6.27541e-10 1.24855e-07 
0 0 0 -0.00012193 3.289e-06 4.8435e-06 0 776 72 -3.86672e-07 1.06356e-05 -2.49298e-06 5.29387e-10 1.05325e-07 
0 0 0 -4.82963e-05 3.61309e-06 -2.17025e-06 0 776 4165 -1.96738e-07 1.22043e-05 -7.05902e-07 5.8022e-10 1.15439e-07 
0 0 0 3.60369e-05 -3.22211e-06 -1.17464e-07 0 776 1920 -4.85212e-07 9.94688e-06 6.95199e-07 5.04897e-10 1.00452e-07 
0 0 0 3.8768e-05 8.03226e-07 -3.98281e-06 0 776 3087 -1.34494e-07 1.27924e-05 2.8175e-06 5.98092e-10 1.18996e-07 
0 0 0 -0.00109532 4.05997e-05 0.000483689 0 776 12917 4.15315e-06 8.76444e-06 -1.39829e-06 4.73754e-10 9.42559e-08 
0 0 0 -0.000179134 -2.85015e-05 -1.67564e-05 0 776 1063 1.59045e-06 1.13926e-05 -1.19752e-06 5.47386e-10 1.08906e-07 
0 0 0 0.000685331 3.15183e-12 -0.000515666 0 776 4185 -3.66587e-20 1.05196e-05 7.55355e-20 5.24825e-10 1.04417e-07 
0 0 0 0.00101881 2.53188e-06 -0.00118359 0 776 4938 6.56014e-13 1.05383e-05 -6.34667e-13 5.25997e-10 1.04651e-07 
0 0 0 6.28414e-05 -2.71111e-06 -4.13552e-05 0 776 18 -5.60245e-07 1.14512e-05 2.8346e-07 5.54792e-10 1.1038e-07 
0 0 0 -0.000335049 9.55391e-05 0.000370335 0 776 10360 1.54253e-06 9.3385e-06 -4.4071e-06 5.0586e-10 1.00644e-07 
0 0 0 -0.0002903 -4.5269e-05 0.000166298 0 776 9715 5.93716e-07 1.36485e-05 -1.758e-06 6.1493e-10 1.22346e-07 
0 0 0 -0.000146873 -1.82097e-07 2.94441e-05 0 776 4095 6.46632e-07 1.18473e-05 3.087e-06 5.68064e-10 1.13021e-07 
0 0 0 0.000156877 -7.47134e-06 -8.84632e-06 0 776 1367 -5.60905e-07 7.86362e-06 2.24539e-06 4.30587e-10 8.56671e-08 
0 0 0 8.25687e-05 7.38947e-06 2.07908e-06 0 776 1036 -4.06991e-07 1.23823e-05 2.73631e-06 5.86635e-10 1.16716e-07 
0 0 0 4.27278e-05 -6.94976e-06 3.57115e-06 0 776 6544 -4.81499e-07 1.2827e-05 4.66477e-06 5.97547e-10 1.18887e-07 
0 0 0 -0.000782894 -1.19881e-12 -0.000322705 0 776 12116 -7.55364e-20 1.05196e-05 2.794e-20 5.24825e-10 1.04417e-07 
0 0 0 0.000487749 1.09997e-05 -0.000179149 0 776 12691 7.1365e-08 1.01794e-05 7.09684e-08 5.15843e-10 1.0263e-07 
0 0 0 -3.25769e-05 -2.32002e-13 0.000230877 0 776 8603 2.96981e-21 1.05196e-05 -3.22085e-20 5.24825e-10 1.04417e-07 
0 0 0 -0.00111451 -1.68222e-12 0.00043768 0 776 9639 -1.51067e-19 1.05196e-05 -2.82318e-20 5.24825e-10 1.04417e-07 
0 0 0 0.000136178 -6.78878e-06 -5.43755e-05 0 776 7185 -6.46714e-07 1.18854e-05 5.31634e-08 5.6788e-10 1.12984e-07 
0 0 0 -7.37898e-05 -1.51145e-05 -0.000103505 0 776 4532 -2.76e-07 1.21607e-05 2.76315e-06 5.74882e-10 1.14377e-07 
0 0 0 4.3931e-05 -1.08987e-05 -0.00165739 0 776 14724 -4.98269e-07 1.08612e-05 2.48665e-08 5.33781e-10 1.06199e-07 
0 0 0 -0.0021403 4.33908e-09 -0.000305126 0 776 9279 3.30918e-15 1.05199e-05 -2.86589e-14 5.24837e-10 1.0442e-07 
0 0 0 -0.000200283 -5.73359e-08 -0.000180513 0 776 3983 -2.98019e-14 1.05198e-05 1.22146e-13 5.24819e-10 1.04416e-07 
0 0 0 7.59891e-05 -1.6946e-08 -6.45719e-05 0 776 3427 -3.02738e-14 1.05194e-05 2.39625e-13 5.24815e-10 1.04416e-07 
0 0 0 -3.03048e-05 6.44399e-06 -0.00010949 0 776 1118 -4.37098e-07 1.05979e-05 9.99432e-08 5.28819e-10 1.05212e-07 
0 0 0 -0.000568841 6.28978e-10 0.000154627 0 776 10496 -9.31176e-17 1.05196e-05 2.61472e-17 5.24826e-10 1.04418e-07 
0 0 0 -0.000229224 3.74742e-07 -0.00019042 0 776 7286 -3.52441e-10 1.05471e-05 4.56588e-10 5.25822e-10 1.04616e-07 
0 0 0 8.09547e-05 -3.08668e-06 -3.1549e-05 0 776 7431 5.03078e-08 1.0566e-05 1.76592e-07 5.257e-10 1.04592e-07 
0 0 0 -2.90289e-06 -6.04664e-06 -0.000169365 0 776 1366 -5.68113e-07 1.02311e-05 4.77494e-08 5.13871e-10 1.02238e-07 
0 0 0 -4.92447e-05 -1.18093e-05 -0.000200356 0 776 10907 -2.0448e-07 1.20189e-05 1.12989e-06 5.71075e-10 1.1362e-07 
0 0 0 0.0016516 4.6288e-08 0.000196512 0 776 7764 2.16084e-14 1.05187e-05 2.54059e-15 5.24807e-10 1.04414e-07 
0 0 0 0.000108898 -3.72203e-08 -0.000365406 0 776 9160 -1.13288e-15 1.05197e-05 3.80049e-15 5.24821e-10 1.04417e-07 
0 0 0 -0.00023222 1.94382e-06 -0.000170774 0 776 5560 -5.49815e-08 1.07261e-05 2.09377e-07 5.32091e-10 1.05863e-07 
0 0 0 0.000258645 -8.39987e-06 -4.71075e-06 0 776 215 -1.08486e-07 1.10843e-05 8.77009e-07 5.4164e-10 1.07763e-07 
0 0 0 0.000101595 -5.79586e-06 1.65694e-06 0 776 1887 -6.49332e-07 1.14114e-05 1.97715e-06 5.52843e-10 1.09992e-07 
0 0 0 -2.50625e-05 -1.62063e-05 -2.1375e-05 0 776 4164 -1.82521e-07 1.16123e-05 2.65419e-06 5.57115e-10 1.10842e-07 
0 0 0 0.00160694 8.3525e-07 0.000309126 0 776 700 4.19138e-10 1.05271e-05 -1.62286e-09 5.25255e-10 1.04503e-07 
0 0 0 0.000340894 -1.06868e-06 -1.42634e-05 0 776 5953 -7.43327e-09 1.05248e-05 2.06547e-08 5.24769e-10 1.04406e-07 
0 0 0 -0.000700039 4.30499e-08 0.000738406 0 776 7893 -8.33529e-15 1.05199e-05 8.79437e-15 5.24845e-10 1.04421e-07 
0 0 0 0.00026472 1.4336e-06 -0.000332473 0 776 11531 2.4326e-10 1.04479e-05 -1.00706e-09 5.2275e-10 1.04005e-07 
0 0 0 -1.81931e-05 -1.29294e-06 -0.000394346 0 776 12872 -1.04781e-07 1.08979e-05 3.79313e-07 5.37056e-10 1.06851e-07 
0 0 0 -7.12487e-05 4.94533e-05 -0.000393763 0 776 11571 -5.2442e-08 1.05255e-05 6.63161e-07 5.35724e-10 1.06586e-07 
0 0 0 -0.000203173 0.000104997 0.00245963 0 776 14434 3.0493e-06 1.78017e-05 -8.36221e-06 7.6608e-10 1.52421e-07 
0 0 0 0.000431832 9.57778e-09 0.000989049 0 776 634 1.15858e-15 1.05195e-05 2.65202e-15 5.24825e-10 1.04417e-07 
0 0 0 -0.000155641 -2.6187e-07 -0.00124046 0 776 7313 -4.97954e-12 1.05203e-05 2.32365e-12 5.24794e-10 1.04411e-07 
0 0 0 -0.000287374 -8.39971e-06 -0.00180796 0 776 5950 -3.30035e-07 1.10979e-05 7.73039e-07 5.42087e-10 1.07852e-07 
0 0 0 -0.000571188 0.000233169 0.00168512 0 776 6272 -8.94546e-06 8.62675e-07 -4.93151e-07 1.74384e-10 3.46933e-08 
0 0 0 0.00112192 -3.47936e-08 0.001402 0 776 5167 -1.0718e-14 1.0519e-05 -1.33946e-14 5.24799e-10 1.04412e-07 
0 0 0 0.0010678 3.48088e-05 -0.000259489 0 776 10156 -3.76808e-07 9.73916e-06 1.06399e-07 5.06169e-10 1.00705e-07 
0 0 0 0.000171067 1.75199e-05 -0.00065299 0 776 9271 -4.48459e-08 1.06243e-05 3.98801e-07 5.32087e-10 1.05862e-07 
0 0 0 7.78376e-06 -1.68113e-05 -0.000684731 0 776 3509 4.07464e-07 1.10063e-05 8.25024e-07 5.3728e-10 1.06896e-07 
0 0 0 -0.00129609 -1.10195e-05 -0.000924757 0 776 4298 -2.22472e-07 1.12385e-05 8.6828e-07 5.46112e-10 1.08653e-07 
0 0 0 0.000740357 4.62689e-05 0.000173998 0 776 14186 -5.11669e-06 1.39103e-05 -4.71101e-06 6.41826e-10 1.27697e-07 
0 0 0 0.000727425 -6.2798e-05 -0.000471453 0 776 7053 -3.22161e-06 1.23651e-05 -1.96531e-06 5.71305e-10 1.13666e-07 
0 0 0 0.000116989 -1.53162e-06 -0.000637374 0 776 209 1.99911e-07 1.07533e-05 1.75178e-07 5.32238e-10 1.05892e-07 
0 0 0 0.000291772 -5.69716e-09 -0.000435113 0 776 8382 -3.60702e-16 1.0519e-05 2.48638e-16 5.24806e-10 1.04414e-07 
0 0 0 5.11764e-05 3.46678e-06 -0.000877056 0 776 2799 5.6898e-07 1.15158e-05 1.51631e-06 5.58195e-10 1.11057e-07 
0 0 0 -0.00241419 -3.61584e-12 -2.39894e-05 0 776 9615 -2.99524e-19 1.05196e-05 -2.36061e-21 5.24825e-10 1.04417e-07 
0 0 0 -0.000195922 -1.17648e-06 -0.000286833 0 776 7800 2.8563e-07 1.04995e-05 1.40805e-07 5.23904e-10 1.04234e-07 
0 0 0 -0.00770914 -6.03286e-12 -6.64227e-05 0 776 9721 5.70245e-19 1.05196e-05 -5.91639e-22 5.24825e-10 1.04417e-07 
0 0 0 -0.00285023 2.02389e-12 0.000990865 0 776 3286 -1.82812e-19 1.05196e-05 1.49757e-19 5.24825e-10 1.04417e-07 
0 0 0 0.000537156 -2.74072e-05 -0.000705605 0 776 13004 -1.35144e-06 1.1344e-05 -4.43101e-07 5.46041e-10 1.08639e-07 
0 0 0 -0.00109048 5.53804e-08 -0.000287769 0 776 9809 -3.35539e-09 1.05538e-05 4.40338e-08 5.25976e-10 1.04646e-07 
0 0 0 -0.000189413 4.42126e-06 -0.000355111 0 776 5373 3.62827e-07 1.07617e-05 5.9708e-07 5.33802e-10 1.06203e-07 
0 0 0 0.000123455 -2.2773e-08 0.000613807 0 776 1306 -7.4088e-16 1.05196e-05 -4.00308e-15 5.24822e-10 1.04417e-07 
0 0 0 -0.000475044 8.2402e-09 -0.000447844 0 776 7072 -1.11191e-15 1.05194e-05 -1.04825e-15 5.2482e-10 1.04417e-07 
0 0 0 0.000712374 -4.17535e-07 -3.7082e-06 0 776 3631 -2.82564e-07 1.076e-05 3.0813e-07 5.32703e-10 1.05985e-07 
0 0 0 0.000125845 2.2843e-06 -0.000523889 0 776 7750 -5.71558e-07 1.29702e-05 3.00786e-06 6.0393e-10 1.20157e-07 
0 0 0 -0.000342557 2.22413e-08 -0.00105187 0 776 7121 1.23994e-13 1.05197e-05 1.80713e-14 5.24833e-10 1.04419e-07 
0 0 0 0.00113961 8.18854e-07 0.000446165 0 776 7846 -6.70449e-08 1.05881e-05 6.19593e-08 5.27279e-10 1.04906e-07 
0 0 0 0.000662405 -1.40665e-05 -0.00208045 0 776 6920 1.3286e-06 1.29166e-05 1.91055e-06 5.98847e-10 1.19146e-07 
0 0 0 0.00092489 1.59088e-06 -0.000813396 0 776 9654 4.2594e-09 1.04718e-05 -5.196e-09 5.23581e-10 1.0417e-07 
0 0 0 -0.000330987 1.27655e-07 -0.00118098 0 776 7763 2.38193e-13 1.05177e-05 -8.1301e-14 5.24791e-10 1.04411e-07 
0 0 0 -9.95086e-05 3.19294e-07 -0.00137216 0 776 4357 2.42851e-08 1.05748e-05 8.18819e-08 5.26728e-10 1.04796e-07 
0 0 0 0.000513994 -2.96853e-06 -0.00150637 0 776 7583 9.75255e-08 1.09541e-05 5.60158e-07 5.38541e-10 1.07147e-07 
0 0 0 0.00153051 8.81617e-06 -0.00173572 0 776 1352 -7.42299e-07 1.19604e-05 1.94373e-06 5.73581e-10 1.14118e-07 
0 0 0 -0.000585442 8.94404e-07 5.593e-05 0 776 9156 -5.87754e-12 1.05215e-05 -1.58339e-12 5.25083e-10 1.04469e-07 
0 0 0 -0.000286006 -4.26238e-08 1.63231e-05 0 776 6792 4.33135e-15 1.05176e-05 9.56217e-16 5.24752e-10 1.04403e-07 
0 0 0 0.000252346 -1.50706e-06 -0.000852433 0 776 1969 -6.50068e-12 1.05252e-05 -1.03398e-11 5.24687e-10 1.0439e-07 
0 0 0 -0.000124897 -6.40013e-06 -0.000798129 0 776 221 1.37053e-06 1.05562e-05 -4.6673e-06 5.24657e-10 1.04384e-07 
0 0 0 -0.000339343 1.42369e-05 0.000528921 0 776 3055 -8.01113e-08 1.05106e-05 -2.87707e-09 5.27607e-10 1.04971e-07 
0 0 0 0.004023 -5.87173e-12 -0.00118919 0 776 570 5.98948e-19 1.05196e-05 -7.38137e-20 5.24825e-10 1.04417e-07 
0 0 0 0.00135535 1.1391e-05 -0.00120121 0 776 6387 -1.54506e-07 1.18835e-05 9.34558e-07 5.71676e-10 1.13739e-07 
0 0 0 -0.000711554 3.54129e-05 2.48928e-05 0 776 8712 -5.09154e-07 1.04684e-05 -8.6487e-07 5.30791e-10 1.05605e-07 
0 0 0 -0.000140813 1.51301e-05 -0.000285332 0 776 6055 4.94931e-08 1.102e-05 3.99461e-07 5.44589e-10 1.0835e-07 
0 0 0 -1.55942e-07 8.71643e-05 -0.000154776 0 776 8814 1.18953e-07 9.16337e-06 -3.997e-07 4.97993e-10 9.90787e-08 
0 0 0 -0.000103083 -0.000656244 -0.00225779 0 776 8325 5.75731e-06 3.55101e-05 1.67957e-05 1.06502e-09 2.11908e-07 
0 0 0 0.00334 -0.000192205 -0.00062621 0 776 8088 -2.19221e-07 8.1673e-06 1.80754e-06 3.99974e-10 7.95763e-08 
0 0 0 0.000899709 2.09852e-05 0.00194505 0 776 4008 -1.5284e-10 1.04877e-05 1.66373e-10 5.28309e-10 1.05111e-07 
0 0 0 -0.000303489 -5.42288e-06 0.00228866 0 776 2925 8.45651e-13 1.06074e-05 -2.17577e-12 5.26569e-10 1.04764e-07 
0 0 0 0.00255507 -6.08156e-09 -0.00155275 0 776 7454 -1.05398e-06 1.22335e-05 1.16801e-06 5.8038e-10 1.15471e-07 
0 0 0 0.000141392 1.86427e-05 0.000589604 0 776 5213 9.22415e-07 6.60561e-06 -2.24769e-07 3.89217e-10 7.74359e-08 
0 0 0 -0.000119494 5.72963e-12 -0.00326129 0 776 1376 1.44849e-20 1.05196e-05 4.79584e-19 5.24825e-10 1.04417e-07 
0 0 0 -0.000219462 5.42299e-12 -0.0107249 0 776 6636 -2.31459e-20 1.05196e-05 -1.22713e-18 5.24825e-10 1.04417e-07 
0 0 0 0.00152866 5.95001e-06 -0.0042761 0 776 3905 1.90262e-07 1.10087e-05 5.02013e-07 5.42248e-10 1.07884e-07 
0 0 0 -0.000616985 2.66841e-12 -0.00382624 0 776 7120 7.48781e-20 1.05196e-05 6.0169e-19 5.24825e-10 1.04417e-07 
0 0 0 1.74016e-05 0.000100109 -0.00365856 0 776 2205 -9.10232e-08 1.02248e-05 -2.67498e-07 5.36744e-10 1.06789e-07 
0 0 0 -0.000462668 6.43239e-05 -0.00959652 0 776 4654 1.20708e-08 1.01709e-05 -6.37821e-08 5.27162e-10 1.04882e-07 
0 0 0 -0.00184709 -0.00015421 -0.000436316 0 776 4821 5.69482e-08 9.94714e-06 1.85519e-07 4.7193e-10 9.3893e-08 
0 0 0 0.000449987 -0.000109346 -0.00335856 0 776 382 1.66435e-08 1.07274e-05 2.18659e-08 5.08128e-10 1.01095e-07 
0 0 0 -0.0019174 4.43138e-05 -0.000775962 0 776 4483 4.58213e-06 2.43689e-05 1.129e-05 9.27132e-10 1.84468e-07 
0 0 0 -4.72494e-05 1.65377e-08 -0.000117496 0 776 758 1.26227e-14 1.05196e-05 -1.87458e-15 5.24828e-10 1.04418e-07 
0 0 0 -0.00127953 2.55336e-05 -0.0018214 0 776 112 4.9101e-08 1.03668e-05 9.07652e-08 5.25271e-10 1.04506e-07 
0 0 0 -0.0016959 -0.000119291 -0.000169438 0 776 3641 5.65774e-06 4.80744e-06 1.03386e-05 2.81985e-10 5.61012e-08 
0 0 0 0.000295678 -1.72238e-05 -0.000693296 0 776 7706 1.7764e-09 1.07109e-05 -7.50461e-09 5.27452e-10 1.0494e-07 
0 0 0 -0.00158307 1.10985e-05 -0.00141013 0 776 3393 -7.76667e-07 1.20834e-05 3.96533e-07 5.77971e-10 1.14992e-07 
0 0 0 -2.55509e-05 6.41884e-06 5.95387e-05 0 776 7811 1.29916e-06 1.27407e-05 -1.02205e-06 5.97659e-10 1.18909e-07 
0 0 0 -1.8852e-06 4.57117e-06 -2.56861e-05 0 776 9095 -9.10449e-07 1.17076e-05 1.46637e-06 5.646e-10 1.12331e-07 
0 0 0 4.16006e-05 1.13991e-05 3.47457e-06 0 776 5889 -5.98654e-07 1.4432e-05 -5.08418e-07 6.5032e-10 1.29387e-07 
0 0 0 0.000659865 -2.3383e-05 0.000128673 0 778 16349 -2.21556e-07 7.28363e-06 1.02615e-06 4.13333e-10 8.22343e-08 
0 0 0 7.27884e-09 1.11824e-06 5.20756e-06 0 778 14170 1.90509e-07 1.11083e-05 -8.94373e-07 5.33063e-10 1.06057e-07 
0 0 0 -3.312e-05 -1.48724e-05 2.3399e-05 0 778 12757 -2.18447e-09 1.07906e-05 -5.22409e-07 5.223e-10 1.03915e-07 
0 0 0 1.46958e-05 -2.50789e-06 4.97839e-05 0 778 3129 4.68888e-09 1.09018e-05 -1.02835e-07 5.32161e-10 1.05877e-07 
0 0 0 0.000815699 -0.000123588 0.000692808 0 778 4719 2.81107e-08 9.61464e-06 1.14282e-06 4.97142e-10 9.89094e-08 
0 0 0 -0.00280388 -2.03807e-06 -8.19118e-06 0 778 15555 1.30843e-07 1.13523e-05 1.95777e-06 5.56803e-10 1.1078e-07 
0 0 0 -3.23029e-05 -2.2838e-06 2.26946e-06 0 778 7654 1.06852e-08 1.05899e-05 3.76663e-06 5.4362e-10 1.08157e-07 
0 0 0 -7.85094e-05 -4.32763e-07 3.95391e-07 0 778 8040 -1.18069e-09 7.78776e-06 4.31315e-08 4.24823e-10 8.45203e-08 
0 0 0 0.0167392 -0.00133032 0.00711661 0 778 7470 -6.63867e-07 1.13165e-05 3.23907e-06 5.63995e-10 1.12211e-07 
0 0 0 0.0210069 -0.00446715 0.0238973 0 778 689 7.50404e-10 1.02658e-05 1.3568e-06 5.18854e-10 1.03229e-07 
0 0 0 0.000896434 -4.40261e-06 3.0269e-05 0 778 14527 7.43263e-10 9.64881e-06 1.20065e-06 4.97647e-10 9.90099e-08 
0 0 0 1.57925e-05 -4.23741e-06 1.17113e-05 0 778 17336 6.82456e-08 1.01693e-05 3.85358e-07 5.09222e-10 1.01313e-07 
0 0 0 -6.33926e-05 3.35027e-07 2.30466e-06 0 778 14580 1.38866e-07 1.07886e-05 5.13406e-07 5.30946e-10 1.05635e-07 
0 0 0 -0.000832586 7.20556e-06 -3.07978e-05 0 778 5338 3.13801e-09 9.69251e-06 1.17511e-06 4.98995e-10 9.9278e-08 
0 0 0 3.45939e-05 -4.99699e-06 8.02059e-06 0 778 15828 -2.52545e-08 1.01742e-05 3.14745e-07 5.08636e-10 1.01196e-07 
0 0 0 -0.000139638 2.4205e-06 -3.98041e-06 0 778 14360 1.67516e-07 1.10932e-05 6.45719e-07 5.41791e-10 1.07793e-07 
0 0 0 0.0083577 -0.000133866 0.000727406 0 778 11726 1.76315e-08 9.74208e-06 1.18073e-06 5.00833e-10 9.96438e-08 
0 0 0 -0.000661854 -1.49702e-06 1.2264e-05 0 778 988 1.90715e-08 1.04345e-05 8.78154e-07 5.21616e-10 1.03779e-07 
0 0 0 5.84383e-06 3.30918e-07 6.35924e-06 0 778 15381 7.09669e-07 1.05642e-05 1.68973e-07 5.21676e-10 1.03791e-07 
0 0 0 4.66318e-05 -2.62354e-07 9.09531e-06 0 778 12332 1.90858e-07 1.07762e-05 -2.75164e-07 5.2588e-10 1.04627e-07 
0 0 0 -0.000684444 -1.41917e-06 -1.57431e-05 0 778 14539 2.87276e-08 9.59218e-06 1.18707e-06 4.94446e-10 9.8373e-08 
0 0 0 6.1761e-06 3.94787e-06 -2.00442e-05 0 778 8467 5.36172e-07 1.02506e-05 9.94986e-07 5.16162e-10 1.02694e-07 
0 0 0 -0.000207125 -2.28726e-05 0.000122852 0 778 17589 1.97699e-07 1.02999e-05 1.47709e-06 5.20724e-10 1.03601e-07 
0 0 0 -0.000367257 -8.66429e-07 2.51749e-05 0 778 13923 7.99136e-08 9.75123e-06 1.38121e-06 5.02765e-10 1.00028e-07 
0 0 0 1.43495e-05 -8.57909e-06 -1.49926e-06 0 778 12335 5.67966e-07 1.02998e-05 9.26823e-08 5.10276e-10 1.01523e-07 
0 0 0 -7.27892e-06 1.33752e-06 -1.76772e-05 0 778 752 9.53417e-07 1.09118e-05 -1.41438e-06 5.22625e-10 1.0398e-07 
0 0 0 3.19768e-06 1.23029e-05 -2.5048e-05 0 778 16821 6.29754e-07 1.27852e-05 2.07426e-07 5.93664e-10 1.18114e-07 
0 0 0 0.000187261 -7.33024e-05 0.000451111 0 778 15203 -3.7697e-07 8.77514e-06 1.28182e-06 4.70525e-10 9.36134e-08 
0 0 0 0.000257896 -0.000118887 0.000509356 0 778 2108 1.61313e-06 1.07661e-05 1.22321e-06 5.29345e-10 1.05317e-07 
0 0 0 -1.6013e-05 -6.13339e-06 9.40996e-05 0 778 15785 1.03186e-06 1.10526e-05 1.52453e-06 5.47824e-10 1.08994e-07 
0 0 0 0.00011916 -4.86375e-05 0.000417173 0 778 13645 -1.04495e-06 9.15987e-06 -9.77855e-07 4.73235e-10 9.41526e-08 
0 0 0 0.000195794 -4.9143e-05 0.000419686 0 778 7967 7.50091e-07 8.87298e-06 6.84371e-07 4.7405e-10 9.43148e-08 
0 0 0 8.00513e-05 -7.22225e-05 -0.000136143 0 778 4848 3.27226e-07 6.77971e-06 5.91436e-07 3.68971e-10 7.34078e-08 
0 0 0 -0.0405598 -0.00409475 0.021905 0 778 18396 -6.56135e-19 1.02659e-05 1.35708e-06 5.18851e-10 1.03229e-07 
0 0 0 0.00453916 -0.000577402 0.00323821 0 778 11974 1.26509e-07 9.63052e-06 1.2587e-06 5.03149e-10 1.00105e-07 
0 0 0 0.00556663 -0.000617255 0.0031356 0 778 13872 -4.49298e-08 9.08126e-06 9.06275e-07 4.69462e-10 9.34019e-08 
0 0 0 1.65298e-05 -3.38616e-05 0.00023137 0 778 18001 -2.21469e-06 1.08443e-05 -1.45569e-06 5.2258e-10 1.03971e-07 
0 0 0 -0.000187875 -0.000221225 0.000904462 0 778 16369 -1.34571e-06 1.06836e-05 6.74373e-07 5.1727e-10 1.02914e-07 
0 0 0 -0.000261525 -8.1154e-05 0.000420653 0 778 13527 -3.53108e-06 8.9734e-06 -8.72332e-07 4.60454e-10 9.16097e-08 
0 0 0 0.00161214 6.2259e-05 0.000403253 0 778 1637 -7.28543e-06 1.96015e-05 -6.07516e-07 8.09096e-10 1.60981e-07 
0 0 0 -0.0375017 -0.00747517 0.0399886 0 778 702 -3.5615e-18 1.02659e-05 1.35713e-06 5.18851e-10 1.03229e-07 
0 0 0 0.0108481 -0.00247045 0.0130668 0 778 16168 3.4847e-10 1.06799e-05 1.43836e-06 5.26967e-10 1.04844e-07 
0 0 0 0.00178308 -0.000297859 0.00206818 0 778 17453 -2.52851e-08 8.55316e-06 1.01493e-06 4.78179e-10 9.51364e-08 
0 0 0 0.0022365 -0.00152243 0.00848273 0 778 15517 1.81192e-06 8.82959e-06 2.08542e-06 4.88968e-10 9.72831e-08 
0 0 0 -0.0129417 -0.0129674 0.0693692 0 778 6441 -1.36405e-18 1.02659e-05 1.35713e-06 5.18851e-10 1.03229e-07 
0 0 0 0.00845864 0.000114701 -0.000326153 0 778 12749 -2.27775e-08 1.25874e-05 2.14456e-06 6.08204e-10 1.21008e-07 
0 0 0 0.000591281 0.000106021 -9.12339e-05 0 778 10441 -3.27715e-06 1.18947e-05 2.21295e-06 5.94604e-10 1.18301e-07 
0 0 0 -0.0252625 0.00262125 -0.0140224 0 778 3783 -9.83103e-17 1.02659e-05 1.35713e-06 5.18851e-10 1.03229e-07 
0 0 0 0.00339219 -0.00188525 0.0100852 0 778 2010 -1.34889e-18 1.02659e-05 1.35713e-06 5.18851e-10 1.03229e-07 
0 0 0 0.00221575 -0.000880118 0.00502484 0 778 9574 2.71047e-06 1.8085e-05 2.47309e-07 7.57379e-10 1.5069e-07 
0 0 0 -0.025297 0.0014709 -0.00786859 0 778 16602 -2.4897e-14 1.02658e-05 1.35713e-06 5.1885e-10 1.03229e-07 
0 0 0 -0.00205406 0.000326565 -0.00128671 0 778 7627 1.73877e-07 6.62364e-06 1.60781e-06 4.12291e-10 8.2027e-08 
0 0 0 0.00720235 -0.00275654 0.0147462 0 778 17465 1.78801e-19 1.02659e-05 1.35713e-06 5.18851e-10 1.03229e-07 
0 0 0 -0.0092733 0.00220176 -0.0117784 0 778 5728 -1.01899e-14 1.02659e-05 1.35713e-06 5.18851e-10 1.03229e-07 
0 0 0 -0.00388485 0.00156627 -0.00837028 0 778 9644 -1.33155e-12 1.03072e-05 1.3653e-06 5.206e-10 1.03577e-07 
0 0 0 0.0100757 0.0104353 -0.055824 0 778 1903 1.23703e-15 1.02659e-05 1.35714e-06 5.18852e-10 1.03229e-07 
0 0 0 0.00146891 0.00292931 -0.0158544 0 778 17720 3.43915e-10 1.05763e-05 1.41607e-06 5.22066e-10 1.03868e-07 
0 0 0 -0.149991 0.095143 -0.50897 0 778 16870 1.24406e-06 9.24304e-06 6.83353e-06 5.18866e-10 1.03232e-07 
0 0 0 -0.0364745 -0.00393203 0.0210345 0 778 4132 1.15583e-18 1.02659e-05 1.35713e-06 5.18851e-10 1.03229e-07 
0 0 0 0.0113374 0.00340861 -0.0252301 0 778 6450 -3.85938e-05 5.25521e-06 1.55951e-05 1.61706e-10 3.2171e-08 
0 0 0 -0.0045033 -7.47341e-05 0.000441499 0 778 9557 5.56249e-13 1.00992e-05 1.32504e-06 5.14825e-10 1.02428e-07 
0 0 0 -0.0127035 8.38135e-05 -0.000465286 0 778 3551 1.14494e-05 4.62862e-06 9.049e-07 3.06662e-10 6.10108e-08 
0 0 0 0.011441 -0.00258926 0.0138513 0 778 17490 -1.63364e-19 1.02659e-05 1.35713e-06 5.18851e-10 1.03229e-07 
0 0 0 -0.00102669 0.00179007 -0.0103709 0 778 15810 8.57951e-08 8.57259e-06 1.22123e-06 4.28029e-10 8.51582e-08 
0 0 0 -0.00447773 0.000690277 -0.00378461 0 778 6537 4.2087e-07 1.09985e-05 2.21978e-06 5.44221e-10 1.08277e-07 
0 0 0 0.00399735 0.000947941 -0.0050706 0 778 18020 8.79923e-14 1.02655e-05 1.35706e-06 5.18855e-10 1.0323e-07 
0 0 0 0.00252196 0.000795799 -0.00632709 0 778 8211 6.48458e-08 1.00326e-05 1.31401e-06 4.28145e-10 8.51814e-08 
0 0 0 0.0116973 0.000802875 -0.00429848 0 778 5801 -2.01798e-12 1.02523e-05 1.35444e-06 5.18248e-10 1.03109e-07 
0 0 0 0.00533297 0.0017012 -0.00910093 0 778 15694 8.37625e-13 1.02665e-05 1.35725e-06 5.1886e-10 1.03231e-07 
0 0 0 0.00171277 0.000476758 -0.00288916 0 778 338 4.28633e-08 1.03046e-05 1.36541e-06 5.06674e-10 1.00806e-07 
0 0 0 0.00739133 0.000233704 -0.00125037 0 778 853 -6.47443e-14 1.02659e-05 1.35714e-06 5.18845e-10 1.03228e-07 
0 0 0 0.0133831 9.16497e-05 -0.000875724 0 778 15188 -5.66791e-10 1.07799e-05 1.45405e-06 5.20959e-10 1.03648e-07 
0 0 0 -0.0292672 -0.00283332 0.0151569 0 778 11852 -1.0614e-18 1.02659e-05 1.35713e-06 5.18851e-10 1.03229e-07 
0 0 0 0.00567021 -0.000838552 0.00448708 0 778 8602 -3.87272e-09 1.02735e-05 1.35394e-06 5.1913e-10 1.03284e-07 
0 0 0 0.00206935 -0.0012559 0.00658337 0 778 5232 -7.51824e-08 9.53257e-06 1.2408e-06 4.88263e-10 9.71428e-08 
0 0 0 -0.00200845 -0.000507052 0.00287946 0 778 7503 -8.20774e-08 1.03807e-05 1.49112e-06 5.30084e-10 1.05464e-07 
0 0 0 -0.00524475 -0.00203243 0.0108569 0 778 16057 3.38943e-07 1.0456e-05 1.62458e-06 5.26096e-10 1.0467e-07 
0 0 0 0.00398623 0.000181772 -0.00102213 0 778 4160 -7.51766e-07 1.03114e-05 9.95112e-07 5.16138e-10 1.02689e-07 
0 0 0 -0.00111729 -7.93051e-05 0.000290751 0 778 4777 -2.50835e-09 1.04119e-05 1.3989e-06 5.18585e-10 1.03176e-07 
0 0 0 -0.0010935 -5.97607e-05 0.000352895 0 778 9184 3.19222e-07 1.03344e-05 2.66884e-06 5.30434e-10 1.05534e-07 
0 0 0 -0.000271238 -3.78372e-05 8.32218e-05 0 778 7257 6.64696e-07 9.58021e-06 1.23871e-06 4.905e-10 9.75879e-08 
0 0 0 -0.000252704 -1.68105e-05 0.000286888 0 778 924 -1.08219e-07 8.83483e-06 1.70328e-06 4.80932e-10 9.56841e-08 
0 0 0 -0.0156672 -0.00203755 0.0108733 0 778 4489 1.72315e-08 9.92769e-06 1.79316e-06 5.09311e-10 1.01331e-07 
0 0 0 -2.11315e-05 -1.71219e-05 6.20204e-05 0 778 13493 1.884e-06 1.04113e-05 1.29675e-07 5.14903e-10 1.02443e-07 
0 0 0 -0.00013953 -2.77395e-07 0.00011074 0 778 11962 -6.18822e-09 1.29623e-05 -2.05048e-07 5.99375e-10 1.19251e-07 
0 0 0 0.000271854 -6.59232e-05 4.40831e-06 0 778 10116 -2.6631e-08 1.10382e-05 2.27574e-06 5.35752e-10 1.06591e-07 
0 0 0 0.0661729 -0.0151265 0.0390461 0 780 17917 2.73519e-18 9.53905e-06 2.53098e-06 5.00925e-10 9.96621e-08 
0 0 0 0.0677626 0.0124108 -0.0200441 0 782 11428 2.95163e-17 8.43728e-06 3.363e-06 4.71018e-10 9.37115e-08 
0 0 0 18.6102 -22.4896 7.86098 0 924 4107 0.061529 0.0203959 0.0529823 2.77248e-08 5.53482e-06 
0 0 0 8.89929e-06 7.88199e-07 1.69115e-06 0 775 210 -1.47143e-08 1.0449e-05 -1.71993e-06 5.2717e-10 1.04884e-07 
0 0 0 1.04237e-05 3.83497e-06 4.20315e-06 0 775 6076 4.85233e-07 9.91395e-06 -1.81832e-06 5.1073e-10 1.01613e-07 
0 0 0 9.38681e-06 7.91458e-07 4.62268e-06 0 775 12 -2.59225e-06 9.98912e-06 1.92438e-06 4.89137e-10 9.73167e-08 
0 0 0 8.46104e-05 -8.78527e-06 -4.98784e-05 0 775 4248 -9.4827e-08 1.01141e-05 -1.36019e-06 5.13984e-10 1.0226e-07 
0 0 0 5.15125e-06 -7.12095e-06 -1.89036e-05 0 775 3998 -7.79999e-07 1.20616e-05 2.3092e-06 5.53991e-10 1.10221e-07 
0 0 0 1.95461e-05 -4.7404e-06 -3.23941e-05 0 775 9210 -9.35894e-07 8.98559e-06 2.99169e-07 4.6545e-10 9.26036e-08 
0 0 0 8.49819e-05 -3.45999e-06 -0.000127048 0 775 5900 -1.77092e-06 1.06651e-05 -1.6962e-06 5.38249e-10 1.07088e-07 
0 0 0 0.000163377 -8.6146e-05 -0.000504584 0 775 1890 -1.47519e-09 9.98957e-06 -1.41484e-06 5.11836e-10 1.01833e-07 
0 0 0 2.12586e-05 -5.26045e-05 -0.000230246 0 775 6574 -1.04796e-06 1.078e-05 -1.0332e-07 5.25977e-10 1.04647e-07 
0 0 0 -0.000419451 -1.71951e-05 -0.000117778 0 775 1749 -6.24719e-07 1.10295e-05 8.12259e-07 5.31583e-10 1.05762e-07 
0 0 0 8.63074e-05 -2.90195e-05 -0.000154275 0 775 3630 -3.8036e-07 1.17091e-05 2.09084e-07 5.5598e-10 1.10616e-07 
0 0 0 -0.000213661 -0.000129576 -8.50997e-05 0 775 11044 -1.40455e-06 1.07371e-05 2.0296e-06 4.89203e-10 9.73298e-08 
0 0 0 -0.00062547 -0.000346732 -0.00241552 0 775 8128 2.06488e-07 7.86938e-06 -6.84253e-07 4.55596e-10 9.0643e-08 
0 0 0 -0.000136061 -0.000450234 -0.00186421 0 775 7844 -1.05848e-06 1.30599e-05 1.67849e-06 5.68669e-10 1.13141e-07 
0 0 0 -6.47246e-06 2.90174e-06 -0.000471314 0 775 1039 -1.70325e-07 1.02648e-05 -1.06533e-06 5.36453e-10 1.06731e-07 
0 0 0 -0.000670057 -0.000104708 -0.000374395 0 775 10606 -1.64706e-07 9.68309e-06 -3.62362e-07 4.85754e-10 9.66436e-08 
0 0 0 0.000278292 -0.000162129 -0.000854228 0 775 8439 3.7841e-08 1.02091e-05 -9.63982e-07 5.14036e-10 1.02271e-07 
0 0 0 4.37947e-05 -0.000172216 -0.000893443 0 775 5313 1.72911e-07 1.0743e-05 -4.75726e-07 5.27967e-10 1.05043e-07 
0 0 0 -0.000123469 -0.000121506 -0.000774691 0 775 6782 1.10027e-06 1.05227e-05 -3.4332e-07 5.26028e-10 1.04657e-07 