ITEM: TIMESTEP
6350000
ITEM: NUMBER OF ENTRIES
230
ITEM: BOX BOUNDS ff ff ff
-0.01 0.45
-0.15 0.15
-0.08 0.1
ITEM: ENTRIES c_pwc[1] c_pwc[2] c_pwc[3] 
0 850 41 
0 885 41 
0 855 261 
0 894 715 
0 855 189 
0 894 629 
0 894 431 
0 894 2 
0 894 145 
0 894 693 
0 894 118 
0 894 122 
0 855 407 
0 855 704 
0 855 343 
0 855 598 
0 930 773 
1 1861 146 
1 1874 146 
1 1873 146 
1 529 146 
1 1883 146 
1 530 146 
1 1826 146 
1 1828 146 
1 1842 146 
1 1830 146 
1 1831 146 
1 1827 146 
1 526 146 
1 527 146 
1 541 146 
1 523 146 
1 1871 146 
1 1869 146 
1 1868 146 
1 1892 146 
1 1893 146 
1 1885 146 
1 2703 752 
1 2723 752 
1 2698 752 
1 2717 752 
0 885 270 
0 885 48 
0 885 127 
0 885 52 
0 885 276 
0 885 79 
0 885 351 
0 885 45 
0 885 39 
0 885 393 
0 850 270 
0 850 48 
0 850 127 
0 850 52 
0 850 276 
0 850 79 
0 850 351 
0 850 45 
0 851 39 
0 851 393 
1 2694 296 
0 894 321 
0 894 424 
0 895 240 
0 895 720 
0 921 411 
0 961 40 
0 753 40 
0 886 15 
0 885 15 
0 850 15 
0 893 601 
0 892 658 
0 892 6 
0 895 601 
0 888 121 
0 888 745 
0 393 300 
0 373 498 
0 367 429 
0 435 636 
0 405 175 
0 415 694 
0 384 585 
0 378 667 
0 383 275 
0 390 477 
0 388 614 
0 389 57 
0 386 336 
0 372 509 
0 368 107 
0 367 461 
0 396 497 
0 401 238 
0 436 554 
0 436 637 
0 437 346 
0 437 129 
0 433 225 
0 406 733 
0 404 326 
0 422 537 
0 420 445 
0 418 608 
0 411 737 
0 411 228 
0 537 494 
0 535 212 
0 527 148 
0 386 682 
0 382 98 
0 380 269 
0 380 366 
0 376 156 
1 1745 148 
1 1746 148 
0 539 190 
0 521 266 
0 519 75 
0 372 251 
0 372 279 
0 370 292 
0 364 578 
0 374 398 
0 402 569 
0 398 365 
0 438 367 
0 434 609 
0 434 223 
0 555 611 
0 410 18 
0 577 500 
0 569 87 
0 537 143 
0 535 191 
0 535 520 
0 527 177 
0 527 134 
0 530 413 
0 538 568 
0 519 645 
0 519 353 
0 524 372 
0 520 360 
0 589 328 
0 583 163 
0 559 176 
0 555 258 
0 555 38 
0 573 85 
0 573 214 
0 571 59 
0 574 64 
0 567 5 
0 565 376 
0 565 470 
0 563 101 
0 564 358 
0 538 401 
0 534 422 
0 532 478 
0 530 691 
0 528 113 
0 528 307 
0 546 421 
0 546 83 
0 542 35 
0 543 151 
0 519 265 
0 519 220 
0 526 89 
0 526 518 
0 588 234 
0 584 408 
0 517 444 
0 562 298 
0 572 166 
0 581 670 
0 568 97 
0 564 32 
0 564 115 
0 1059 3 
0 1053 28 
0 530 725 
0 1069 335 
0 1065 135 
0 1051 379 
0 1051 247 
0 516 150 
0 1075 209 
0 1073 94 
0 584 312 
0 1085 46 
0 1083 119 
0 1103 100 
0 1097 33 
0 1089 80 
0 1061 31 
0 1057 71 
0 1072 205 
0 1050 260 
0 1044 327 
0 1079 571 
0 1073 47 
0 1114 67 
0 1111 201 
0 1087 325 
0 1086 27 
0 1103 160 
0 1099 91 
0 1092 174 
0 1060 117 
0 1052 320 
0 1080 7 
0 1080 109 
0 1088 248 
0 1088 19 
0 1086 93 
0 1323 349 
0 1092 487 
0 1289 13 
0 1341 36 
0 1331 162 
0 1325 106 
0 1317 388 
0 116 304 
