ITEM: TIMESTEP
4800000
ITEM: NUMBER OF ENTRIES
187
ITEM: BOX BOUNDS ff ff ff
-0.01 0.45
-0.15 0.15
-0.08 0.1
ITEM: ENTRIES c_pwc[1] c_pwc[2] c_pwc[3] 
0 850 41 
0 885 41 
0 854 213 
0 894 393 
0 894 108 
0 894 216 
0 894 245 
0 894 531 
0 855 289 
0 855 417 
0 922 447 
0 953 585 
1 529 146 
1 530 146 
1 1842 146 
1 1826 146 
1 1827 146 
1 1831 146 
1 1828 146 
1 1830 146 
1 1861 146 
1 1874 146 
1 1883 146 
1 1873 146 
1 526 146 
1 541 146 
1 527 146 
1 523 146 
1 1868 146 
1 1869 146 
1 1871 146 
1 1892 146 
1 1893 146 
1 1885 146 
0 885 270 
0 885 48 
0 885 127 
0 885 52 
0 885 276 
0 885 555 
0 885 79 
0 885 351 
0 885 45 
0 885 39 
0 850 270 
0 850 48 
0 850 127 
0 850 52 
0 850 276 
0 850 79 
0 850 351 
0 850 45 
0 851 39 
0 935 137 
0 935 564 
0 921 243 
0 922 243 
0 961 40 
0 753 40 
0 886 15 
0 885 15 
0 850 15 
0 888 260 
0 888 516 
0 389 571 
0 389 569 
0 401 376 
0 407 246 
0 421 558 
0 419 107 
0 415 292 
0 411 235 
0 384 281 
0 376 17 
0 374 223 
0 383 281 
0 394 501 
0 392 154 
0 390 238 
0 389 549 
0 398 563 
0 396 445 
0 401 99 
0 395 478 
0 438 497 
0 434 252 
0 431 542 
0 409 330 
0 403 345 
0 426 135 
0 427 319 
0 423 190 
0 421 66 
0 414 587 
0 412 227 
0 417 486 
0 527 436 
0 386 328 
0 382 166 
0 521 220 
0 551 18 
0 402 186 
0 402 81 
0 398 226 
0 559 59 
0 557 25 
0 410 90 
0 406 132 
0 573 197 
0 426 150 
0 424 75 
0 420 506 
0 420 196 
0 414 30 
0 535 476 
0 531 473 
0 529 38 
0 529 209 
0 518 388 
0 524 152 
0 553 202 
0 552 24 
0 585 412 
0 584 256 
0 583 256 
0 561 80 
0 559 32 
0 581 511 
0 565 101 
0 568 33 
0 538 228 
0 532 61 
0 528 234 
0 528 47 
0 542 413 
0 524 335 
0 522 219 
0 525 36 
0 521 484 
0 526 36 
0 550 421 
0 548 409 
0 548 100 
0 590 374 
0 588 367 
0 588 298 
0 562 136 
0 560 65 
0 556 151 
0 582 379 
0 574 327 
0 572 83 
0 570 358 
0 568 205 
0 563 10 
0 571 28 
0 1059 113 
0 1053 57 
0 1053 285 
0 534 119 
0 1071 71 
0 1051 22 
0 1047 158 
0 1077 251 
0 1085 27 
0 1081 187 
0 562 49 
0 556 214 
0 1103 93 
0 1099 248 
0 1095 35 
0 1093 259 
0 564 155 
0 1064 11 
0 1058 312 
0 1070 31 
0 1042 19 
0 1110 162 
0 1088 117 
0 1085 160 
0 1083 23 
0 1089 3 
0 1108 37 
0 1056 106 
0 1048 88 
0 1110 265 
0 1098 82 
