ITEM: TIMESTEP
3050000
ITEM: NUMBER OF ENTRIES
1084
ITEM: BOX BOUNDS ff ff ff
-0.01 0.45
-0.15 0.15
-0.08 0.1
ITEM: ENTRIES c_pwc[1] c_pwc[2] c_pwc[3] c_pwc[4] c_pwc[5] c_pwc[6] c_pwc[7] c_pwc[8] c_pwc[9] c_pwc[10] c_pwc[11] c_pwc[12] c_pwc[13] c_pwc[14] 
0 0 0 -0.664333 0.0651037 -0.049171 0 786 5360 -0.000515251 0.000193567 -0.00013825 3.72534e-10 7.41168e-08 
0 0 0 -0.117681 -0.327693 0.528662 0 782 5313 1.10162e-08 9.30452e-06 3.81515e-06 4.37904e-10 8.7123e-08 
0 0 0 0.0204691 -0.00177869 0.00951483 0 778 4050 -3.47939e-13 1.02665e-05 1.35726e-06 5.1886e-10 1.03231e-07 
0 0 0 -0.128515 0.0160013 -0.0855995 0 778 693 1.33062e-17 1.02659e-05 1.35713e-06 5.18851e-10 1.03229e-07 
0 0 0 0.000882975 1.4584e-07 0.0139106 0 776 1200 3.66338e-14 1.0516e-05 5.7758e-13 5.24739e-10 1.044e-07 
0 0 0 0.00154437 -6.6774e-12 0.00482727 0 776 1871 -1.4974e-19 1.05196e-05 -5.98952e-19 5.24825e-10 1.04417e-07 
0 0 0 0.000122718 2.28725e-06 0.00274396 0 776 206 -2.29748e-08 1.04696e-05 -8.58017e-09 5.23657e-10 1.04185e-07 
0 0 0 0.000225529 -1.33283e-07 0.00104455 0 776 1972 7.57544e-13 1.04905e-05 -2.37287e-13 5.23831e-10 1.0422e-07 
0 0 0 -0.000142382 -3.69468e-05 -0.000142299 0 776 733 4.12933e-06 1.22181e-05 2.77992e-06 5.72095e-10 1.13823e-07 
0 0 0 -0.001591 -2.28599e-07 0.000315531 0 776 101 1.04192e-13 1.05222e-05 -1.93505e-14 5.24864e-10 1.04425e-07 
0 0 0 0.000364091 -1.66319e-07 0.000300923 0 776 280 -3.02951e-12 1.05529e-05 1.40657e-12 5.25897e-10 1.04631e-07 
0 0 0 0.00305753 -1.43747e-10 -0.00229651 0 776 1894 -1.12341e-16 1.05195e-05 8.43936e-17 5.24824e-10 1.04417e-07 
0 0 0 0.000968714 4.85688e-05 -0.00143902 0 776 210 1.54609e-06 7.64128e-06 1.46187e-06 4.35184e-10 8.65818e-08 
0 0 0 0.00669924 -2.32676e-12 0.0301634 0 776 4095 1.19791e-18 1.05196e-05 4.81292e-18 5.24825e-10 1.04417e-07 
0 0 0 -0.0309974 9.02676e-14 -0.018972 0 776 414 9.39643e-19 1.05196e-05 -1.47127e-18 5.24825e-10 1.04417e-07 
0 0 0 -0.000664218 -2.14769e-05 -0.00320291 0 776 1002 2.45885e-06 1.31394e-05 6.18811e-07 6.04211e-10 1.20213e-07 
0 0 0 0.00289554 -6.49306e-05 0.00584189 0 776 1705 -3.50479e-07 8.81267e-06 4.36631e-07 4.51926e-10 8.99128e-08 
0 0 0 0.00377888 0.00221801 0.00415347 0 776 317 9.96476e-08 -7.68221e-06 2.41214e-07 3.24687e-10 6.45971e-08 
0 0 0 -0.0131824 1.05708e-12 -0.0301581 0 776 1887 3.39538e-19 1.05196e-05 4.79231e-18 5.24825e-10 1.04417e-07 
0 0 0 -0.000236615 5.69571e-05 0.00132737 0 776 209 8.42454e-08 7.8221e-06 -4.74619e-07 4.43712e-10 8.82786e-08 
0 0 0 -0.0023395 -4.26569e-05 0.00202728 0 776 553 -6.79356e-09 1.16494e-05 -5.34883e-09 5.52683e-10 1.0996e-07 
0 0 0 0.00371572 5.00174e-05 0.00754954 0 776 2069 -6.17801e-07 1.15724e-05 -4.47925e-08 5.69933e-10 1.13393e-07 
0 0 0 -0.0160223 -6.65994e-12 -0.00320964 0 776 690 -2.39589e-18 1.05196e-05 -5.65675e-19 5.24825e-10 1.04417e-07 
0 0 0 0.00409801 1.91539e-09 0.0164273 0 776 585 2.17418e-15 1.05196e-05 8.71508e-15 5.24825e-10 1.04418e-07 
0 0 0 -0.00124842 1.79626e-05 0.00227352 0 776 154 1.63317e-07 9.37974e-06 -2.61348e-07 4.90159e-10 9.752e-08 
0 0 0 0.000155824 1.29604e-07 -0.00105307 0 776 531 5.08832e-15 1.05286e-05 -3.57185e-14 5.25153e-10 1.04483e-07 
0 0 0 -0.0112963 -3.93152e-13 -0.0104718 0 776 3742 8.4238e-19 1.05196e-05 8.42551e-19 5.24825e-10 1.04417e-07 
0 0 0 0.000363733 -2.08262e-05 0.00202485 0 776 1470 -4.55621e-09 1.16175e-05 6.85265e-08 5.56298e-10 1.1068e-07 
0 0 0 -0.0052887 -8.02777e-08 0.000416652 0 776 1920 1.1773e-13 1.05191e-05 -9.2749e-15 5.24793e-10 1.04411e-07 
0 0 0 0.00432812 2.40282e-10 0.0164851 0 776 18 2.87204e-16 1.05196e-05 1.09401e-15 5.24825e-10 1.04417e-07 
0 0 0 0.0168241 -1.86828e-05 -0.0209118 0 776 1367 1.90711e-06 1.07187e-05 2.13659e-07 5.27398e-10 1.04929e-07 
0 0 0 0.000110296 8.68898e-06 -0.00557278 0 776 3087 7.2374e-12 1.20139e-05 1.7564e-11 5.75255e-10 1.14451e-07 
0 0 0 -0.0207826 2.51417e-13 -0.0448062 0 776 604 -2.39583e-18 1.05196e-05 -4.83427e-18 5.24825e-10 1.04417e-07 
0 0 0 -0.00416706 -3.61584e-12 -0.01577 0 776 1118 -2.19248e-19 1.05196e-05 -8.78196e-19 5.24825e-10 1.04417e-07 
0 0 0 -0.000810438 -0.000114937 -0.00141012 0 776 833 -1.68212e-06 1.34423e-05 4.2421e-07 5.94131e-10 1.18207e-07 
0 0 0 0.00512437 -2.61983e-10 0.0163723 0 776 1039 -3.72169e-16 1.05196e-05 -1.18918e-15 5.24825e-10 1.04417e-07 
0 0 0 0.0329585 0.000681099 0.0265782 0 776 4525 -8.41279e-07 1.90569e-06 4.47398e-07 3.58334e-10 7.12915e-08 
0 0 0 -0.000772277 -0.000654989 0.0127262 0 776 2966 2.261e-05 2.03855e-05 -3.34343e-05 6.88971e-10 1.37078e-07 
0 0 0 0.0153337 5.84726e-05 0.018531 0 776 570 9.1589e-07 7.96529e-06 -6.94962e-07 4.49257e-10 8.93819e-08 
0 0 0 0.00198832 -4.13093e-08 0.00795277 0 776 1890 -5.54245e-08 1.06387e-05 2.76957e-07 5.2877e-10 1.05202e-07 
0 0 0 0.000884436 -6.25455e-05 -0.0040432 0 776 839 1.74236e-09 1.04248e-05 -1.1163e-08 5.08113e-10 1.01092e-07 
0 0 0 0.00594071 -2.50646e-06 -0.00271838 0 776 248 1.16762e-09 1.28966e-05 -1.945e-08 6.00643e-10 1.19503e-07 
0 0 0 0.0487917 2.51403e-13 0.00936052 0 776 607 4.79185e-18 1.05196e-05 1.19812e-18 5.24825e-10 1.04417e-07 
0 0 0 -0.00812308 1.37935e-12 0.0346825 0 776 510 9.24061e-19 1.05196e-05 4.83434e-18 5.24825e-10 1.04417e-07 
0 0 0 0.0798524 -1.52108e-12 0.0205982 0 776 731 -2.29477e-18 1.05196e-05 2.41726e-18 5.24825e-10 1.04417e-07 
0 0 0 0.0569658 -2.48789e-12 -0.0412068 0 776 2951 1.27374e-18 1.05196e-05 3.68804e-18 5.24825e-10 1.04417e-07 
0 0 0 0.0187841 -6.19399e-12 0.0243782 0 776 5618 -2.39615e-18 1.05196e-05 2.39614e-18 5.24825e-10 1.04417e-07 
0 0 0 -0.035143 -3.13243e-12 -0.0922111 0 777 72 0 1.05196e-05 0 5.24825e-10 1.04417e-07 
0 0 0 0.000448766 0.00154361 0.00825755 0 775 2352 3.62295e-16 1.02657e-05 -1.35709e-06 5.18844e-10 1.03227e-07 
0 0 0 0.00497204 -0.00157873 -0.00844539 0 775 4938 6.39853e-13 1.02647e-05 -1.3569e-06 5.18809e-10 1.0322e-07 
0 0 0 -0.0014834 0.00108488 0.00580333 0 775 4248 3.44726e-08 1.02727e-05 -1.6273e-06 5.20745e-10 1.03606e-07 
0 0 0 -0.00441763 -0.0155092 -0.0829668 0 775 2748 5.57797e-19 1.02659e-05 -1.35713e-06 5.18851e-10 1.03229e-07 
0 0 0 0.022782 -0.0210515 -0.112616 0 775 1313 -9.95674e-21 1.02659e-05 -1.35713e-06 5.18851e-10 1.03229e-07 
0 0 0 0.000408971 -0.000166923 -0.000888652 0 774 2641 -6.13193e-12 1.02539e-05 -1.35476e-06 5.1827e-10 1.03113e-07 
0 0 0 -0.00318762 0.000459679 0.00185567 0 774 1165 3.19742e-07 8.95996e-06 -1.15472e-06 4.98286e-10 9.91371e-08 
0 0 0 -0.00538957 0.000713758 0.00407918 0 774 3869 1.07555e-09 1.05446e-05 -1.40838e-06 5.17928e-10 1.03045e-07 
0 0 0 0.00114922 0.00101416 0.0054252 0 774 2116 3.862e-15 1.02657e-05 -1.35709e-06 5.18847e-10 1.03228e-07 
0 0 0 -0.0591274 0.0148261 0.0793125 0 774 1352 -1.10192e-18 1.02659e-05 -1.35713e-06 5.18851e-10 1.03229e-07 
0 0 0 -0.984936 7.3575 15.1552 0 942 5501 0.00152654 0.0612678 -0.0374908 1.03443e-07 2.08512e-05 
0 0 0 -3.8916e-31 7.56487e-20 1.18144e-12 0 884 5230 -1.69153e-32 5.25978e-06 -1.62002 1.22522e-06 0.0003 
0 0 0 2.08592e-302 -1.35908e-22 -3.53498e-12 0 884 3064 6.42396e-307 5.25978e-06 -1.62002 1.22522e-06 0.0003 
0 0 0 0.0445641 -0.00804808 0.0694367 0 884 819 8.89769e-05 -0.000252939 -0.000536265 3.79861e-09 7.56066e-07 
0 0 0 -3.63126e-302 6.5982e-20 1.18143e-12 0 884 871 0 5.25978e-06 -1.62002 1.22522e-06 0.0003 
0 0 0 0.11302 0.613835 0.0305538 0 884 3345 -0.000609441 -0.00139673 0.0030478 2.54693e-08 5.08311e-06 
0 0 0 1.15918e-247 -1.87638e-20 -4.72341e-12 0 884 2565 3.77784e-248 5.25978e-06 -1.62002 1.22522e-06 0.0003 
0 0 0 -2.76705e-302 8.48893e-20 5.89794e-12 0 884 3089 6.15924e-307 5.25978e-06 -1.62002 1.22522e-06 0.0003 
0 0 0 1.83227e-302 7.52162e-20 -2.36054e-12 0 884 5274 -1.23383e-307 5.25978e-06 -1.62002 1.22522e-06 0.0003 
0 0 0 4.61333e-303 -1.03275e-19 2.25777e-15 0 884 2130 5.24425e-307 5.25978e-06 -1.62002 1.22522e-06 0.0003 
0 0 0 -1.628e-14 -8.50567e-20 4.35535e-302 0 863 2723 -1.62002 5.25978e-06 -2.23978e-308 1.22522e-06 0.0003 
0 0 0 3.49574e-14 -8.5302e-20 -2.15729e-302 0 862 444 -1.62002 5.25978e-06 5.8798e-307 1.22522e-06 0.0003 
0 0 0 3.49065e-14 -6.55878e-20 -1.13875e-302 0 862 927 -1.62002 5.25978e-06 4.79298e-307 1.22522e-06 0.0003 
0 0 0 -0.0210999 -0.0165477 0.585872 0 854 3613 0.000100303 0.000208721 -0.00111651 1.40916e-10 2.80348e-08 
0 0 0 0.0575943 -0.142916 0.125012 0 854 3861 0.00138801 0.000110507 -0.000172666 1.90501e-08 3.79892e-06 
0 0 0 -3.8916e-31 7.56487e-20 1.18144e-12 0 850 5230 -1.69153e-32 5.25978e-06 1.62002 1.22522e-06 0.0003 
0 0 0 2.08592e-302 -1.35908e-22 -3.53498e-12 0 850 3064 -5.49252e-307 5.25978e-06 1.62002 1.22522e-06 0.0003 
0 0 0 3.52101e-302 5.66768e-20 -5.89787e-12 0 850 478 -3.20188e-308 5.25978e-06 1.62002 1.22522e-06 0.0003 
0 0 0 -3.63126e-302 6.5982e-20 1.18143e-12 0 850 871 -9.40368e-308 5.25978e-06 1.62002 1.22522e-06 0.0003 
0 0 0 -4.37962e-302 -8.49133e-20 -2.36056e-12 0 850 283 -1.8101e-307 5.25978e-06 1.62002 1.22522e-06 0.0003 
0 0 0 1.15918e-247 -1.87638e-20 -4.72341e-12 0 850 2565 3.77784e-248 5.25978e-06 1.62002 1.22522e-06 0.0003 
0 0 0 1.58669e-302 5.6427e-20 -4.72348e-12 0 850 5520 3.23088e-307 5.25978e-06 1.62002 1.22522e-06 0.0003 
0 0 0 3.4741e-200 8.55393e-20 2.12794e-15 0 850 2321 1.07217e-202 5.25978e-06 1.62002 1.22522e-06 0.0003 
0 0 0 -2.76705e-302 8.48893e-20 5.89794e-12 0 850 3089 -5.2347e-307 5.25978e-06 1.62002 1.22522e-06 0.0003 
0 0 0 1.83227e-302 7.52162e-20 -2.36054e-12 0 850 5274 2.16185e-307 5.25978e-06 1.62002 1.22522e-06 0.0003 
0 0 0 4.61333e-303 -1.03275e-19 2.25777e-15 0 850 2130 -6.1937e-307 5.25978e-06 1.62002 1.22522e-06 0.0003 
0 0 0 3.49574e-14 -8.5302e-20 -2.15729e-302 0 822 444 1.62002 5.25978e-06 -4.93931e-307 1.22522e-06 0.0003 
0 0 0 3.49065e-14 -6.55878e-20 -1.13875e-302 0 821 927 1.62002 5.25978e-06 -5.71778e-307 1.22522e-06 0.0003 
0 0 0 -1.628e-14 -8.50567e-20 4.35535e-302 0 821 2723 1.62002 5.25978e-06 1.12148e-307 1.22522e-06 0.0003 
0 0 0 3.52101e-302 5.66768e-20 -5.89787e-12 0 885 478 -6.12451e-308 5.25978e-06 -1.62002 1.22522e-06 0.0003 
0 0 0 -4.37962e-302 -8.49133e-20 -2.36056e-12 0 885 283 8.92938e-308 5.25978e-06 -1.62002 1.22522e-06 0.0003 
0 0 0 1.58669e-302 5.6427e-20 -4.72348e-12 0 885 5520 -4.17747e-307 5.25978e-06 -1.62002 1.22522e-06 0.0003 
0 0 0 3.4741e-200 8.55393e-20 2.12794e-15 0 885 2321 1.07217e-202 5.25978e-06 -1.62002 1.22522e-06 0.0003 
0 0 0 0.127507 -0.0422937 0.16229 0 853 2720 -0.000197601 -0.000717054 -0.000299158 1.32258e-08 2.63553e-06 
0 0 0 -0.0952424 0.245197 0.000529829 0 853 4079 -0.00830666 -0.0166764 0.000724538 5.54758e-08 1.11138e-05 
0 0 0 0.314411 0.0656535 0.19113 0 853 2190 0.000757094 -0.00311047 -0.000369343 1.77702e-08 3.54312e-06 
0 0 0 -0.00713474 -8.77215e-12 -0.00226592 0 852 846 -5.7716e-19 1.05196e-05 -2.0409e-20 5.24825e-10 1.04417e-07 
0 0 0 0.0205495 0.178466 0.231461 0 852 2060 0.00112035 -0.0100692 -0.00490839 3.85337e-08 7.70312e-06 
0 0 0 -0.521648 0.218345 0.375923 0 852 3672 0.0021713 -0.00433538 -0.00282813 1.23561e-08 2.46195e-06 
0 0 0 0.248464 -0.476985 -1.0682 0 852 4715 -0.00102213 -0.00386437 -0.00163969 6.35395e-08 1.27423e-05 
0 0 0 0.00808716 -0.241719 -0.00788442 0 894 745 -5.91851e-07 1.71358e-05 3.4292e-05 9.33733e-10 1.85782e-07 
0 0 0 0.007364 -0.111129 0.0541253 0 894 3292 -0.000105322 -7.0659e-05 -0.00244299 1.50942e-08 3.00855e-06 
0 0 0 0.0010522 -0.0634374 -0.00333435 0 894 2038 -1.50677e-06 7.0225e-06 1.43647e-05 2.93513e-10 5.83947e-08 
0 0 0 0.0420222 -0.211228 0.023301 0 894 3466 3.04096e-05 0.000124244 -0.000255823 1.59339e-09 3.17058e-07 
0 0 0 -0.0209946 -0.0458409 -0.00107069 0 894 880 1.32937e-05 1.64983e-05 -4.23752e-05 1.51206e-09 3.00872e-07 
0 0 0 -0.0141252 -0.0224425 -0.00606523 0 894 4644 3.55912e-06 5.09636e-05 -0.000176271 4.25339e-09 8.46633e-07 
0 0 0 0.0346187 -0.551709 0.0468279 0 894 910 -0.00186229 0.00463098 -0.0099828 4.71723e-08 9.44032e-06 
0 0 0 -0.267553 0.00478523 -0.0206371 0 894 5254 -5.50042e-05 -2.07978e-05 0.00011761 1.74333e-09 3.46899e-07 
0 0 0 0.0662019 -0.223922 0.000560917 0 894 2442 -0.000187232 7.00251e-05 -1.44486e-05 5.3356e-10 1.06155e-07 
0 0 0 0.145687 -0.247999 -0.0254 0 894 758 -2.29601e-05 1.872e-05 5.92487e-05 3.90707e-09 7.77664e-07 
0 0 0 0.0667604 -0.101454 -0.0232312 0 894 4263 1.60024e-05 -7.79237e-06 7.86564e-05 3.2083e-09 6.38526e-07 
0 0 0 -3.49488e-14 -9.4396e-20 2.0803e-302 0 866 887 -1.62002 5.25978e-06 -7.87214e-307 1.22522e-06 0.0003 
0 0 0 0.0119369 -0.0461287 -0.103506 0 855 2310 0.000193382 9.19756e-05 2.9827e-05 5.23229e-09 1.04161e-06 
0 0 0 0.00799531 -0.0419349 -0.0168572 0 855 2283 0.0011452 -2.697e-06 -0.000139286 1.2738e-08 2.53817e-06 
0 0 0 -0.00520094 -0.240475 0.0336681 0 855 1814 0.000131423 6.19227e-05 -2.1991e-05 2.08981e-09 4.15862e-07 
0 0 0 0.00114666 -0.01926 0.182752 0 855 5549 0.000687472 0.000106958 -0.000326672 8.62997e-09 1.71872e-06 
0 0 0 1.57175 23.2918 -4.03165 0 954 5741 0.000469244 0.00885033 0.0238035 1.00516e-08 2.0022e-06 
0 0 0 0.0379878 -0.422961 -0.0461695 0 895 1419 7.83616e-05 -6.56163e-05 0.000196321 5.32075e-09 1.05923e-06 
0 0 0 2.29567e-15 -4.69949e-20 -1.26765e-302 0 861 3265 -1.62002 5.25978e-06 -9.14456e-307 1.22522e-06 0.0003 
0 0 0 -7.22395e-14 9.9208e-21 -2.01355e-302 0 861 1395 -1.62002 5.25978e-06 -8.07406e-307 1.22522e-06 0.0003 
0 0 0 3.50023e-14 -4.75915e-20 3.67295e-303 0 857 2716 -1.62002 5.25978e-06 4.59859e-307 1.22522e-06 0.0003 
0 0 0 2.29567e-15 -4.69949e-20 -1.26765e-302 0 822 3265 1.62002 5.25978e-06 1.00937e-306 1.22522e-06 0.0003 
0 0 0 -7.22395e-14 9.9208e-21 -2.01355e-302 0 822 1395 1.62002 5.25978e-06 7.13559e-307 1.22522e-06 0.0003 
0 0 0 3.50023e-14 -4.75915e-20 3.67295e-303 0 820 2716 1.62002 5.25978e-06 -3.67675e-307 1.22522e-06 0.0003 
0 0 0 -3.49488e-14 -9.4396e-20 2.0803e-302 0 828 887 1.62002 5.25978e-06 6.92466e-307 1.22522e-06 0.0003 
0 0 0 -8.31389 -8.0119 24.7727 0 932 5718 -0.00210529 -0.0209019 -0.00116613 1.20809e-08 2.40703e-06 
0 0 0 2.55968 -4.29214 6.89086 0 930 466 -0.000361071 0.032322 0.0187608 1.19148e-07 2.40656e-05 
0 0 0 1.9998 -26.3087 26.8355 0 928 5743 0.000409653 0.191021 0.137795 3.43468e-07 7.15286e-05 
0 0 0 0.0217302 2.02389e-12 0.0215556 0 776 12 -2.39605e-18 1.05196e-05 -6.98963e-21 5.24825e-10 1.04417e-07 
0 0 0 0.0300009 4.92432e-12 0.00957612 0 776 2925 -6.47417e-19 1.05196e-05 -1.20855e-18 5.24825e-10 1.04417e-07 
0 0 0 0.204207 2.51403e-13 -0.0239674 0 776 1306 1.91692e-17 1.05196e-05 -2.41712e-18 5.24825e-10 1.04417e-07 
0 0 0 -0.045956 -0.00072744 -0.0235547 0 776 4532 4.26796e-05 3.77941e-06 -6.13623e-07 8.93397e-11 1.77738e-08 
0 0 0 -0.372772 -0.000247956 0.470077 0 776 2719 -6.86391e-06 1.46619e-05 -2.57484e-06 6.04084e-10 1.20188e-07 
0 0 0 0.393059 -7.72408e-05 0.171656 0 777 339 -8.42323e-09 1.04147e-05 -3.67832e-09 5.04586e-10 1.0039e-07 
0 0 0 -0.0446121 -0.00336657 -0.0180096 0 775 4357 -7.07929e-18 1.02659e-05 -1.35713e-06 5.18851e-10 1.03229e-07 
0 0 0 0.0377089 -0.0150313 -0.0804105 0 775 1223 3.69925e-19 1.02659e-05 -1.35713e-06 5.18851e-10 1.03229e-07 
0 0 0 0.0639125 -0.012101 -0.0647346 0 775 2205 1.37673e-18 1.02659e-05 -1.35713e-06 5.18851e-10 1.03229e-07 
0 0 0 -0.0255364 -0.000800524 -0.00428242 0 775 5264 -1.70874e-18 1.02659e-05 -1.35713e-06 5.18851e-10 1.03229e-07 
0 0 0 0.0443028 -0.00804965 -0.0430618 0 775 3551 -3.24076e-18 1.02659e-05 -1.35713e-06 5.18851e-10 1.03229e-07 
0 0 0 0.0758672 -0.00700595 -0.0374785 0 775 172 -1.8828e-19 1.02659e-05 -1.35713e-06 5.18851e-10 1.03229e-07 
0 0 0 0.0520761 -0.00394901 -0.0211253 0 775 1275 -2.44221e-18 1.02659e-05 -1.35713e-06 5.18851e-10 1.03229e-07 
0 0 0 0.0488364 -0.0214593 -0.114797 0 775 421 -3.58471e-18 1.02659e-05 -1.35713e-06 5.18851e-10 1.03229e-07 
0 0 0 -0.0319771 -0.00179755 -0.00961601 0 775 1937 2.57578e-18 1.02659e-05 -1.35713e-06 5.18851e-10 1.03229e-07 
0 0 0 -0.00808153 -0.00237495 -0.0127048 0 775 221 -5.94921e-19 1.02659e-05 -1.35713e-06 5.18851e-10 1.03229e-07 
0 0 0 0.425699 7.87159 2.90049 0 950 5722 -0.00845588 0.0101091 -0.0359318 8.61397e-08 1.73245e-05 
0 0 0 -0.0180202 -0.0164683 -0.0880973 0 774 3877 3.09368e-18 1.02659e-05 -1.35713e-06 5.18851e-10 1.03229e-07 
0 0 0 0.0615443 -0.00965577 -0.051374 0 774 1045 -2.31118e-06 1.17139e-05 2.87936e-06 5.29158e-10 1.0528e-07 
0 0 0 -0.0400219 -0.00683493 -0.0524646 0 774 658 4.75444e-06 -1.11965e-05 -6.10727e-07 3.91449e-10 7.788e-08 
0 0 0 -0.017654 -0.00889207 -0.0475683 0 774 1974 -1.23878e-18 1.02659e-05 -1.35713e-06 5.18851e-10 1.03229e-07 
0 0 0 -0.0225915 -0.00693274 -0.0370868 0 774 924 1.99413e-19 1.02659e-05 -1.35713e-06 5.18851e-10 1.03229e-07 
0 0 0 0.0772354 -0.00674649 -0.0360905 0 774 1376 -4.92572e-18 1.02659e-05 -1.35713e-06 5.18851e-10 1.03229e-07 
0 0 0 0.0390129 -0.057061 -0.147291 0 772 1802 -5.84846e-18 9.53905e-06 -2.53098e-06 5.00925e-10 9.96621e-08 
0 0 0 -0.0237789 -0.00240106 -0.00619786 0 773 3081 3.7645e-13 9.53905e-06 -2.53098e-06 5.00925e-10 9.96621e-08 
0 0 0 0.0290637 -0.0579001 -0.149457 0 773 163 2.02745e-18 9.53905e-06 -2.53098e-06 5.00925e-10 9.96621e-08 
0 0 0 0.0232032 -0.00836077 -0.0447261 0 775 865 2.85842e-18 1.02659e-05 -1.35713e-06 5.18851e-10 1.03229e-07 
0 0 0 -8.41201e-303 2.84247e-20 -2.36061e-12 0 885 1971 4.79479e-307 5.25978e-06 -1.62002 1.22522e-06 0.0003 
0 0 0 -7.52361e-303 8.48104e-20 3.53502e-12 0 885 1881 4.95241e-307 5.25978e-06 -1.62002 1.22522e-06 0.0003 
0 0 0 3.7283e-302 -7.54782e-20 4.72346e-12 0 885 1411 -6.87537e-307 5.25978e-06 -1.62002 1.22522e-06 0.0003 
0 0 0 -4.61944e-303 -6.5927e-20 -2.36054e-12 0 885 2581 -3.56305e-307 5.25978e-06 -1.62002 1.22522e-06 0.0003 
0 0 0 -1.43248 -2.13152 0.085675 0 885 4671 -0.0631734 0.0090946 0.127649 2.71204e-07 5.5908e-05 
0 0 0 -1.8553e-302 -8.49239e-20 4.72346e-12 0 885 2905 3.66034e-307 5.25978e-06 -1.62002 1.22522e-06 0.0003 
0 0 0 -3.63735e-302 3.78128e-20 -2.36059e-12 0 885 4959 -8.44861e-308 5.25978e-06 -1.62002 1.22522e-06 0.0003 
0 0 0 -3.59091e-16 -6.94223e-16 -1.18333e-12 0 885 20 0.151484 0.047667 -1.63603 1.23141e-06 0.000301974 
0 0 0 1.09712e-15 6.95697e-16 -1.18101e-12 0 885 1092 -0.118735 -0.0373524 -1.60406 1.21901e-06 0.000298026 
0 0 0 -6.11333e-165 4.72591e-20 5.89791e-12 0 885 1796 2.50448e-166 5.25978e-06 -1.62002 1.22522e-06 0.0003 
0 0 0 -1.27389e-302 3.77002e-20 -3.53506e-12 0 885 1312 -2.89362e-308 5.25978e-06 -1.62002 1.22522e-06 0.0003 
0 0 0 -0.000229874 4.44314e-05 6.86689e-08 0 885 226 0.0957779 0.102496 -1.6568 1.23937e-06 0.000304524 
0 0 0 -3.79869e-229 8.48931e-20 2.36061e-12 0 885 1066 -1.10253e-230 5.25978e-06 -1.62002 1.22522e-06 0.0003 
0 0 0 8.88425e-05 6.43491e-05 1.662e-07 0 885 294 -0.00533015 0.00884622 -1.61943 1.22499e-06 0.000299927 
0 0 0 0.00020749 -0.000329062 -2.39787e-07 0 885 643 0.356509 0.0671533 -1.56265 1.20268e-06 0.000292875 
0 0 0 4.61847e-05 0.000231638 1.93621e-07 0 885 1570 -0.355705 -0.319364 -1.63754 1.23199e-06 0.000302159 
0 0 0 -2.52355e-302 -3.78174e-20 -2.36055e-12 0 885 2443 4.9533e-308 5.25978e-06 -1.62002 1.22522e-06 0.0003 
0 0 0 -9.61865e-173 -3.76466e-20 -5.89792e-12 0 885 1533 -4.61791e-174 5.25978e-06 -1.62002 1.22522e-06 0.0003 
0 0 0 -0.000112632 -1.13956e-05 -1.88718e-07 0 885 2662 -0.0800004 0.199532 -1.62419 1.22684e-06 0.000300515 
0 0 0 1.53146e-24 2.81642e-20 -1.18147e-12 0 885 4181 -5.34364e-25 5.25978e-06 -1.62002 1.22522e-06 0.0003 
0 0 0 -1.57884e-302 -8.50337e-20 -1.18145e-12 0 885 245 1.34361e-307 5.25978e-06 -1.62002 1.22522e-06 0.0003 
0 0 0 3.15155e-49 8.47303e-20 -2.36058e-12 0 885 428 5.34526e-50 5.25978e-06 -1.62002 1.22522e-06 0.0003 
0 0 0 -4.28436e-162 1.8902e-20 5.89795e-12 0 885 524 -3.00976e-163 5.25978e-06 -1.62002 1.22522e-06 0.0003 
0 0 0 -8.46769e-233 9.42004e-21 3.53499e-12 0 885 775 -1.43507e-233 5.25978e-06 -1.62002 1.22522e-06 0.0003 
0 0 0 4.23797e-16 9.40439e-17 1.19965e-17 0 885 1379 0.016568 0.116835 -1.62074 1.2255e-06 0.000300088 
0 0 0 -4.21792e-16 -7.31202e-16 1.25288e-16 0 885 394 -0.0163483 -0.115275 -1.6193 1.22494e-06 0.000299912 
0 0 0 -7.39994e-303 -6.58151e-20 1.18149e-12 0 885 3997 0 5.25978e-06 -1.62002 1.22522e-06 0.0003 
0 0 0 2.16933e-05 3.76768e-05 5.41505e-07 0 885 193 0.00614992 -0.00224107 -1.62023 1.2253e-06 0.000300025 
0 0 0 -3.11485e-302 5.65682e-20 -3.53501e-12 0 885 506 2.18515e-307 5.25978e-06 -1.62002 1.22522e-06 0.0003 
0 0 0 3.43307e-205 -1.88535e-20 -4.72347e-12 0 885 1184 1.83316e-206 5.25978e-06 -1.62002 1.22522e-06 0.0003 
0 0 0 9.74394e-283 -1.34626e-23 -2.36055e-12 0 885 3765 1.43795e-284 5.25978e-06 -1.62002 1.22522e-06 0.0003 
0 0 0 1.22317e-85 -8.49306e-20 -5.89793e-12 0 885 730 -1.4332e-86 5.25978e-06 -1.62002 1.22522e-06 0.0003 
0 0 0 -3.0647e-302 -5.66185e-20 -4.72347e-12 0 885 797 -3.82449e-307 5.25978e-06 -1.62002 1.22522e-06 0.0003 
0 0 0 -3.36167e-16 -3.55365e-17 -6.49181e-12 0 885 1547 0.0315204 -0.0216753 -1.61597 1.22365e-06 0.000299499 
0 0 0 -2.56082e-83 -2.83043e-20 2.3606e-12 0 885 4668 4.96017e-84 5.25978e-06 -1.62002 1.22522e-06 0.0003 
0 0 0 7.45374e-303 8.47062e-20 4.7235e-12 0 885 757 -1.70047e-307 5.25978e-06 -1.62002 1.22522e-06 0.0003 
0 0 0 0.000117251 -7.0489e-05 5.34853e-06 0 885 540 0.159688 0.147087 -1.47637 1.16763e-06 0.000281992 
0 0 0 -8.19613e-05 -5.6621e-06 1.29637e-07 0 885 115 0.0253097 -0.0204249 -1.61974 1.22511e-06 0.000299965 
0 0 0 -3.45844e-16 -5.0347e-17 -9.08865e-14 0 885 621 0.0317248 0.0113121 -1.6159 1.22362e-06 0.000299491 
0 0 0 -0.000562271 -0.000364212 3.67924e-07 0 885 364 -0.19604 0.265214 -1.18904 1.0398e-06 0.000244103 
0 0 0 0.000239878 0.000381945 -5.04188e-06 0 885 3607 0.324773 -1.02264 -2.21863 1.42965e-06 0.000369969 
0 0 0 8.66558e-06 -4.05852e-05 3.40418e-07 0 885 787 -0.00542559 -0.00179002 -1.61929 1.22494e-06 0.00029991 
0 0 0 -3.91854e-17 -4.82252e-17 -9.08858e-14 0 885 2532 -0.00367554 0.00382176 -1.62002 1.22522e-06 0.0003 
0 0 0 4.46591e-16 3.7702e-16 -9.13277e-14 0 885 1994 -0.0365299 -0.0196907 -1.62414 1.22682e-06 0.000300509 
0 0 0 3.06892e-16 5.81005e-17 -6.49143e-12 0 885 156 -0.0392863 0.0270274 -1.62408 1.22679e-06 0.000300501 
0 0 0 -3.65576e-96 -3.76357e-20 -4.72351e-12 0 885 522 7.89126e-97 5.25978e-06 -1.62002 1.22522e-06 0.0003 
0 0 0 0.000251969 0.000587212 -1.65327e-06 0 885 2263 0.10651 0.0607434 -1.6014 1.21797e-06 0.000297697 
0 0 0 -4.60313e-303 -8.48463e-20 4.72345e-12 0 885 2245 7.51176e-307 5.25978e-06 -1.62002 1.22522e-06 0.0003 
0 0 0 -5.76528e-257 6.56729e-20 1.18143e-12 0 885 336 1.22135e-256 5.25978e-06 -1.62002 1.22522e-06 0.0003 
0 0 0 -2.64081e-05 -0.000129745 -1.89369e-06 0 885 946 -0.0858689 -0.000948321 -1.6493 1.2365e-06 0.000303604 
0 0 0 1.8987e-16 1.02464e-16 5.30831e-12 0 885 51 0.000581828 0.0247118 -1.61695 1.22403e-06 0.000299621 
0 0 0 -1.8881e-16 -1.42554e-16 5.30839e-12 0 885 2776 -0.000752176 -0.0319349 -1.62309 1.22641e-06 0.000300379 
0 0 0 0.000155958 -6.87282e-05 -2.5182e-07 0 885 637 0.0539784 0.115299 -1.64841 1.23616e-06 0.000303494 
0 0 0 -0.000394325 0.000220238 4.25712e-07 0 885 436 -0.0238739 -0.0534865 -1.59162 1.21414e-06 0.000296484 
0 0 0 -2.16938e-15 4.32048e-15 -6.24463e-13 0 885 50 0.192098 0.222487 -1.65852 1.24002e-06 0.000304734 
0 0 0 1.85438e-15 -1.90289e-15 -6.24337e-13 0 885 45 -0.146575 -0.154783 -1.58179 1.21026e-06 0.000295261 
0 0 0 1.24487e-17 1.54745e-16 -6.24723e-13 0 885 2020 0.00428562 -0.0100616 -1.62005 1.22523e-06 0.000300004 
0 0 0 4.50896e-303 7.77173e-23 -3.53505e-12 0 885 2862 -9.37854e-308 5.25978e-06 -1.62002 1.22522e-06 0.0003 
0 0 0 -1.91902e-05 -0.000794846 2.49129e-06 0 885 419 -0.182263 -0.00577002 -1.63984 1.23288e-06 0.000302442 
0 0 0 -3.31275e-05 2.85641e-05 -5.79244e-07 0 885 1370 -0.0463436 -0.0336113 -1.62303 1.22639e-06 0.000300371 
0 0 0 1.0427e-235 -1.88714e-20 -1.18142e-12 0 885 252 9.55012e-237 5.25978e-06 -1.62002 1.22522e-06 0.0003 
0 0 0 8.40904e-05 -0.000357926 2.71788e-06 0 885 145 0.0620211 -0.0368308 -1.63151 1.22967e-06 0.000301417 
0 0 0 1.99605e-302 -8.47932e-20 -4.72345e-12 0 885 5205 -3.84746e-308 5.25978e-06 -1.62002 1.22522e-06 0.0003 
0 0 0 0.000162198 0.000719956 8.97881e-07 0 885 1734 0.010308 0.036039 -1.62541 1.22731e-06 0.000300665 
0 0 0 -1.7981e-05 6.25015e-05 -1.55619e-06 0 885 93 0.00127675 -0.0291497 -1.6166 1.2239e-06 0.000299578 
0 0 0 0.000101524 -2.36091e-05 -6.74644e-07 0 885 9 0.0254301 0.0603528 -1.63058 1.22931e-06 0.000301302 
0 0 0 -0.000876323 0.0001453 -4.47332e-06 0 885 1957 0.177148 -0.00363199 -1.63708 1.23181e-06 0.000302102 
0 0 0 0.000154297 -0.000676958 -5.1652e-06 0 885 853 0.0974589 0.127508 -1.65245 1.23771e-06 0.00030399 
0 0 0 -8.69424e-05 0.000223787 7.7253e-07 0 885 2687 0.0594861 -0.0516646 -1.60562 1.21962e-06 0.00029822 
0 0 0 0.000244832 0.000363734 1.53898e-06 0 885 494 -0.0586147 0.230216 -1.60653 1.21997e-06 0.000298332 
0 0 0 0.000649827 -0.000507942 2.80808e-06 0 885 1071 0.183283 -0.132637 -1.61743 1.22421e-06 0.00029968 
0 0 0 -9.7361e-05 -3.09963e-06 -3.20192e-07 0 885 2334 -0.031805 -0.0946892 -1.62766 1.22818e-06 0.000300943 
0 0 0 -6.06682e-17 3.46858e-16 6.48804e-12 0 885 662 -0.0149081 0.0295204 -1.62192 1.22596e-06 0.000300235 
0 0 0 7.73592e-17 -4.22873e-16 6.48796e-12 0 885 1295 0.0128901 -0.0255147 -1.61812 1.22448e-06 0.000299765 
0 0 0 1.16278e-16 -3.4011e-17 -5.31088e-12 0 885 1341 0.0251417 -0.00776046 -1.62307 1.2264e-06 0.000300376 
0 0 0 -2.46396e-05 0.000143281 4.68901e-06 0 885 4648 0.00173639 0.0563246 -1.60466 1.21924e-06 0.000298101 
0 0 0 -5.98577e-05 -0.000108046 5.22908e-07 0 885 1050 0.0169962 -0.161831 -1.59741 1.21641e-06 0.000297202 
0 0 0 0.00040934 7.00331e-05 -2.64534e-06 0 885 850 0.0686465 -0.0494562 -1.62456 1.22698e-06 0.000300561 
0 0 0 -0.000320493 -0.000170738 9.52421e-07 0 885 110 0.103709 -0.0631249 -1.68289 1.24926e-06 0.000307713 
0 0 0 7.01592e-05 -1.3373e-05 -6.00155e-08 0 885 28 -0.0121273 -0.0138592 -1.62137 1.22575e-06 0.000300167 
0 0 0 2.55676e-05 -0.000385911 -1.24618e-06 0 885 3675 -0.00400861 -0.00274331 -1.61851 1.22464e-06 0.000299814 
0 0 0 0.000265065 0.000334065 -1.29177e-06 0 885 609 -0.235008 -0.0108427 -1.60028 1.21753e-06 0.000297558 
0 0 0 -6.02073e-303 -2.82985e-20 5.89791e-12 0 885 275 -3.58874e-307 5.25978e-06 -1.62002 1.22522e-06 0.0003 
0 0 0 -0.000152562 5.24916e-05 1.64338e-06 0 885 340 0.208567 0.11855 -1.5315 1.19018e-06 0.000288969 
0 0 0 -0.000104002 -3.90261e-05 -3.08521e-07 0 885 582 -0.025417 -0.0078905 -1.61999 1.22521e-06 0.000299997 
0 0 0 -8.70814e-05 0.00023085 1.86944e-06 0 885 1701 -0.0216056 0.0512983 -1.59963 1.21727e-06 0.000297477 
0 0 0 -4.55926e-05 0.000272926 4.29061e-09 0 885 580 -0.00338996 -0.000569129 -1.62004 1.22523e-06 0.000300003 
0 0 0 -4.09688e-44 -4.70938e-20 5.89787e-12 0 885 4649 1.7761e-45 5.25978e-06 -1.62002 1.22522e-06 0.0003 
0 0 0 8.12781e-09 -8.17877e-08 6.55847e-12 0 885 4895 0.107978 0.0141162 -1.62339 1.22653e-06 0.000300416 
0 0 0 -5.43604e-17 1.8714e-17 -5.31055e-12 0 885 934 -0.018239 0.00563889 -1.61698 1.22404e-06 0.000299624 
0 0 0 -4.24644e-05 3.0449e-05 -8.65053e-07 0 885 5548 -0.405096 -0.0658645 -1.69014 1.25199e-06 0.000308595 
0 0 0 8.75432e-05 9.04959e-06 -1.84618e-07 0 885 355 0.0376589 0.00027346 -1.61814 1.22449e-06 0.000299768 
0 0 0 5.79631e-05 1.34609e-06 -3.84192e-07 0 885 410 0.0660889 -0.100451 -1.62273 1.22627e-06 0.000300334 
0 0 0 -2.55819e-302 -6.58548e-20 -5.8979e-12 0 885 1151 5.62378e-307 5.25978e-06 -1.62002 1.22522e-06 0.0003 
0 0 0 1.37278e-07 8.35576e-08 -1.11456e-09 0 885 562 -0.0140737 0.0327757 -1.62704 1.22794e-06 0.000300866 
0 0 0 -2.23517e-07 1.62524e-07 1.04717e-09 0 885 3243 0.233883 0.0604952 -1.62605 1.22756e-06 0.000300744 
0 0 0 -2.92614e-44 -7.54437e-20 3.53503e-12 0 885 1107 1.14027e-45 5.25978e-06 -1.62002 1.22522e-06 0.0003 
0 0 0 3.73226e-05 -0.00015233 -5.54396e-07 0 885 17 0.0601948 0.107895 -1.62478 1.22706e-06 0.000300587 
0 0 0 -0.000171603 5.97723e-05 5.66977e-07 0 885 1441 -0.00760208 0.00922928 -1.60878 1.22085e-06 0.00029861 
0 0 0 0.000184741 -2.08584e-05 -2.6836e-07 0 885 30 -0.0243991 0.0644851 -1.61556 1.22349e-06 0.000299449 
0 0 0 6.49278e-05 -0.000239346 -2.12906e-07 0 885 400 0.0929559 0.092798 -1.66262 1.24159e-06 0.000305237 
0 0 0 -6.07638e-180 4.70971e-20 -2.36059e-12 0 885 1114 2.53057e-181 5.25978e-06 -1.62002 1.22522e-06 0.0003 
0 0 0 -2.73252e-08 -4.27456e-07 1.29693e-10 0 885 5586 0.111066 -0.210217 -1.6137 1.22276e-06 0.000299219 
0 0 0 -4.75304e-08 2.20281e-07 -2.16772e-10 0 885 2291 0.0417175 0.019848 -1.58283 1.21067e-06 0.000295391 
0 0 0 -0.00367173 -0.410776 0.300046 0 853 1005 0.00208768 -0.00658935 0.00312372 6.77264e-08 1.35892e-05 
0 0 0 0.689702 1.01371 0.783933 0 853 5666 -0.00881596 -0.0618764 -0.016485 1.17938e-07 2.38176e-05 
0 0 0 3.43307e-205 -1.88535e-20 -4.72347e-12 0 851 1184 1.83316e-206 5.25978e-06 1.62002 1.22522e-06 0.0003 
0 0 0 9.74394e-283 -1.34626e-23 -2.36055e-12 0 851 3765 1.43795e-284 5.25978e-06 1.62002 1.22522e-06 0.0003 
0 0 0 -5.76528e-257 6.56729e-20 1.18143e-12 0 851 336 1.22135e-256 5.25978e-06 1.62002 1.22522e-06 0.0003 
0 0 0 4.50896e-303 7.77173e-23 -3.53505e-12 0 851 2862 0 5.25978e-06 1.62002 1.22522e-06 0.0003 
0 0 0 1.99605e-302 -8.47932e-20 -4.72345e-12 0 851 5205 1.30307e-307 5.25978e-06 1.62002 1.22522e-06 0.0003 
0 0 0 -9.7361e-05 -3.09963e-06 -3.20192e-07 0 851 2334 -0.0263521 -0.0784595 1.61239 1.22226e-06 0.000299057 
0 0 0 -6.06682e-17 3.46858e-16 6.48804e-12 0 851 662 -0.0128901 0.0255252 1.61812 1.22448e-06 0.000299765 
0 0 0 7.73592e-17 -4.22873e-16 6.48796e-12 0 851 1295 0.0149081 -0.0295099 1.62192 1.22596e-06 0.000300235 
0 0 0 1.16278e-16 -3.4011e-17 -5.31088e-12 0 851 1341 0.018239 -0.00562837 1.61698 1.22404e-06 0.000299624 
0 0 0 0.000265065 0.000334065 -1.29177e-06 0 851 609 -0.275444 -0.011603 1.63984 1.23287e-06 0.000302442 
0 0 0 -6.02073e-303 -2.82985e-20 5.89791e-12 0 851 275 4.50983e-307 5.25978e-06 1.62002 1.22522e-06 0.0003 
0 0 0 -4.55926e-05 0.000272926 4.29061e-09 0 851 580 -0.00334128 -0.000561264 1.62 1.22521e-06 0.000299997 
0 0 0 -4.09688e-44 -4.70938e-20 5.89787e-12 0 851 4649 1.7761e-45 5.25978e-06 1.62002 1.22522e-06 0.0003 