ITEM: TIMESTEP
7850000
ITEM: NUMBER OF ENTRIES
2469
ITEM: BOX BOUNDS ff ff ff
-0.01 0.45
-0.15 0.15
-0.08 0.1
ITEM: ENTRIES c_pwc[1] c_pwc[2] c_pwc[3] c_pwc[4] c_pwc[5] c_pwc[6] c_pwc[7] c_pwc[8] c_pwc[9] c_pwc[10] c_pwc[11] c_pwc[12] c_pwc[13] c_pwc[14] 
0 0 0 0.412891 0.343033 5.39593 0 936 15029 0.000270491 0.00229424 0.000372176 4.7703e-08 9.54717e-06 
0 0 0 7.92917e-05 -0.186022 0.0925003 0 788 14434 1.35775e-11 5.65122e-06 4.25299e-06 3.46963e-10 6.90291e-08 
0 0 0 0.000794202 -6.07732e-05 0.000328027 0 778 7649 1.30957e-09 9.9725e-06 1.14157e-06 5.07938e-10 1.01057e-07 
0 0 0 -0.0219435 -0.000626382 0.00335085 0 778 3129 1.85479e-13 1.02659e-05 1.35713e-06 5.18851e-10 1.03229e-07 
0 0 0 0.00124889 7.44008e-05 -0.000368195 0 778 8040 -1.70223e-07 1.06845e-05 1.35812e-06 5.33713e-10 1.06186e-07 
0 0 0 -0.0230911 -0.0306489 0.181255 0 778 14580 -3.33972e-07 8.90507e-05 2.67964e-05 2.7124e-09 5.39797e-07 
0 0 0 0.00107912 -0.000237512 0.000330728 0 778 4413 5.17888e-08 8.19418e-06 1.03931e-06 4.07264e-10 8.10266e-08 
0 0 0 0.121227 -0.0173893 0.0930251 0 778 14360 3.25197e-12 1.02653e-05 1.35702e-06 5.18851e-10 1.03229e-07 
0 0 0 0.00102318 4.98365e-05 2.10257e-05 0 778 3837 -3.12022e-07 1.14067e-05 2.82178e-06 5.7561e-10 1.14522e-07 
0 0 0 -0.0734137 -0.00199127 0.0106523 0 778 7654 -5.05333e-18 1.02659e-05 1.35713e-06 5.18851e-10 1.03229e-07 
0 0 0 0.00153756 -0.000350681 0.00188698 0 778 12917 3.14681e-08 9.82597e-06 1.21698e-06 5.03852e-10 1.00244e-07 
0 0 0 0.0507883 -0.0164645 0.0880772 0 778 4848 1.58032e-19 1.02659e-05 1.35713e-06 5.18851e-10 1.03229e-07 
0 0 0 0.023779 -0.00405155 0.0216739 0 778 2015 1.72867e-18 1.02659e-05 1.35713e-06 5.18851e-10 1.03229e-07 
0 0 0 0.00050917 -1.41563e-05 0.000649887 0 778 2611 7.08066e-07 4.89186e-06 -1.91662e-06 3.22379e-10 6.41378e-08 
0 0 0 -0.000194447 8.76941e-05 -0.000187213 0 778 12332 -3.40069e-06 1.18644e-05 4.41204e-06 5.98832e-10 1.19143e-07 
0 0 0 0.113537 -0.00280319 0.0149957 0 778 12800 1.47447e-17 1.02659e-05 1.35713e-06 5.18851e-10 1.03229e-07 
0 0 0 -0.000666272 0.000413702 -0.00262571 0 778 12450 -1.63374e-06 8.99227e-06 2.81843e-06 4.68681e-10 9.32465e-08 
0 0 0 0.0455254 0.0024611 -0.0131657 0 778 13175 -9.34345e-18 1.02659e-05 1.35713e-06 5.18851e-10 1.03229e-07 
0 0 0 -0.00379969 9.42148e-05 -0.00122251 0 778 10496 -6.597e-07 1.67359e-05 5.58063e-06 7.09907e-10 1.41244e-07 
0 0 0 0.00883933 -0.00470722 0.0251814 0 778 12116 1.54331e-19 1.02659e-05 1.35713e-06 5.18851e-10 1.03229e-07 
0 0 0 0.0925955 -0.00622218 0.0332857 0 778 5399 -6.43321e-18 1.02659e-05 1.35713e-06 5.18851e-10 1.03229e-07 
0 0 0 -0.0498946 0.00367445 -0.0196543 0 778 12410 -5.35019e-06 7.05257e-06 2.25469e-05 5.43242e-10 1.08082e-07 
0 0 0 0.000719223 1.65563e-05 8.6519e-05 0 776 7937 -6.38479e-10 1.08328e-05 -4.47456e-07 5.38756e-10 1.07189e-07 
0 0 0 8.5835e-05 -7.40259e-06 0.000173498 0 776 5540 -6.8394e-11 1.05839e-05 -1.9676e-09 5.25363e-10 1.04524e-07 
0 0 0 0.00033572 -2.43324e-06 0.000588765 0 776 1200 -2.12254e-13 1.05196e-05 1.2321e-13 5.24298e-10 1.04313e-07 
0 0 0 -0.000550496 7.12882e-05 -0.00038127 0 776 1871 5.51739e-10 9.6282e-06 -9.162e-08 5.10402e-10 1.01548e-07 
0 0 0 0.000585417 -7.7477e-05 0.000568207 0 776 206 -1.7398e-09 1.15031e-05 -6.581e-08 5.40526e-10 1.07541e-07 
0 0 0 0.000291477 1.39676e-05 -0.000419637 0 776 1972 1.42043e-09 1.04712e-05 -2.59701e-08 5.2624e-10 1.04699e-07 
0 0 0 -0.000390761 -2.4067e-05 -0.000294391 0 776 733 1.39336e-08 1.02118e-05 -1.41006e-08 5.09302e-10 1.01329e-07 
0 0 0 0.00127376 2.16864e-10 0.00103431 0 776 894 7.1192e-17 1.05196e-05 5.77916e-17 5.24825e-10 1.04417e-07 
0 0 0 -0.00135572 -1.49521e-05 -0.0020114 0 776 9680 1.5063e-09 1.01271e-05 -2.20261e-10 5.08434e-10 1.01156e-07 
0 0 0 -0.00230857 -6.17025e-05 -0.000628784 0 776 414 -8.15384e-09 1.08773e-05 -3.70467e-08 5.23378e-10 1.04129e-07 
0 0 0 0.000675447 9.29228e-05 -0.000539259 0 776 690 -1.51638e-08 1.1094e-05 6.96833e-07 5.6369e-10 1.12151e-07 
0 0 0 0.000122593 -0.000115315 -0.000376474 0 776 280 1.87321e-07 1.10533e-05 1.86518e-06 5.1768e-10 1.02996e-07 
0 0 0 0.00165043 0.000109027 -0.00042587 0 776 1894 -3.44204e-07 1.29548e-05 3.94502e-06 6.25764e-10 1.24501e-07 
0 0 0 0.000174241 0.000105999 0.000583257 0 776 9977 4.03435e-08 1.12316e-05 -1.42247e-06 5.70937e-10 1.13592e-07 
0 0 0 0.000716125 1.1432e-05 0.000581118 0 776 1225 4.38267e-09 1.00866e-05 -2.87818e-07 5.12816e-10 1.02028e-07 
0 0 0 -0.000629952 -1.00464e-12 0.000859011 0 776 3512 4.37677e-19 1.05196e-05 -6.18745e-19 5.24825e-10 1.04417e-07 
0 0 0 -8.35564e-05 7.29059e-06 -0.000717289 0 776 101 1.00854e-10 1.04663e-05 -5.84009e-11 5.2463e-10 1.04379e-07 
0 0 0 -0.00190771 5.66063e-06 -0.00101964 0 776 317 -6.49372e-09 1.16044e-05 9.93048e-07 5.61516e-10 1.11718e-07 
0 0 0 0.000340637 -4.26263e-05 -0.000940984 0 776 1705 6.31356e-08 1.02754e-05 1.25779e-06 5.0741e-10 1.00952e-07 
0 0 0 0.000289375 -7.63053e-06 -0.00117136 0 776 2352 -1.58417e-07 1.09143e-05 1.77694e-06 5.36232e-10 1.06687e-07 
0 0 0 -0.000454796 -2.47519e-11 0.00074905 0 776 9269 3.40629e-18 1.05196e-05 -5.59097e-18 5.24825e-10 1.04417e-07 
0 0 0 -0.000369165 -8.10109e-06 0.000416098 0 776 6408 3.50782e-07 1.02072e-05 6.25951e-07 5.12623e-10 1.0199e-07 
0 0 0 0.000608401 -3.52229e-06 -0.000646154 0 776 553 -3.9415e-10 1.05594e-05 -9.97685e-10 5.25386e-10 1.04529e-07 
0 0 0 3.07102e-05 -1.63607e-05 -0.000577919 0 776 585 3.11545e-08 1.07285e-05 3.66952e-07 5.28221e-10 1.05093e-07 
0 0 0 -4.36077e-05 1.12316e-05 -0.000695545 0 776 2069 -6.50008e-08 1.09729e-05 7.97611e-07 5.42209e-10 1.07876e-07 
0 0 0 -0.000214239 -5.38418e-05 -0.000672433 0 776 531 4.06415e-07 1.23148e-05 3.11061e-06 5.716e-10 1.13724e-07 
0 0 0 0.00172883 -0.000147063 0.000637492 0 776 8455 2.64403e-06 1.41458e-05 -5.61791e-06 6.09093e-10 1.21184e-07 
0 0 0 -0.000953548 6.68051e-06 0.00055332 0 776 11208 -1.77511e-07 1.16342e-05 -1.46926e-06 5.62691e-10 1.11952e-07 
0 0 0 -4.78877e-05 2.36313e-05 0.000586382 0 776 6702 -3.2596e-07 8.86278e-06 -1.11411e-06 4.73428e-10 9.4191e-08 
0 0 0 0.000887712 -5.17661e-05 0.000699664 0 776 1002 -4.37404e-07 1.29338e-05 -2.06317e-06 5.91498e-10 1.17683e-07 
0 0 0 -5.67593e-05 1.07607e-05 -0.000159077 0 776 1470 2.16525e-10 1.09295e-05 2.28402e-07 5.40685e-10 1.07573e-07 
0 0 0 9.26659e-05 2.43288e-06 -0.000346144 0 776 154 9.43628e-08 1.04848e-05 -5.41099e-08 5.24196e-10 1.04292e-07 
0 0 0 1.4777e-05 2.1974e-05 -0.000212294 0 776 1045 -1.72351e-08 1.03226e-05 8.40087e-08 5.23023e-10 1.04059e-07 
0 0 0 -0.000169757 -0.00075906 0.000623276 0 776 10360 7.83119e-07 2.3008e-05 -4.09103e-06 7.40319e-10 1.47295e-07 
0 0 0 -0.000526385 -4.40151e-05 0.000215047 0 776 4634 7.91807e-08 1.04783e-05 7.44875e-08 5.13921e-10 1.02248e-07 
0 0 0 0.000787243 3.78662e-05 -0.000296749 0 776 72 2.42512e-08 1.00732e-05 -4.80559e-08 5.18128e-10 1.03085e-07 
0 0 0 -0.000215032 1.06887e-06 -0.000310306 0 776 4165 5.35063e-09 1.05079e-05 1.13039e-08 5.24668e-10 1.04386e-07 
0 0 0 9.05429e-05 1.35751e-05 -0.000225725 0 776 1920 -2.87329e-10 1.04931e-05 2.36299e-09 5.26884e-10 1.04827e-07 
0 0 0 -0.000606398 -5.57288e-05 -0.000133947 0 776 3087 -7.42525e-08 1.09938e-05 1.02759e-06 5.28508e-10 1.0515e-07 
0 0 0 0.00126231 -7.03298e-07 -2.70353e-05 0 776 10613 -6.59546e-06 6.51687e-06 1.09275e-06 3.81237e-10 7.58483e-08 
0 0 0 -0.000451961 0.000142572 3.1605e-06 0 776 4185 1.92707e-06 8.96484e-06 -1.49582e-06 5.03435e-10 1.00162e-07 
0 0 0 -0.000752408 0.000126682 0.000659272 0 776 4095 -1.4194e-06 8.00622e-06 -6.25774e-06 4.66183e-10 9.27494e-08 
0 0 0 -0.00502439 -0.000197465 0.00105936 0 776 4938 -6.98913e-07 1.67373e-05 -7.14163e-06 6.75712e-10 1.3444e-07 
0 0 0 -0.0024274 5.99352e-05 -0.000390334 0 776 18 7.29141e-07 1.015e-05 -8.78832e-07 5.25511e-10 1.04554e-07 
0 0 0 0.00328142 -0.000153735 -0.000194325 0 776 4248 1.62824e-08 9.17788e-06 1.17773e-07 4.45167e-10 8.85681e-08 
0 0 0 -0.00216003 -1.03768e-12 -0.00344456 0 776 9715 -6.91381e-20 1.05196e-05 5.41632e-19 5.24825e-10 1.04417e-07 
0 0 0 0.00069667 0.000120576 -0.000813388 0 776 8603 1.44185e-06 1.0142e-05 -1.86456e-07 5.38444e-10 1.07127e-07 
0 0 0 -0.00201237 5.27554e-05 -0.000680502 0 776 1367 -3.00106e-07 9.34449e-06 -1.99576e-07 4.96623e-10 9.88061e-08 
0 0 0 -0.00272723 -0.000613736 -0.00232791 0 776 1036 4.31641e-06 1.29211e-05 4.80704e-06 4.73956e-10 9.42961e-08 
0 0 0 0.00598562 0.000136221 -0.00240077 0 776 6544 -3.27988e-08 9.16164e-06 1.09942e-07 5.08794e-10 1.01228e-07 
0 0 0 0.00427231 -0.00021781 -0.00055146 0 776 3998 6.28041e-07 1.6325e-05 8.13829e-06 6.59663e-10 1.31247e-07 
0 0 0 -0.00133582 2.93536e-05 0.00120542 0 776 9160 -6.95119e-07 1.02891e-05 -3.74382e-07 5.2351e-10 1.04156e-07 
0 0 0 -0.00113533 0.000154321 -0.0010282 0 776 7185 5.43511e-07 1.00269e-05 -9.4908e-08 5.4197e-10 1.07829e-07 
0 0 0 -0.00193436 -2.41429e-05 0.0039369 0 776 9639 6.75599e-09 1.10984e-05 2.34722e-08 5.38724e-10 1.07183e-07 
0 0 0 0.00346719 0.000774022 -0.00033723 0 776 4532 6.50668e-08 1.8206e-05 -3.33508e-07 9.09111e-10 1.80882e-07 
0 0 0 0.00453996 -2.46952e-05 0.000480596 0 776 9210 -1.47016e-10 1.05295e-05 4.83822e-09 5.1981e-10 1.0342e-07 
0 0 0 -0.0109369 8.37471e-06 0.000356028 0 776 9279 -2.73232e-11 1.05033e-05 4.78263e-13 5.26097e-10 1.0467e-07 
0 0 0 -0.00261996 2.2354e-07 0.00224996 0 776 3983 -1.6586e-13 1.05145e-05 1.42358e-13 5.24706e-10 1.04394e-07 
0 0 0 0.00110208 -0.000514131 0.000940089 0 776 3427 1.33653e-07 9.87194e-06 -8.59654e-07 3.90971e-10 7.77849e-08 
0 0 0 0.00371137 0.000287625 0.000607665 0 776 1118 -1.04109e-06 5.35634e-06 -3.72906e-07 4.04196e-10 8.04164e-08 
0 0 0 0.00193433 -0.000282513 0.00017683 0 776 1890 7.97781e-07 1.64445e-05 -9.09779e-06 6.50158e-10 1.29355e-07 
0 0 0 -0.000373193 1.07137e-05 0.000881618 0 776 5900 -3.11047e-10 1.02551e-05 -2.06127e-07 5.18319e-10 1.03123e-07 
0 0 0 0.00202747 0.000230927 0.00132691 0 776 7431 -8.20826e-09 1.03617e-05 7.85395e-07 5.69645e-10 1.13335e-07 
0 0 0 0.00297597 -5.64497e-09 0.000298735 0 776 1366 -4.57859e-15 1.05194e-05 -4.59754e-16 5.24819e-10 1.04416e-07 
0 0 0 0.00392375 -5.27668e-12 9.3893e-05 0 776 10907 6.06653e-19 1.05196e-05 1.67179e-20 5.24825e-10 1.04417e-07 
0 0 0 0.00539159 5.63795e-13 0.000296041 0 776 6574 -5.42084e-19 1.05196e-05 -3.38586e-20 5.24825e-10 1.04417e-07 
0 0 0 0.00493628 1.52832e-05 -0.00123762 0 776 1887 -5.42103e-09 1.12325e-05 -2.90586e-08 5.51548e-10 1.09735e-07 
0 0 0 -0.0043268 2.67288e-07 -0.00559343 0 776 5167 -3.27873e-13 1.05143e-05 -4.23866e-13 5.24708e-10 1.04394e-07 
0 0 0 0.000312177 1.98912e-08 -0.00439759 0 776 5950 1.4652e-14 1.05196e-05 -2.12009e-14 5.24831e-10 1.04419e-07 
0 0 0 0.00816021 -0.000103974 -0.00200764 0 776 4164 3.63843e-07 1.61378e-05 6.40076e-06 6.77124e-10 1.34721e-07 
0 0 0 0.0119338 9.79186e-05 -0.00132459 0 776 1749 -3.97823e-07 4.46704e-06 4.39142e-07 3.20949e-10 6.38533e-08 
0 0 0 -0.000670521 -3.09259e-05 -0.00269999 0 776 7843 -4.90088e-07 1.11281e-05 7.36206e-07 5.38243e-10 1.07087e-07 
0 0 0 -0.00187696 2.99767e-06 -0.0139566 0 776 11531 -5.03818e-12 1.0533e-05 -1.1736e-11 5.25919e-10 1.04635e-07 
0 0 0 0.00391709 -3.36521e-07 -0.00889907 0 776 11571 -3.723e-13 1.05247e-05 8.45522e-13 5.24921e-10 1.04437e-07 
0 0 0 0.0132988 -5.22719e-12 -0.0127462 0 776 3630 3.18627e-19 1.05196e-05 9.36581e-19 5.24825e-10 1.04417e-07 
0 0 0 0.0173846 -1.34925e-07 -0.0110942 0 776 11044 -6.36194e-13 1.05156e-05 4.06004e-13 5.24665e-10 1.04386e-07 
0 0 0 0.00223088 1.69108e-07 -0.0118102 0 776 7313 9.42868e-14 1.05149e-05 -5.72979e-13 5.24706e-10 1.04394e-07 
0 0 0 0.000572558 -5.5427e-13 -0.00314747 0 777 10595 4.75654e-20 1.05196e-05 -3.02144e-19 5.24825e-10 1.04417e-07 
0 0 0 0.0014043 -2.59056e-06 0.00188897 0 777 5611 1.73238e-07 1.11428e-05 -5.64323e-07 5.44799e-10 1.08392e-07 
0 0 0 -0.00287915 -5.93632e-06 -0.000257931 0 777 12304 1.87911e-07 8.17708e-06 -1.0231e-06 4.42356e-10 8.80088e-08 
0 0 0 -0.00118149 -6.43103e-06 -0.000615821 0 777 12691 -1.7243e-08 7.81604e-06 5.37664e-06 4.29076e-10 8.53666e-08 
0 0 0 -4.32719e-05 0.000376514 -0.00623202 0 777 1063 3.29647e-06 5.78819e-06 1.57974e-06 4.42196e-10 8.79769e-08 
0 0 0 -0.000191556 -0.000156087 -0.0043713 0 777 7286 -8.59045e-06 1.35879e-05 4.37581e-07 5.90097e-10 1.17405e-07 
0 0 0 -0.00758625 4.27978e-12 -0.00323046 0 777 5953 6.76855e-19 1.05196e-05 4.63659e-19 5.24825e-10 1.04417e-07 
0 0 0 -0.00273039 -2.51669e-07 -5.1822e-06 0 777 700 1.90755e-13 1.05186e-05 3.62051e-16 5.24737e-10 1.044e-07 
0 0 0 -0.00823826 5.19574e-05 -0.00400491 0 777 7893 1.5016e-07 1.09519e-05 5.9387e-07 5.50276e-10 1.09481e-07 
0 0 0 -0.00923124 8.43914e-11 -0.00963163 0 777 11529 -2.0513e-16 1.05196e-05 -2.14053e-16 5.24825e-10 1.04417e-07 
0 0 0 -0.0156166 -2.03491e-10 -0.0127216 0 777 11880 8.97179e-16 1.05196e-05 7.30815e-16 5.24825e-10 1.04417e-07 
0 0 0 0.000125796 -0.000129141 -6.95046e-05 0 775 210 1.19988e-06 6.13879e-06 2.33666e-06 3.175e-10 6.31671e-08 
0 0 0 0.000648173 -0.000667055 -0.00156153 0 775 2116 -2.56712e-06 1.78976e-05 1.46638e-05 5.86608e-10 1.1671e-07 
0 0 0 -0.00174505 6.09639e-06 -6.37302e-05 0 775 12 -1.10826e-08 1.01241e-05 -6.56389e-07 5.13701e-10 1.02204e-07 
0 0 0 0.000677945 -3.32277e-05 1.40161e-05 0 775 1541 8.16305e-07 1.27413e-05 -2.03069e-06 5.93824e-10 1.18146e-07 
0 0 0 -0.00925573 0.000472211 -0.000176922 0 775 12874 1.08696e-05 2.13308e-05 -5.82948e-06 9.54223e-10 1.89859e-07 
0 0 0 -0.00417072 -0.00125078 -0.00166812 0 775 9650 1.2255e-05 2.75212e-05 3.00741e-05 6.69124e-10 1.33129e-07 
0 0 0 -0.00890436 0.000465717 0.00396574 0 775 11656 -7.38994e-06 1.64742e-05 -7.99968e-06 6.87646e-10 1.36815e-07 
0 0 0 0.0165824 0.00214939 0.0113949 0 775 6493 -5.55032e-08 9.84384e-06 -1.39528e-06 5.09266e-10 1.01322e-07 
0 0 0 -0.0151484 -0.0221305 -0.118388 0 775 2966 -2.91871e-18 1.02659e-05 -1.35713e-06 5.18851e-10 1.03229e-07 
0 0 0 0.0002819 -4.94084e-05 -0.000203273 0 839 5113 -7.29577e-07 1.78262e-08 3.64353e-07 1.93932e-11 3.85817e-09 
0 0 0 -0.000518092 4.49842e-05 -0.000213755 0 774 2641 4.15917e-07 1.2937e-05 -1.78811e-06 6.23211e-10 1.23994e-07 
0 0 0 0.0002819 -4.94084e-05 -0.000203273 0 774 5113 8.20239e-07 1.05194e-05 -1.26196e-06 5.24146e-10 1.04282e-07 
0 0 0 -0.000159258 4.14376e-05 -9.24358e-05 0 774 10425 -2.0908e-07 9.23948e-06 -1.41904e-06 4.97664e-10 9.90132e-08 
0 0 0 0.00113431 0.000108812 -3.07312e-05 0 774 3865 7.28952e-08 1.06476e-05 -2.74141e-06 5.639e-10 1.12192e-07 
0 0 0 -1.46081e-05 -0.00020533 0.000648032 0 774 4325 -5.63049e-08 1.10023e-05 -1.29173e-06 4.73577e-10 9.42207e-08 
0 0 0 0.000967459 -0.000372409 -0.00136208 0 774 3869 6.66882e-07 1.51136e-05 4.5647e-06 6.11625e-10 1.21688e-07 
0 0 0 0.00292165 -0.000324632 -0.00206683 0 774 1165 -1.60987e-06 1.34199e-05 3.64634e-06 6.02204e-10 1.19814e-07 
0 0 0 0.00204434 6.79706e-05 -0.00211917 0 774 2858 -2.79981e-06 8.91112e-06 1.56763e-06 5.56424e-10 1.10705e-07 
0 0 0 -0.00692707 -0.00241308 -0.0204984 0 774 9441 3.83135e-05 1.44881e-05 9.43744e-05 3.14812e-10 6.26324e-08 
0 0 0 0.00264106 -0.0217266 -0.0963836 0 774 8682 1.97071e-07 0.000135006 3.86528e-05 2.22041e-09 4.41859e-07 
0 0 0 -1.32421e-05 -4.56431e-05 -0.000247177 0 774 6076 9.54086e-07 1.22727e-05 -1.67798e-09 5.75125e-10 1.14426e-07 
0 0 0 -4.77053e-05 -9.81988e-06 -8.87735e-05 0 774 3081 1.71311e-07 8.87498e-06 -1.74137e-07 4.65878e-10 9.26889e-08 
0 0 0 -0.00128677 4.53819e-05 9.63589e-05 0 774 4050 -8.42751e-08 1.00829e-05 -1.70856e-06 5.20837e-10 1.03624e-07 
0 0 0 0.000266816 -2.56883e-05 -4.87966e-05 0 774 3877 9.30458e-08 9.25709e-06 -4.79521e-07 4.75929e-10 9.46887e-08 
0 0 0 -0.00135309 6.17863e-05 0.000114835 0 774 5875 6.7464e-08 9.76457e-06 -1.2346e-06 5.10144e-10 1.01496e-07 
0 0 0 -0.00886167 0.000477603 0.00202918 0 774 8267 1.00328e-06 1.01781e-05 -3.18175e-06 5.48031e-10 1.09035e-07 
0 0 0 -0.0157299 0.00120737 0.00580706 0 774 13929 3.05942e-07 8.40551e-06 -9.97548e-07 4.80242e-10 9.55468e-08 
0 0 0 -0.0348421 -0.00385988 -0.0231445 0 774 13214 -2.64602e-06 -9.42532e-06 -5.24941e-05 2.15639e-10 4.29012e-08 
0 0 0 -0.00176544 -0.00145685 -0.00964083 0 774 3491 -3.03585e-07 9.89734e-06 2.82436e-06 5.55338e-10 1.10489e-07 
0 0 0 0.129292 -0.0179881 -0.0710241 0 774 13018 5.03365e-08 2.33901e-05 3.77659e-06 1.25378e-10 2.49435e-08 
0 0 0 -0.000191843 3.94169e-05 -0.000121797 0 839 7315 5.64056e-06 2.77282e-06 -5.15195e-07 3.00378e-10 5.97605e-08 
0 0 0 -0.561312 6.76064 6.71074 0 944 9317 4.14917e-06 -0.00162052 0.00272786 3.52404e-08 7.04185e-06 
0 0 0 -0.000191843 3.94169e-05 -0.000121797 0 774 7315 -4.9119e-06 9.6542e-06 -1.81782e-06 5.14804e-10 1.02424e-07 
0 0 0 -0.00185859 0.00256117 0.0139296 0 774 5294 3.23924e-06 1.21637e-05 -4.48066e-06 5.88736e-10 1.17134e-07 
0 0 0 -0.00931869 0.000298998 0.00211084 0 774 13605 1.43021e-06 1.08397e-05 -8.02192e-06 5.5722e-10 1.10863e-07 
0 0 0 -0.00652865 -8.26069e-05 -0.000445777 0 774 13272 -3.93339e-08 1.12075e-05 -1.68871e-06 5.51496e-10 1.09724e-07 
0 0 0 -0.161129 -0.00544061 -0.0291047 0 774 3484 -1.92116e-17 1.02659e-05 -1.35713e-06 5.18851e-10 1.03229e-07 
0 0 0 -0.0340435 0.000732107 0.00391538 0 774 2150 -1.7689e-12 1.02704e-05 -1.35802e-06 5.19046e-10 1.03268e-07 
0 0 0 -0.0196492 -0.000782351 -0.0041852 0 774 12841 -4.69708e-18 1.02659e-05 -1.35713e-06 5.18851e-10 1.03229e-07 
0 0 0 0.0377772 0.00685619 0.0366773 0 774 1268 -2.16455e-17 1.02659e-05 -1.35713e-06 5.18851e-10 1.03229e-07 
0 0 0 -0.0184936 0.0029205 0.0108775 0 774 6057 -5.59693e-07 2.802e-06 -2.33162e-06 4.61649e-10 9.18475e-08 
0 0 0 0.0572823 0.000874645 0.00467893 0 774 9818 7.4382e-18 1.02659e-05 -1.35713e-06 5.18851e-10 1.03229e-07 
0 0 0 0.0306651 -0.0343126 -0.0885709 0 772 13823 -6.56233e-18 9.53905e-06 -2.53098e-06 5.00925e-10 9.96621e-08 
0 0 0 -0.0324886 0.0642869 -0.0499238 0 884 1196 0.000546895 -0.00101936 0.0023136 1.47137e-08 2.93256e-06 
0 0 0 -2.78105e-131 -4.72419e-20 2.36059e-12 0 884 5230 2.68896e-134 5.25978e-06 -1.62002 1.22522e-06 0.0003 
0 0 0 0.0199763 -0.0175785 0.0138206 0 884 3961 0.000784414 -2.96873e-05 0.00238258 2.06599e-08 4.12078e-06 
0 0 0 0.0232969 0.0105143 0.00091748 0 884 1210 7.81375e-05 -0.00065721 7.02229e-05 2.00497e-09 3.98976e-07 
0 0 0 -3.19387e-302 -6.60962e-20 -4.72345e-12 0 884 3064 3.45665e-307 5.25978e-06 -1.62002 1.22522e-06 0.0003 
0 0 0 0.0327172 -0.01001 0.00100126 0 884 1137 -0.000126172 -0.000119751 0.00091863 1.04203e-08 2.07574e-06 
0 0 0 -3.4373e-302 -1.38031e-22 2.36056e-12 0 884 871 -2.2875e-307 5.25978e-06 -1.62002 1.22522e-06 0.0003 
0 0 0 3.17748e-302 -5.63973e-20 -1.18141e-12 0 884 1962 -1.18798e-307 5.25978e-06 -1.62002 1.22522e-06 0.0003 
0 0 0 -0.110782 0.0697772 -0.0139766 0 884 12660 0.000128097 0.00058471 0.00119716 1.09375e-08 2.17891e-06 
0 0 0 -0.028977 -0.00254509 -0.00420985 0 884 10434 -0.000277283 -0.000371125 0.000865613 9.48139e-09 1.88849e-06 
0 0 0 -0.0511445 0.00319183 -8.59081e-05 0 884 13987 0.0003248 0.00033227 0.000929297 1.03884e-08 2.06939e-06 
0 0 0 -0.0156264 -0.0100986 -0.012638 0 884 3721 -3.37205e-06 -4.93979e-05 0.000757008 7.73354e-09 1.54002e-06 
0 0 0 -3.65099e-17 4.51452e-17 4.72376e-12 0 884 2565 -0.000401239 -0.00365116 -1.61927 1.22493e-06 0.000299908 
0 0 0 -9.38058e-174 3.71096e-20 2.18353e-15 0 884 2145 -2.92393e-174 5.25978e-06 -1.62002 1.22522e-06 0.0003 
0 0 0 -0.013473 0.0431071 -0.014894 0 884 14356 5.84113e-05 -0.00073616 0.00147695 1.27446e-08 2.53949e-06 
0 0 0 0.0472278 -0.00346152 -6.33299e-05 0 884 10308 -0.000392188 0.000123754 2.47925e-05 9.17531e-10 1.82558e-07 
0 0 0 -0.0104572 -0.0066161 0.00067532 0 884 6826 2.2612e-06 4.55511e-06 1.01709e-05 6.59663e-10 1.31247e-07 
0 0 0 4.2972e-236 -3.77839e-20 -5.8979e-12 0 884 7394 -2.52456e-237 5.25978e-06 -1.62002 1.22522e-06 0.0003 
0 0 0 0.0675683 0.0252812 -0.0488759 0 884 14638 0.000520596 -0.000453323 0.00117232 7.38639e-09 1.47083e-06 
0 0 0 -2.5174e-302 -9.36704e-21 -3.53504e-12 0 884 3089 1.54708e-307 5.25978e-06 -1.62002 1.22522e-06 0.0003 
0 0 0 -0.000247011 0.000500521 0.000456136 0 884 1269 4.71358e-08 -3.83297e-06 -1.62007 1.22523e-06 0.000300004 
0 0 0 -0.0341622 0.0428737 0.000910479 0 884 13549 9.87856e-07 -2.83597e-06 6.00618e-06 5.75147e-10 1.1443e-07 
0 0 0 0.0394503 0.0012156 -0.00162854 0 884 8636 -0.000295042 -0.000216186 0.000781944 9.09664e-09 1.81177e-06 
0 0 0 -0.0226779 0.0996713 -0.004763 0 884 1828 -3.20301e-05 -0.000282636 0.000568891 6.96973e-09 1.38779e-06 
0 0 0 0.0427601 0.00866265 0.00364336 0 884 1651 -0.0001152 4.01114e-06 0.000401883 6.37812e-09 1.26989e-06 
0 0 0 -4.99342e-27 -6.6012e-20 5.8979e-12 0 884 7839 3.01799e-28 5.25978e-06 -1.62002 1.22522e-06 0.0003 
0 0 0 0.274742 0.195876 -0.0298322 0 884 10573 -0.000262527 -0.000122295 0.000579229 4.33665e-09 8.63215e-07 
0 0 0 0.0215749 0.0727132 -0.00891473 0 884 11619 0.000176079 -0.000464683 0.00099385 9.97119e-09 1.98617e-06 
0 0 0 0.0138346 0.0583923 -0.0189582 0 884 4860 0.000102123 0.00016184 0.00211568 1.62892e-08 3.24722e-06 
0 0 0 0.0159573 0.0751728 0.00432072 0 884 6883 2.95872e-06 -1.64453e-05 3.34187e-05 1.89472e-09 3.77031e-07 
0 0 0 1.03173e-306 8.48667e-20 -3.53503e-12 0 884 5274 -2.15965e-307 5.25978e-06 -1.62002 1.22522e-06 0.0003 
0 0 0 -0.0557609 0.0134919 -0.0149581 0 884 10526 0.00013325 -0.000110722 0.000346495 3.59839e-09 7.16197e-07 
0 0 0 4.20623e-17 7.68081e-17 -1.18095e-12 0 884 2130 0.0645534 0.00354555 -1.62438 1.22691e-06 0.000300538 
0 0 0 0.0370589 0.0821669 0.0242974 0 884 811 0.000317036 -0.00109773 -0.00015816 1.01281e-09 2.01517e-07 
0 0 0 0.574147 2.55074 0.834761 0 884 15168 0.0256513 0.0161717 0.387682 5.65909e-07 0.000121866 
0 0 0 -2.72202e-16 -7.66489e-17 -1.18089e-12 0 884 4708 -0.0546022 -0.00298928 -1.61567 1.22353e-06 0.000299462 
0 0 0 7.68588e-14 -2.86339e-17 5.15163e-18 0 863 2723 -1.61994 0.0111035 9.31788e-05 1.22519e-06 0.00029999 
0 0 0 7.69316e-14 5.76169e-17 -5.09441e-18 0 863 4560 -1.6201 -0.0113857 -4.82385e-05 1.22525e-06 0.00030001 
0 0 0 -7.22931e-14 -1.02484e-19 -3.10206e-302 0 862 444 -1.62002 5.25978e-06 1.29031e-307 1.22522e-06 0.0003 
0 0 0 2.56022e-14 -2.7295e-21 6.19704e-19 0 862 927 -1.62002 9.38878e-05 -4.53965e-05 1.22522e-06 0.0003 
0 0 0 0.442754 2.52954 -1.4242 0 854 1919 0.0109291 -0.0034884 0.00420624 8.27819e-08 1.6642e-05 
0 0 0 -0.00962311 0.0942797 0.157076 0 854 11259 0.00631495 7.00751e-05 -0.00214006 3.6466e-08 7.28788e-06 
0 0 0 -0.0324886 0.0642869 -0.0499238 0 854 1196 0.00467714 0.000261865 -0.000175314 2.79327e-08 5.57646e-06 
0 0 0 -0.0117269 0.0148744 -0.0365737 0 854 11931 0.000110801 0.000222991 -4.87375e-05 8.97583e-10 1.78588e-07 
0 0 0 0.00274692 0.00560866 0.0284113 0 854 12548 0.000602895 0.000318582 -0.000196722 8.09661e-09 1.61239e-06 
0 0 0 0.0370316 0.168582 -0.608731 0 854 9860 0.00069068 -0.00019675 0.000283812 1.24835e-08 2.48738e-06 
0 0 0 0.0179717 0.0383754 -0.0057593 0 854 8265 0.00219419 3.42715e-05 0.000235714 2.00066e-08 3.99014e-06 
0 0 0 0.012961 -0.110229 0.0276299 0 854 3353 0.000199693 1.92814e-05 -4.67404e-05 5.43643e-09 1.08228e-06 
0 0 0 0.00635458 -0.0665706 0.0333528 0 854 1435 -2.84148e-05 1.16286e-05 -8.1624e-06 6.904e-10 1.37363e-07 
0 0 0 0.00532665 0.0251911 0.0788107 0 854 1433 -2.21683e-05 -9.85766e-06 -5.06803e-06 6.44801e-10 1.28289e-07 
0 0 0 0.0118621 0.0163571 -0.00874494 0 854 11938 0.000154543 3.69736e-05 -3.25547e-05 4.77147e-09 9.49817e-07 
0 0 0 0.0105499 -0.0218279 0.0121784 0 854 11410 0.000285743 0.000220629 -6.78936e-05 6.05119e-09 1.20475e-06 
0 0 0 -0.00389062 0.0092396 0.0660301 0 854 1389 0.000161467 0.000266177 -6.80325e-05 2.70744e-09 5.38809e-07 
0 0 0 0.0017444 -0.0358107 0.0580914 0 854 10631 0.0012255 4.75372e-05 -0.000330557 1.26703e-08 2.52467e-06 
0 0 0 -0.00834913 -0.00368136 0.0512577 0 854 12260 0.00159198 -7.1275e-05 -3.49487e-05 1.40976e-08 2.80956e-06 
0 0 0 -0.00684989 0.0738115 0.0187093 0 854 7657 0.000175348 -8.75265e-05 5.08478e-06 2.50115e-09 4.97742e-07 
0 0 0 -0.00704455 0.0187437 0.0800308 0 854 6681 0.00104484 0.000149707 -0.00016324 1.05344e-08 2.09851e-06 
0 0 0 0.0029421 0.0187275 0.00500373 0 854 11559 0.000264688 7.77181e-06 3.53048e-05 4.87572e-09 9.70583e-07 
0 0 0 0.0062671 0.0116142 0.0621243 0 854 4752 2.19578e-05 0.00020179 -0.000165895 2.01284e-09 4.00543e-07 
0 0 0 -0.0284452 -0.0375515 0.0270382 0 854 169 0.000266976 9.97952e-05 5.46623e-05 1.23206e-09 2.45148e-07 
0 0 0 0.00553829 0.00266269 0.0110619 0 854 5499 3.8123e-06 0.00012536 -4.67884e-05 1.49619e-09 2.97713e-07 
0 0 0 -0.00185567 0.00730107 -0.0103178 0 854 2163 0.000149597 5.09589e-05 8.95909e-07 2.82183e-09 5.61582e-07 
0 0 0 0.00133193 0.0022104 0.0285536 0 854 4773 0.000690803 3.99433e-05 -8.54304e-05 8.67721e-09 1.72814e-06 
0 0 0 -0.0044416 -0.000541772 0.0278326 0 854 12013 0.000237991 -0.000163409 -0.000139393 3.62574e-09 7.21643e-07 
0 0 0 0.000850738 0.00345335 0.0245875 0 854 3206 0.000264721 1.12492e-05 4.81627e-05 4.61209e-09 9.18072e-07 
0 0 0 -0.00461731 0.0223238 0.0298628 0 854 10234 0.000717617 -3.16153e-05 -0.000201652 8.25988e-09 1.64494e-06 
0 0 0 -0.00503015 0.0124852 0.0626152 0 854 6086 0.00133718 1.94178e-05 -0.000258144 1.27631e-08 2.54319e-06 
0 0 0 0.00311168 0.0131709 0.0417814 0 854 9118 0.000105114 -2.99546e-05 -4.31854e-05 2.89211e-09 5.75574e-07 
0 0 0 0.00612093 -0.0487112 0.0140593 0 854 11182 -2.81978e-05 1.42383e-05 -6.80955e-06 6.08625e-10 1.21091e-07 
0 0 0 -0.00222191 0.0432979 -0.0317773 0 854 2226 0.00211757 -0.000569947 -0.000161013 1.77893e-08 3.54693e-06 
0 0 0 0.00774911 -0.000364566 0.0369934 0 854 7203 5.72378e-05 2.76577e-05 7.35469e-06 2.86647e-09 5.70469e-07 
0 0 0 0.00339424 -0.0148571 0.0346209 0 854 8658 2.78094e-05 -4.37868e-05 -0.000443477 1.62056e-09 3.22466e-07 
0 0 0 -0.00487448 -0.000279722 0.0471727 0 854 5203 0.00021371 1.1157e-05 -0.000106271 3.26874e-09 6.50559e-07 
0 0 0 0.000941949 0.0031494 0.0284301 0 854 509 0.00045126 -4.64481e-06 -0.000132307 6.5354e-09 1.30123e-06 
0 0 0 -1.97295e-05 0.00867624 0.0301802 0 854 1115 0.000500416 1.53202e-06 -0.000157203 6.88259e-09 1.37042e-06 
0 0 0 0.00993103 -0.0076661 0.0363922 0 854 6811 0.000409429 -1.64983e-06 -6.46118e-05 7.18723e-09 1.43113e-06 
0 0 0 -2.78105e-131 -4.72419e-20 2.36059e-12 0 850 5230 2.68896e-134 5.25978e-06 1.62002 1.22522e-06 0.0003 
0 0 0 -3.19387e-302 -6.60962e-20 -4.72345e-12 0 850 3064 -4.37836e-307 5.25978e-06 1.62002 1.22522e-06 0.0003 
0 0 0 4.73763e-190 -8.48409e-20 -3.53502e-12 0 850 478 5.68768e-191 5.25978e-06 1.62002 1.22522e-06 0.0003 
0 0 0 -3.4373e-302 -1.38031e-22 2.36056e-12 0 850 871 3.20583e-307 5.25978e-06 1.62002 1.22522e-06 0.0003 
0 0 0 3.17748e-302 -5.63973e-20 -1.18141e-12 0 850 1962 2.10301e-307 5.25978e-06 1.62002 1.22522e-06 0.0003 
0 0 0 -6.08681e-189 3.75886e-20 -4.72347e-12 0 850 283 1.26331e-189 5.25978e-06 1.62002 1.22522e-06 0.0003 
0 0 0 3.63141e-17 -2.39312e-17 4.72318e-12 0 850 6540 0.000401239 0.00366168 1.61927 1.22493e-06 0.000299908 
0 0 0 -3.65099e-17 4.51452e-17 4.72376e-12 0 850 2565 -0.000599027 -0.00545357 1.62077 1.22551e-06 0.000300092 
0 0 0 -9.38058e-174 3.71096e-20 2.18353e-15 0 850 2145 -2.92393e-174 5.25978e-06 1.62002 1.22522e-06 0.0003 
0 0 0 -4.54705e-200 -2.82286e-20 2.36056e-12 0 850 5520 -1.0121e-201 5.25978e-06 1.62002 1.22522e-06 0.0003 
0 0 0 4.2972e-236 -3.77839e-20 -5.8979e-12 0 850 7394 -2.52456e-237 5.25978e-06 1.62002 1.22522e-06 0.0003 
0 0 0 1.8339e-56 5.66373e-20 -2.36057e-12 0 850 2321 6.07844e-58 5.25978e-06 1.62002 1.22522e-06 0.0003 
0 0 0 3.90557e-302 -6.60185e-20 -1.18142e-12 0 850 7581 -2.55724e-307 5.25978e-06 1.62002 1.22522e-06 0.0003 
0 0 0 1.91611e-17 1.15124e-18 1.18143e-12 0 850 10198 0.00877221 0.000575097 1.61975 1.22512e-06 0.000299967 
0 0 0 -2.5174e-302 -9.36704e-21 -3.53504e-12 0 850 3089 -5.98182e-308 5.25978e-06 1.62002 1.22522e-06 0.0003 
0 0 0 -0.000247011 0.000500521 0.000456136 0 850 1269 -5.43352e-07 -3.92035e-06 1.61997 1.22521e-06 0.000299996 
0 0 0 2.60708e-19 -4.38413e-20 1.18138e-12 0 850 5323 -0.00941399 -0.000606268 1.62029 1.22532e-06 0.000300033 
0 0 0 1.3657e-302 9.31971e-21 -1.1815e-12 0 850 392 -3.63545e-307 5.25978e-06 1.62002 1.22522e-06 0.0003 
0 0 0 -7.56842e-303 1.89306e-20 -3.53497e-12 0 850 13677 2.04035e-307 5.25978e-06 1.62002 1.22522e-06 0.0003 
0 0 0 -4.99342e-27 -6.6012e-20 5.8979e-12 0 850 7839 3.01799e-28 5.25978e-06 1.62002 1.22522e-06 0.0003 
0 0 0 -2.70269e-16 -1.90793e-17 -1.15955e-14 0 850 9691 0.0232228 0.00358774 1.62087 1.22555e-06 0.000300104 
0 0 0 3.10842e-302 -2.83188e-20 5.89796e-12 0 850 1583 5.78173e-307 5.25978e-06 1.62002 1.22522e-06 0.0003 
0 0 0 -1.55609e-16 -7.73955e-16 -1.16151e-14 0 850 10506 0.110501 0.289323 1.65706 1.23947e-06 0.000304555 
0 0 0 -6.97358e-16 -5.81086e-16 -1.16661e-14 0 850 14345 -0.101437 -0.225414 1.58242 1.21051e-06 0.00029534 
0 0 0 -1.55721e-302 -9.52567e-21 -2.36059e-12 0 850 8195 -8.23491e-307 5.25978e-06 1.62002 1.22522e-06 0.0003 
0 0 0 1.03173e-306 8.48667e-20 -3.53503e-12 0 850 5274 1.23277e-307 5.25978e-06 1.62002 1.22522e-06 0.0003 
0 0 0 -5.65483e-233 -7.55693e-20 -5.8979e-12 0 850 10333 4.45551e-234 5.25978e-06 1.62002 1.22522e-06 0.0003 
0 0 0 4.20623e-17 7.68081e-17 -1.18095e-12 0 850 2130 0.0546022 0.0029998 1.61567 1.22353e-06 0.000299462 
0 0 0 -2.72202e-16 -7.66489e-17 -1.18089e-12 0 850 4708 -0.0645534 -0.00353503 1.62438 1.22691e-06 0.000300538 
0 0 0 -7.22931e-14 -1.02484e-19 -3.10206e-302 0 822 444 1.62002 5.25978e-06 -3.44257e-308 1.22522e-06 0.0003 
0 0 0 2.56022e-14 -2.7295e-21 6.19704e-19 0 821 927 1.62002 9.38878e-05 -4.53972e-05 1.22522e-06 0.0003 
0 0 0 7.68588e-14 -2.86339e-17 5.15163e-18 0 821 2723 1.6201 0.0113076 9.36354e-05 1.22525e-06 0.00030001 
0 0 0 7.69316e-14 5.76169e-17 -5.09441e-18 0 820 4560 1.61994 -0.0111816 -4.77819e-05 1.22519e-06 0.00029999 
0 0 0 4.73763e-190 -8.48409e-20 -3.53502e-12 0 885 478 5.68768e-191 5.25978e-06 -1.62002 1.22522e-06 0.0003 
0 0 0 -6.08681e-189 3.75886e-20 -4.72347e-12 0 885 283 1.26331e-189 5.25978e-06 -1.62002 1.22522e-06 0.0003 