ITEM: TIMESTEP
9500000
ITEM: NUMBER OF ENTRIES
2913
ITEM: BOX BOUNDS ff ff ff
-0.01 0.45
-0.15 0.15
-0.08 0.1
ITEM: ENTRIES c_pwc[1] c_pwc[2] c_pwc[3] c_pwc[4] c_pwc[5] c_pwc[6] c_pwc[7] c_pwc[8] c_pwc[9] c_pwc[10] c_pwc[11] c_pwc[12] c_pwc[13] c_pwc[14] 
0 0 0 0.101623 -0.364555 0.275299 0 786 17424 2.73237e-06 5.10251e-06 4.09077e-06 3.74448e-10 7.44976e-08 
0 0 0 -0.356888 -0.0523999 0.13526 0 780 7967 -9.55929e-17 9.53905e-06 2.53098e-06 5.00925e-10 9.96621e-08 
0 0 0 0.00245892 -0.000160046 0.000945938 0 778 3129 -1.40439e-07 9.80778e-06 8.96867e-07 5.04414e-10 1.00356e-07 
0 0 0 -0.0736008 0.00562857 -0.0274834 0 778 14527 -5.21812e-06 1.03424e-05 1.58852e-06 6.27165e-10 1.2478e-07 
0 0 0 0.00234404 0.00395953 -0.0213349 0 778 14170 9.70955e-06 2.31771e-05 1.23888e-05 9.3078e-10 1.85194e-07 
0 0 0 -0.00153198 -0.000959413 0.00112071 0 778 12757 8.94104e-06 1.64018e-05 -6.74165e-06 5.11376e-10 1.01742e-07 
0 0 0 -0.000756164 -1.2692e-05 2.44744e-05 0 778 7654 4.11959e-09 8.91192e-06 1.08985e-06 4.69824e-10 9.34739e-08 
0 0 0 -0.00224388 3.65264e-05 7.01074e-05 0 778 8040 -2.55227e-08 1.15353e-05 1.65385e-06 5.71926e-10 1.13789e-07 
0 0 0 0.00273167 -0.000371372 0.00225242 0 778 14580 1.31572e-08 9.53184e-06 1.13288e-06 5.03748e-10 1.00224e-07 
0 0 0 -0.0132339 -0.0105228 0.0560737 0 778 15381 1.49067e-10 1.03466e-05 1.36964e-06 5.12881e-10 1.02041e-07 
0 0 0 -0.00696889 -0.000447179 0.00239158 0 778 17336 2.05724e-13 1.02589e-05 1.35577e-06 5.18589e-10 1.03177e-07 
0 0 0 0.0172764 -0.000731469 0.00385344 0 778 15828 2.47263e-08 9.96069e-06 1.21132e-06 5.05473e-10 1.00567e-07 
0 0 0 0.00871823 -0.000513458 0.00293438 0 778 14360 6.7827e-08 1.01944e-05 4.1775e-07 5.18207e-10 1.03101e-07 
0 0 0 0.0107301 -0.0052762 0.0282809 0 778 5338 3.03347e-11 1.03794e-05 1.37999e-06 5.24938e-10 1.0444e-07 
0 0 0 0.00361787 0.00170256 -3.19301e-05 0 778 17589 -1.27356e-05 3.733e-05 2.33054e-05 1.58625e-09 3.15637e-07 
0 0 0 0.0191879 -0.00107282 0.00573723 0 778 16821 -2.15941e-13 1.02594e-05 1.35584e-06 5.18555e-10 1.0317e-07 
0 0 0 0.00869914 -0.00298454 0.0159659 0 778 15785 3.06843e-19 1.02659e-05 1.35713e-06 5.18851e-10 1.03229e-07 
0 0 0 0.00257169 0.00523451 -0.0280021 0 778 255 -1.38782e-19 1.02659e-05 1.35713e-06 5.18851e-10 1.03229e-07 
0 0 0 0.0423757 0.00541202 -0.0289517 0 778 13645 4.9559e-18 1.02659e-05 1.35713e-06 5.18851e-10 1.03229e-07 
0 0 0 -0.053533 -0.00791408 0.0423366 0 778 16369 -2.06887e-15 1.02659e-05 1.35713e-06 5.1885e-10 1.03229e-07 
0 0 0 -0.00938811 -0.00165028 0.0088282 0 778 1637 5.39675e-15 1.02659e-05 1.35714e-06 5.18851e-10 1.03229e-07 
0 0 0 0.00350647 -2.80735e-05 0.00108415 0 776 7649 2.98035e-08 1.17591e-05 -7.44139e-07 5.59315e-10 1.1128e-07 
0 0 0 2.35917e-05 2.10654e-05 0.00117581 0 776 7937 -2.30007e-09 1.0227e-05 8.03864e-08 5.1963e-10 1.03384e-07 
0 0 0 -0.00141577 -1.91862e-06 0.00135868 0 776 5540 6.80498e-13 1.04916e-05 -6.03846e-13 5.23479e-10 1.0415e-07 
0 0 0 -0.00136124 2.41147e-06 0.00289175 0 776 1200 -9.03131e-13 1.05322e-05 1.70032e-12 5.25766e-10 1.04605e-07 
0 0 0 8.59128e-05 -3.13779e-06 0.000903492 0 776 1871 1.35629e-10 1.04458e-05 -6.08615e-11 5.21688e-10 1.03793e-07 
0 0 0 2.34721e-05 5.69049e-06 -0.000956173 0 776 1972 -4.33074e-13 1.04839e-05 -9.7514e-13 5.24869e-10 1.04426e-07 
0 0 0 6.04276e-05 7.21271e-05 -0.00132258 0 776 733 -1.5592e-08 9.57264e-06 -2.10458e-07 5.08696e-10 1.01208e-07 
0 0 0 0.00282763 -9.49687e-05 3.54419e-05 0 776 10595 3.45006e-08 9.68176e-06 -2.36486e-07 4.75739e-10 9.46509e-08 
0 0 0 0.000143373 9.50615e-06 0.000179962 0 776 894 4.46234e-09 1.08834e-05 -2.8583e-07 5.38901e-10 1.07218e-07 
0 0 0 0.00175275 1.90459e-05 0.000608505 0 776 9680 -8.81742e-11 1.0671e-05 2.12776e-10 5.33961e-10 1.06235e-07 
0 0 0 0.000287297 1.71852e-05 0.00115564 0 776 414 3.48541e-11 1.0213e-05 4.29546e-10 5.18318e-10 1.03123e-07 
0 0 0 0.00137935 4.45134e-06 -0.000184217 0 776 206 -8.06453e-12 1.04375e-05 -4.17658e-12 5.23057e-10 1.04066e-07 
0 0 0 -0.000588614 7.67311e-05 0.00012984 0 776 1894 2.08838e-06 1.50631e-05 -1.01769e-06 6.82372e-10 1.35765e-07 
0 0 0 0.00265229 1.03043e-06 0.00309868 0 776 9977 4.09974e-13 1.04746e-05 7.77806e-11 5.23552e-10 1.04164e-07 
0 0 0 0.000715724 -4.52274e-06 0.00353281 0 776 1225 -2.31755e-13 1.05829e-05 -5.37414e-11 5.25951e-10 1.04641e-07 
0 0 0 0.00030738 2.60991e-08 0.00305281 0 776 3512 2.2475e-15 1.05194e-05 2.23215e-14 5.24825e-10 1.04417e-07 
0 0 0 -0.00218693 9.97287e-05 0.00396397 0 776 690 -1.27034e-06 9.59045e-06 1.04837e-07 5.15368e-10 1.02536e-07 
0 0 0 0.0022614 -0.000168093 0.00198671 0 776 280 1.16755e-06 7.60647e-06 -3.68655e-06 3.84425e-10 7.64826e-08 
0 0 0 0.000164706 3.48034e-05 -0.00120596 0 776 2352 -8.68239e-07 1.3896e-05 3.56174e-06 6.39024e-10 1.2714e-07 
0 0 0 0.00121168 7.97416e-06 0.000633887 0 776 101 7.83078e-07 1.03413e-05 1.58083e-06 5.20611e-10 1.03579e-07 
0 0 0 0.0010359 -1.43385e-05 0.000214448 0 776 317 -7.77937e-07 1.0093e-05 -1.85835e-06 5.07417e-10 1.00954e-07 
0 0 0 0.00384835 1.69924e-06 0.00202214 0 776 1705 -5.46814e-07 1.12028e-05 6.66363e-07 5.47671e-10 1.08963e-07 
0 0 0 0.00660234 -5.23997e-05 0.00277259 0 776 5611 3.63182e-08 1.12292e-05 -1.03753e-06 5.36951e-10 1.0683e-07 
0 0 0 0.00100438 1.04199e-05 0.00272406 0 776 9269 4.06319e-09 1.07487e-05 -2.45547e-07 5.34665e-10 1.06375e-07 
0 0 0 -0.000494087 -3.86303e-11 0.00319255 0 776 6408 5.04477e-18 1.05196e-05 -3.24698e-17 5.24825e-10 1.04417e-07 
0 0 0 -0.000494638 -0.000230646 0.00748371 0 776 8455 5.54279e-06 2.78167e-06 -4.08583e-05 1.54278e-10 3.06933e-08 
0 0 0 -0.00286878 0.000598024 0.00653266 0 776 11208 6.18107e-06 6.30241e-06 -2.81937e-05 5.13213e-10 1.02107e-07 
0 0 0 0.00226605 -5.54244e-13 -0.000679109 0 776 553 2.99517e-19 1.05196e-05 -7.48732e-20 5.24825e-10 1.04417e-07 
0 0 0 0.00266209 -4.42153e-12 -0.000495984 0 776 585 2.0994e-19 1.05196e-05 -7.48735e-20 5.24825e-10 1.04417e-07 
0 0 0 0.00168354 -1.79152e-05 -0.000516687 0 776 2069 2.2061e-09 1.05502e-05 1.44846e-08 5.21968e-10 1.03849e-07 
0 0 0 -0.00037806 -5.75411e-06 -0.000375154 0 776 531 -2.85946e-07 1.07568e-05 8.14703e-07 5.31446e-10 1.05735e-07 
0 0 0 0.00323681 -0.000389222 0.000223648 0 776 6702 -6.74355e-06 1.7781e-05 -5.79355e-06 6.67557e-10 1.32817e-07 
0 0 0 0.00146398 9.28466e-05 -0.00153837 0 776 1002 -2.08269e-06 8.95261e-06 -2.58436e-06 4.91963e-10 9.78789e-08 
0 0 0 0.00196558 -1.03604e-05 -0.00100822 0 776 1470 -1.2631e-09 1.06195e-05 4.57718e-10 5.25904e-10 1.04632e-07 
0 0 0 -0.000190612 6.6968e-12 -0.00180498 0 776 154 -1.87181e-20 1.05196e-05 -3.61006e-20 5.24825e-10 1.04417e-07 
0 0 0 -4.59355e-05 -5.04659e-05 -0.00082333 0 776 1045 1.00428e-06 1.14196e-05 7.97966e-07 5.43575e-10 1.08148e-07 
0 0 0 0.00998976 6.08987e-12 -0.0127909 0 776 10613 -1.20941e-18 1.05196e-05 1.6666e-18 5.24825e-10 1.04417e-07 
0 0 0 0.0151529 5.21933e-05 0.00118209 0 776 2611 -7.63975e-10 1.05525e-05 -2.42186e-09 5.3721e-10 1.06882e-07 
0 0 0 0.0181443 1.59859e-06 0.00384525 0 776 12304 6.12315e-12 1.04675e-05 -1.82359e-12 5.23438e-10 1.04141e-07 
0 0 0 0.000216585 1.53511e-12 -0.00624457 0 776 4634 1.69058e-19 1.05196e-05 -5.059e-18 5.24825e-10 1.04417e-07 
0 0 0 -0.013135 1.05708e-12 -0.00422711 0 776 72 2.40669e-18 1.05196e-05 -5.98991e-19 5.24825e-10 1.04417e-07 
0 0 0 0.00349524 3.06692e-07 -0.00345476 0 776 4165 3.56463e-11 1.04763e-05 -1.10607e-11 5.23452e-10 1.04144e-07 
0 0 0 0.000474711 -9.50411e-06 -0.00157885 0 776 1920 7.25584e-11 1.05716e-05 6.99402e-11 5.24498e-10 1.04352e-07 
0 0 0 0.000399347 -3.93811e-12 -0.00203092 0 776 3087 -5.98025e-21 1.05196e-05 2.47159e-19 5.24825e-10 1.04417e-07 
0 0 0 -0.0030936 2.26781e-05 -0.00915252 0 776 4185 1.96939e-10 1.02941e-05 3.78101e-10 5.22226e-10 1.039e-07 
0 0 0 -0.000621634 2.84827e-05 -0.000575927 0 776 18 1.21359e-07 1.1353e-05 7.18166e-07 5.58275e-10 1.11073e-07 
0 0 0 0.00619854 4.76318e-12 -0.0138029 0 776 12917 3.09367e-19 1.05196e-05 -1.16684e-18 5.24825e-10 1.04417e-07 
0 0 0 -0.00135263 -2.8614e-05 -0.0091753 0 776 4938 -7.00085e-10 1.07494e-05 -1.59804e-09 5.26269e-10 1.04705e-07 
0 0 0 -0.00389748 -1.14087e-05 -0.00502211 0 776 6544 7.09904e-10 1.07046e-05 -2.63146e-09 5.28499e-10 1.05148e-07 
0 0 0 0.00735155 -0.00170653 -0.00168683 0 776 10360 -2.23308e-05 4.80332e-05 8.83912e-06 1.15834e-09 2.30478e-07 
0 0 0 -0.00201999 5.55395e-05 -0.00515105 0 776 9715 -5.13736e-07 1.24033e-05 1.63178e-06 5.97434e-10 1.18864e-07 
0 0 0 -0.001961 3.22497e-06 -0.00486882 0 776 4095 3.4496e-07 8.48486e-06 -7.67962e-08 4.55484e-10 9.06208e-08 
0 0 0 -0.000822841 -2.7565e-05 -0.00559337 0 776 1367 -7.11116e-10 1.05573e-05 -2.6316e-09 5.20118e-10 1.03481e-07 
0 0 0 -0.00179572 0.000196466 -0.00500755 0 776 1036 -6.58785e-08 1.00899e-05 2.92605e-09 5.53238e-10 1.10071e-07 
0 0 0 9.23351e-05 -3.32549e-05 -0.00260013 0 776 12691 -4.27079e-09 1.02508e-05 -9.17543e-09 5.08621e-10 1.01193e-07 
0 0 0 -0.00682814 -5.87173e-12 -0.0118594 0 776 9639 1.87994e-19 1.05196e-05 -1.19795e-18 5.24825e-10 1.04417e-07 
0 0 0 -0.000933579 -8.57338e-05 -0.00293026 0 776 7185 -9.49586e-07 8.71315e-06 5.72844e-07 4.43735e-10 8.82832e-08 
0 0 0 -0.00395046 -2.00684e-06 -0.00702161 0 776 4532 -5.98997e-10 1.0491e-05 2.77929e-10 5.23441e-10 1.04142e-07 
0 0 0 -0.00475643 6.60586e-09 -0.0144663 0 776 12116 -8.80546e-15 1.05195e-05 -2.67813e-14 5.24825e-10 1.04417e-07 
0 0 0 0.00023081 -7.80497e-06 -0.0103271 0 776 14724 8.01276e-11 1.07723e-05 4.6555e-10 5.31514e-10 1.05748e-07 
0 0 0 0.00484461 -2.66983e-07 -0.00294797 0 776 8603 -3.33865e-13 1.0519e-05 2.4308e-13 5.24748e-10 1.04402e-07 
0 0 0 0.000118975 -8.40124e-05 -0.0022522 0 776 3427 -3.62846e-06 1.53737e-05 6.77658e-06 6.58798e-10 1.31074e-07 
0 0 0 -0.00721637 8.39932e-08 -0.0048577 0 776 9279 -1.71952e-13 1.05178e-05 -1.15767e-13 5.24786e-10 1.0441e-07 
0 0 0 -0.00968808 -9.74236e-05 -0.00572799 0 776 3983 -2.06668e-08 1.05726e-05 7.91123e-08 5.05522e-10 1.00577e-07 
0 0 0 0.000939719 0.000151632 -0.0028326 0 776 1118 4.20695e-08 7.23537e-06 4.24385e-07 4.43861e-10 8.83082e-08 
0 0 0 -0.00782234 -2.18359e-09 0.0048754 0 776 10496 8.4216e-15 1.05194e-05 5.44625e-16 5.24819e-10 1.04416e-07 
0 0 0 -0.00040752 -3.05092e-07 0.000522824 0 776 9160 -1.83942e-14 1.0522e-05 4.80856e-14 5.24839e-10 1.0442e-07 
0 0 0 -0.00549416 8.59874e-08 -0.00255846 0 776 7431 -1.32098e-13 1.05192e-05 -6.15114e-14 5.24832e-10 1.04419e-07 
0 0 0 -0.000737505 7.84443e-11 -0.00296733 0 776 1366 -1.52204e-17 1.05196e-05 -6.12122e-17 5.24825e-10 1.04417e-07 
0 0 0 -0.00157703 -1.14891e-08 -0.00105971 0 776 10907 -3.10637e-15 1.05183e-05 7.00401e-15 5.24782e-10 1.04409e-07 
0 0 0 -0.00057989 -2.56271e-08 -0.00201495 0 776 7286 4.21119e-15 1.05201e-05 1.46547e-14 5.24836e-10 1.0442e-07 
0 0 0 -0.000197937 -4.13851e-05 8.67091e-05 0 776 1887 -4.93474e-09 1.04282e-05 8.3914e-09 5.12811e-10 1.02027e-07 
0 0 0 -0.000531634 2.95603e-06 4.58643e-05 0 776 4164 4.56886e-08 1.05775e-05 -7.98204e-08 5.27389e-10 1.04928e-07 
0 0 0 -0.000121798 7.20633e-07 0.000833904 0 776 7764 3.47956e-08 1.05346e-05 -5.55149e-08 5.25481e-10 1.04548e-07 
0 0 0 0.00169345 -9.50312e-09 0.000643367 0 776 215 -4.51919e-15 1.05196e-05 -1.71691e-15 5.24825e-10 1.04418e-07 
0 0 0 0.0787814 0.00177515 -0.00949622 0 779 13193 6.43295e-18 1.02659e-05 1.35713e-06 5.18851e-10 1.03229e-07 
0 0 0 0.00908866 -5.57504e-05 0.00210159 0 777 4413 1.12918e-09 1.15917e-05 -1.24099e-06 5.4803e-10 1.09035e-07 
0 0 0 0.00307827 -0.000452981 0.00842014 0 777 3837 4.30116e-07 3.58173e-05 -1.79035e-05 1.10781e-09 2.20422e-07 
0 0 0 0.00855123 -2.25609e-05 0.00411648 0 777 4306 -5.68362e-11 1.03914e-05 -3.55195e-11 5.15661e-10 1.02594e-07 
0 0 0 0.0161905 -5.38832e-12 -0.0197433 0 777 4848 2.39594e-18 1.05196e-05 -2.39598e-18 5.24825e-10 1.04417e-07 
0 0 0 -0.00793747 -1.35694e-08 -0.00395731 0 777 2015 2.93595e-14 1.05192e-05 1.46428e-14 5.24811e-10 1.04415e-07 
0 0 0 -0.01034 -6.83854e-12 -0.0104346 0 777 15272 -1.20859e-18 1.05196e-05 -1.28164e-19 5.24825e-10 1.04417e-07 
0 0 0 -0.0100325 -1.12189e-12 0.00346801 0 777 14749 -1.94549e-19 1.05196e-05 6.20837e-20 5.24825e-10 1.04417e-07 
0 0 0 -0.00737805 -1.72382e-06 0.00294457 0 777 5892 -5.18899e-12 1.05092e-05 3.7749e-11 5.24107e-10 1.04275e-07 
0 0 0 -0.0072391 -7.90515e-06 0.00498973 0 777 16330 2.22292e-11 1.04605e-05 -1.4344e-11 5.21147e-10 1.03686e-07 
0 0 0 -3.81608e-06 -0.000281506 -0.00153248 0 775 210 -8.88076e-08 9.57222e-06 -1.25198e-06 4.96196e-10 9.87211e-08 
0 0 0 -0.000183871 -0.000140402 -0.000813117 0 775 2116 -2.92249e-08 1.02439e-05 -1.64492e-06 5.22368e-10 1.03929e-07 
0 0 0 -0.000188781 -0.000401462 -0.00115012 0 775 12 4.24204e-06 1.36618e-05 3.12068e-06 5.6154e-10 1.11723e-07 
0 0 0 0.000230429 -8.36372e-05 -0.000382717 0 775 4248 -4.4518e-07 1.09027e-05 -9.37667e-07 5.34495e-10 1.06342e-07 
0 0 0 0.0025695 -0.000490311 -0.00268149 0 775 3998 -3.49065e-09 9.98153e-06 -1.43254e-06 5.12272e-10 1.0192e-07 
0 0 0 0.00218371 -0.00111377 -0.00597686 0 775 9210 1.32086e-11 1.02688e-05 -1.35792e-06 5.197e-10 1.03398e-07 
0 0 0 -0.00304268 -0.000676391 -0.00377804 0 775 1890 -9.65902e-08 1.07289e-05 -1.58798e-06 5.4168e-10 1.07771e-07 
0 0 0 -0.00269445 -5.1469e-05 -0.000280389 0 775 5900 -6.36581e-12 1.02621e-05 -1.35645e-06 5.18925e-10 1.03243e-07 
0 0 0 -0.00215373 -0.000882819 -0.00408356 0 775 6574 -1.98156e-08 1.04546e-05 -1.41244e-06 4.99968e-10 9.94716e-08 
0 0 0 -0.00209236 -0.00121546 -0.00409914 0 775 7843 6.27201e-06 1.53601e-05 -3.36573e-06 5.96603e-10 1.18699e-07 
0 0 0 0.00199507 -0.00114034 -0.00610012 0 775 1749 -1.82636e-14 1.02678e-05 -1.3575e-06 5.18909e-10 1.0324e-07 
0 0 0 -0.00263316 -0.000908702 -0.00467379 0 775 11044 9.62687e-07 5.05021e-06 4.45408e-06 2.73419e-10 5.43968e-08 
0 0 0 9.51289e-05 -0.000180235 -0.000921722 0 839 2641 1.80107e-06 9.63906e-09 1.61632e-06 1.89425e-10 3.76857e-08 
0 0 0 0.00014527 -0.000174908 -0.000748401 0 839 5113 6.14793e-06 4.87178e-07 2.84214e-06 4.0124e-10 7.98282e-08 
0 0 0 6.04276e-05 7.21271e-05 -0.00132258 0 832 733 7.19603e-08 -2.62957e-09 3.58839e-08 4.76566e-11 9.48103e-09 
0 0 0 9.51289e-05 -0.000180235 -0.000921722 0 774 2641 6.27424e-07 1.14629e-05 -1.28029e-06 5.55378e-10 1.10497e-07 
0 0 0 0.00014527 -0.000174908 -0.000748401 0 774 5113 1.79602e-06 1.32185e-05 -6.60395e-07 6.0075e-10 1.19524e-07 
0 0 0 0.000568973 -0.000150781 -0.000763421 0 774 10425 -7.72333e-08 9.93417e-06 -1.05055e-06 5.04247e-10 1.00323e-07 
0 0 0 0.000328497 -0.000409357 -0.000754385 0 774 3865 -5.71354e-06 9.3996e-06 1.31981e-05 3.31642e-10 6.59807e-08 
0 0 0 0.000612726 -0.000127727 -0.000711631 0 774 4325 -1.01806e-06 4.75518e-06 -9.99563e-08 3.07699e-10 6.12172e-08 
0 0 0 0.00067589 -0.000213925 -0.00110263 0 774 3869 -6.46131e-07 1.45171e-05 2.85012e-06 6.25698e-10 1.24488e-07 
0 0 0 0.000461028 -0.000209934 -0.00133069 0 774 1165 -1.96154e-06 1.29276e-05 4.63363e-07 6.00623e-10 1.19499e-07 
0 0 0 4.92783e-05 -6.63217e-05 -0.000336041 0 774 9441 1.77341e-06 1.03883e-05 -9.73669e-07 5.1977e-10 1.03412e-07 
0 0 0 0.000473744 -0.000257676 -0.00146024 0 774 8682 -7.42371e-07 9.80651e-06 -7.12467e-07 5.02898e-10 1.00055e-07 
0 0 0 0.000171835 -0.000220839 -0.00117317 0 774 6076 1.98548e-10 1.02607e-05 -1.35591e-06 5.18347e-10 1.03128e-07 
0 0 0 -9.56399e-05 4.52959e-05 -0.000533384 0 774 4050 -2.44361e-07 9.14576e-06 5.28796e-07 5.00941e-10 9.96653e-08 
0 0 0 0.000158862 -6.12702e-05 -0.000317601 0 774 13823 -7.18999e-07 9.55853e-06 -5.52952e-07 4.89842e-10 9.74569e-08 
0 0 0 -4.74183e-05 -0.000155279 -0.000873091 0 774 3081 -9.24987e-07 1.15755e-05 -9.18433e-07 5.60127e-10 1.11442e-07 
0 0 0 0.000526556 -0.000230506 -0.000966164 0 774 5875 -1.81365e-08 9.83187e-06 -1.23277e-06 4.9298e-10 9.80813e-08 
0 0 0 0.00161207 -0.000379958 -0.00426017 0 774 1541 6.67049e-06 2.09868e-05 3.63037e-06 8.8398e-10 1.75882e-07 
0 0 0 0.000350748 -0.000541441 -0.00290168 0 774 3877 -2.5567e-08 1.05414e-05 -1.12498e-06 5.26662e-10 1.04783e-07 
0 0 0 0.00553842 -0.000974244 -0.00521145 0 774 9650 -7.98654e-14 1.02648e-05 -1.35693e-06 5.18804e-10 1.03219e-07 
0 0 0 0.00355017 -0.00105308 -0.00563398 0 774 13214 2.05245e-13 1.02653e-05 -1.35701e-06 5.18849e-10 1.03228e-07 
0 0 0 0.0151204 -0.00363586 -0.0194501 0 774 3491 -5.60313e-15 1.02659e-05 -1.35714e-06 5.18851e-10 1.03229e-07 
0 0 0 -0.0126435 -0.00506425 -0.0270534 0 774 11656 4.47872e-09 1.0341e-05 -1.38296e-06 5.19963e-10 1.0345e-07 
0 0 0 0.00855975 -0.00224602 -0.0123897 0 774 6493 1.43498e-09 1.07696e-05 -1.44459e-06 5.50629e-10 1.09552e-07 
0 0 0 3.82186e-05 -9.40511e-05 -0.000423663 0 839 2953 -6.82349e-08 -6.75007e-09 -3.3443e-08 5.40502e-12 1.07529e-09 
0 0 0 -27.5953 40.03 9.42187 0 950 18316 0.00410778 0.0429265 -0.113741 3.37981e-07 7.03307e-05 
0 0 0 -0.000362918 -0.000119485 -0.000710887 0 774 7315 1.97274e-08 9.82558e-06 -1.26314e-06 5.06566e-10 1.00784e-07 
0 0 0 3.82186e-05 -9.40511e-05 -0.000423663 0 774 2953 2.95266e-08 1.04038e-05 -1.39581e-06 5.2045e-10 1.03547e-07 
0 0 0 0.00552361 0.000765124 0.00409305 0 774 9854 -1.80229e-18 1.02659e-05 -1.35713e-06 5.18851e-10 1.03229e-07 
0 0 0 -0.000646478 3.14881e-05 -0.000333409 0 774 15754 2.64093e-07 1.0284e-05 -1.47065e-06 5.40144e-10 1.07466e-07 
0 0 0 0.0096634 -0.000114714 -0.000814842 0 774 8237 -2.77792e-08 1.01386e-05 -1.0579e-06 5.20858e-10 1.03628e-07 
0 0 0 0.00079246 -0.000241441 -0.000428555 0 774 2858 -6.49241e-07 1.34777e-05 -6.6716e-07 5.82844e-10 1.15962e-07 
0 0 0 -0.000141702 -4.29076e-05 9.42927e-05 0 774 5016 -3.08509e-07 6.43098e-06 -4.84195e-07 3.63253e-10 7.22701e-08 
0 0 0 0.0080155 -0.000220188 -0.00093128 0 774 3999 -2.34212e-07 1.11066e-05 -4.01037e-06 5.52276e-10 1.09879e-07 
0 0 0 0.00025235 3.07966e-06 1.51981e-05 0 774 13272 -4.2918e-07 1.07307e-05 -9.61404e-07 5.31675e-10 1.0578e-07 
0 0 0 0.0133516 -0.000686372 -0.00428886 0 774 5294 5.44016e-08 1.00841e-05 -1.11897e-06 5.36082e-10 1.06657e-07 
0 0 0 -0.0312228 -0.00722381 -0.0386439 0 774 4009 5.81807e-19 1.02659e-05 -1.35713e-06 5.18851e-10 1.03229e-07 
0 0 0 2.47739e-05 4.61881e-05 9.82258e-06 0 774 11158 -9.30106e-07 9.89325e-06 -2.38874e-06 5.22412e-10 1.03937e-07 
0 0 0 0.0185394 -0.00264665 -0.0139049 0 774 13605 -6.29311e-07 1.12338e-05 -2.36983e-06 5.46305e-10 1.08691e-07 
0 0 0 -0.000216328 -0.000561643 -0.00310746 0 774 8267 -3.71748e-08 9.95669e-06 -1.2995e-06 5.12403e-10 1.01946e-07 
0 0 0 -0.00333979 -0.00418005 -0.0222582 0 774 7002 2.33626e-11 1.01125e-05 -1.32586e-06 5.09479e-10 1.01364e-07 
0 0 0 0.00778698 -0.00465348 -0.0248939 0 774 3484 1.73444e-19 1.02659e-05 -1.35713e-06 5.18851e-10 1.03229e-07 
0 0 0 0.0472303 0.00149645 0.00800531 0 774 17159 5.18014e-18 1.02659e-05 -1.35713e-06 5.18851e-10 1.03229e-07 
0 0 0 0.00888158 -0.00163432 -0.00874281 0 774 14998 -3.0266e-13 1.02659e-05 -1.35714e-06 5.1885e-10 1.03229e-07 
0 0 0 0.0254798 -0.00839992 -0.0449356 0 774 2150 -2.14675e-18 1.02659e-05 -1.35713e-06 5.18851e-10 1.03229e-07 
0 0 0 0.00271185 -0.00269204 -0.0144262 0 774 16108 3.49007e-12 1.02584e-05 -1.35596e-06 5.196e-10 1.03378e-07 
0 0 0 -0.109581 -0.00362103 -0.0193708 0 774 6026 -7.32957e-19 1.02659e-05 -1.35713e-06 5.18851e-10 1.03229e-07 
0 0 0 0.00164088 -0.00515298 -0.027566 0 774 6053 4.30861e-17 1.02659e-05 -1.35713e-06 5.1885e-10 1.03229e-07 
0 0 0 0.0265137 -0.00217673 -0.0129063 0 774 10569 -5.23549e-10 1.6697e-05 -3.00421e-06 7.68049e-10 1.52813e-07 
0 0 0 0.00212979 -0.0778577 -0.200974 0 772 13147 6.41056e-18 9.53905e-06 -2.53098e-06 5.00925e-10 9.96621e-08 
0 0 0 -8.56314e-06 -0.0320662 -0.0827723 0 772 235 -4.17521e-19 9.53905e-06 -2.53098e-06 5.00925e-10 9.96621e-08 
0 0 0 0.0351542 -0.0175414 0.00884695 0 884 13793 -9.76614e-07 5.66723e-06 0.000140434 4.18693e-09 8.33398e-07 
0 0 0 0.0029385 -0.0189914 0.00182219 0 884 5564 -3.58712e-05 0.000239122 0.000619646 8.13755e-09 1.62055e-06 
0 0 0 0.0066711 -0.0101451 -0.00188524 0 884 12057 -1.5097e-05 0.000101347 0.000107693 2.19726e-09 4.37251e-07 
0 0 0 0.00363977 -0.00485937 0.0182466 0 884 12317 1.18232e-05 0.000113647 0.000251549 6.65613e-09 1.32529e-06 
0 0 0 0.00740949 -0.00025801 0.00915853 0 884 10557 -5.37169e-06 3.6214e-05 7.32205e-05 3.32421e-09 6.61605e-07 
0 0 0 -0.00237979 0.0172549 0.00109231 0 884 2873 5.16129e-06 -4.57588e-05 0.000218464 4.106e-09 8.1728e-07 
0 0 0 2.09033e-17 -9.43152e-17 -5.89795e-12 0 884 5230 1.77934e-18 5.25978e-06 -1.62002 1.22522e-06 0.0003 
0 0 0 -0.524429 -0.42774 0.243725 0 884 1691 -0.00112639 -0.000630809 -0.0011278 2.22921e-08 4.44724e-06 
0 0 0 -0.00250466 -0.0261112 -0.0337687 0 884 10185 -4.50826e-05 0.000367628 0.00127389 9.56402e-09 1.90497e-06 
0 0 0 -0.0053198 0.000537555 -0.0287093 0 884 14776 -4.04745e-05 0.000262434 0.000477294 3.45729e-09 6.88102e-07 
0 0 0 -0.000977329 0.0143719 0.00265802 0 884 9048 -0.000112734 0.000110859 0.000681317 8.74223e-09 1.74111e-06 
0 0 0 0.0126271 0.0215485 0.00104751 0 884 2268 -2.79049e-05 -0.00016957 0.000470612 6.72903e-09 1.33982e-06 
0 0 0 -0.0010946 0.0243691 -0.00334995 0 884 5499 -1.53905e-05 -0.000115771 0.000770442 8.82347e-09 1.7573e-06 
0 0 0 -0.00250997 -0.20665 0.00742836 0 884 13307 -0.000184753 9.29545e-05 0.000413638 6.93425e-09 1.38072e-06 
0 0 0 0.0147017 0.016719 0.000238231 0 884 12014 -2.22789e-05 -9.06975e-05 4.38216e-05 1.39925e-09 2.78421e-07 
0 0 0 -3.87434e-302 8.48114e-20 5.89791e-12 0 884 3064 -3.32216e-307 5.25978e-06 -1.62002 1.22522e-06 0.0003 
0 0 0 0.0383339 0.0133866 0.00963041 0 884 16089 -1.19023e-05 -1.91543e-05 1.71591e-05 2.50607e-09 4.98723e-07 
0 0 0 0.0168864 0.0162705 0.0070174 0 884 5782 2.76405e-06 -1.65232e-05 3.35056e-05 2.35408e-09 4.68467e-07 
0 0 0 0.00462163 0.0189411 -0.00129717 0 884 10179 -1.00362e-05 -1.54249e-05 7.72935e-05 1.78203e-09 3.54603e-07 
0 0 0 -2.57434e-302 9.24641e-21 5.89793e-12 0 884 871 2.31559e-307 5.25978e-06 -1.62002 1.22522e-06 0.0003 
0 0 0 -5.21402e-39 -9.31363e-21 -4.72342e-12 0 884 1962 4.02753e-38 5.25978e-06 -1.62002 1.22522e-06 0.0003 
0 0 0 -0.0130752 -0.0370544 0.0212164 0 884 6287 -9.69285e-05 4.78976e-05 0.000234817 6.85678e-09 1.36528e-06 
0 0 0 0.0415153 -0.0266104 0.0011966 0 884 11481 -9.08598e-06 2.62872e-05 0.000499499 7.01229e-09 1.39627e-06 
0 0 0 0.00431305 -0.0261292 0.00397593 0 884 9005 -2.77573e-06 0.000172392 7.99993e-06 1.28642e-09 2.55965e-07 
0 0 0 0.00373289 -0.0217046 0.00108288 0 884 9552 -0.000144506 0.000319676 0.000106473 2.61435e-09 5.20278e-07 
0 0 0 0.000589455 -0.00868623 1.73078e-05 0 884 7829 0.000185884 -0.000290104 0.000406756 5.99915e-09 1.19438e-06 
0 0 0 -0.000527951 -0.0011078 -0.00200089 0 884 3721 1.73377e-05 -8.2293e-05 0.000190953 3.35668e-09 6.6807e-07 
0 0 0 -0.24139 0.0397002 0.0325426 0 884 14532 0.00395458 0.00113826 0.00823028 4.66112e-08 9.32738e-06 
0 0 0 0.0271789 0.0299659 0.0769282 0 884 15690 -0.000409987 -0.000203546 0.00387336 3.30322e-08 6.59876e-06 
0 0 0 -0.0310623 0.100747 -0.0305881 0 884 12592 -0.000598237 0.000278138 0.000580865 4.27328e-09 8.50594e-07 
0 0 0 0.030927 0.0191898 0.00335693 0 884 8097 -0.000126603 9.72785e-05 7.66589e-05 2.49241e-09 4.96004e-07 
0 0 0 -1.12695e-19 1.2114e-19 -5.89794e-12 0 884 2565 7.47319e-22 5.25978e-06 -1.62002 1.22522e-06 0.0003 
0 0 0 -2.553e-251 -8.47789e-20 -4.72348e-12 0 884 2145 2.27718e-252 5.25978e-06 -1.62002 1.22522e-06 0.0003 
0 0 0 -0.0934751 0.075986 0.0597453 0 884 4162 -0.00045718 -0.000578844 0.000428501 1.29724e-08 2.58496e-06 
0 0 0 -0.0245712 0.0065943 -0.000746306 0 884 10308 0.000129889 1.8945e-06 3.33742e-05 9.9995e-10 1.98958e-07 
0 0 0 0.00114064 0.0029127 -0.000344059 0 884 7394 0.210832 0.0132865 -1.66349 1.24192e-06 0.000305345 
0 0 0 -0.0222782 -0.0224739 -0.0238266 0 884 16569 0.000184001 -0.000137708 0.000276382 1.78277e-09 3.5475e-07 
0 0 0 -0.0214689 -0.00784843 -0.00102669 0 884 5627 -7.3673e-05 7.36309e-06 0.000183105 3.38568e-09 6.73844e-07 
0 0 0 0.00632694 -0.00418234 -0.0031748 0 884 3654 -0.0968653 0.0840974 -1.56493 1.20364e-06 0.000293178 
0 0 0 -0.0327811 -0.00405826 -0.0136907 0 884 3089 -0.0255531 -0.126167 -1.60362 1.21909e-06 0.000298052 
0 0 0 3.68406e-303 9.49744e-21 3.53498e-12 0 884 1269 2.23258e-307 5.25978e-06 -1.62002 1.22522e-06 0.0003 
0 0 0 0.114342 -1.10524 0.0188781 0 884 6710 7.76557e-05 0.000140988 0.000321919 7.42234e-09 1.47799e-06 
0 0 0 0.00911739 0.422193 0.0761957 0 884 9111 0.00347299 -0.00415799 0.0157026 7.27599e-08 1.46085e-05 
0 0 0 0.0103007 -0.000909187 0.00152966 0 884 10778 -0.000311551 2.72113e-05 0.000382055 5.93365e-09 1.18133e-06 
0 0 0 -0.0195099 0.0084835 0.00252514 0 884 1651 -5.83036e-06 -0.000129828 0.000206511 4.15002e-09 8.26047e-07 
0 0 0 -0.00658775 0.00045289 -0.00126001 0 884 4057 2.06069e-05 9.34151e-07 0.000190931 3.45519e-09 6.87684e-07 
0 0 0 -0.629823 0.599429 -0.0261095 0 884 3062 0.00258109 -0.0020005 0.00653115 3.60995e-08 7.2143e-06 
0 0 0 -0.0419413 0.113377 0.0423935 0 884 14487 0.000278092 -0.000268535 0.000773165 1.36337e-08 2.71695e-06 
0 0 0 -1.62004e-302 4.71211e-20 -5.89793e-12 0 884 7839 -5.56556e-307 5.25978e-06 -1.62002 1.22522e-06 0.0003 
0 0 0 0.0721013 0.0277954 0.000252999 0 884 17327 -0.000639566 -0.00104876 0.00245679 1.98774e-08 3.96431e-06 
0 0 0 -0.000351692 -0.0247717 -0.000633678 0 884 1828 -4.0505e-05 6.84817e-07 0.000103993 2.32329e-09 4.62337e-07 
0 0 0 -0.0106826 0.0153593 -0.00208473 0 884 11619 0.000331878 -3.9141e-05 5.99207e-05 1.33702e-09 2.66036e-07 
0 0 0 -0.00433623 -0.00105211 -0.000565626 0 884 6770 9.68169e-05 -1.28582e-05 0.000257518 4.35083e-09 8.66038e-07 
0 0 0 -0.0074321 0.00664173 0.00320087 0 884 6876 2.43445e-06 -3.5584e-07 -4.92063e-06 7.45839e-10 1.48394e-07 
0 0 0 -0.336183 0.289184 0.0380692 0 884 18137 0.000122618 -4.08731e-05 -0.000258502 2.43289e-09 4.84154e-07 
0 0 0 -0.738107 0.834542 -1.62333 0 884 14466 -0.0448813 0.0117799 0.0862362 1.33657e-07 2.70475e-05 
0 0 0 0.07399 0.207189 -0.00860026 0 884 2425 -0.000402416 -0.00116814 0.00247103 1.91862e-08 3.82612e-06 
0 0 0 0.0189225 0.0601457 0.0068955 0 884 16566 -2.61282e-05 -5.05602e-05 0.000113825 3.56407e-09 7.09363e-07 
0 0 0 0.00129324 -0.00880141 0.00116311 0 884 1707 7.35889e-05 3.89807e-05 0.000157268 3.3442e-09 6.65585e-07 
0 0 0 -0.0085437 0.0061167 0.000910126 0 884 6883 9.56702e-05 -1.44773e-06 0.000269277 4.67076e-09 9.29759e-07 
0 0 0 -0.00331482 0.0199371 0.00267557 0 884 8118 0.000163337 4.21088e-05 0.000337355 5.6188e-09 1.11861e-06 
0 0 0 -4.41913e-05 1.23649e-05 4.78685e-05 0 884 5274 4.81429e-07 4.64802e-06 -1.62002 1.22522e-06 0.0003 
0 0 0 0.00730278 -0.00653999 0.0220638 0 884 3782 -4.65033e-05 4.56673e-05 -0.000130354 4.61287e-10 9.17753e-08 
0 0 0 0.008733 0.00427586 0.00164608 0 884 14585 2.28296e-05 -2.15301e-06 4.58617e-05 1.67864e-09 3.34025e-07 
0 0 0 0.00428794 0.0155454 0.00367832 0 884 5901 -4.16752e-05 1.12109e-05 3.72716e-05 1.85834e-09 3.6979e-07 
0 0 0 -0.0190177 0.00371824 0.00346621 0 884 6198 0.000130736 3.15664e-05 0.000268985 4.98927e-09 9.93199e-07 
0 0 0 -0.00254564 0.0253727 0.00226932 0 884 1416 1.30221e-05 -0.000127037 0.000255404 4.68665e-09 9.32924e-07 
0 0 0 -0.0105058 0.0274045 -0.00102532 0 884 677 4.7199e-05 3.35596e-06 9.46364e-05 2.11589e-09 4.21053e-07 
0 0 0 -2.8083e-08 5.18919e-07 4.99709e-12 0 884 2130 0.0554889 0.00300819 -1.61662 1.2239e-06 0.000299581 
0 0 0 0.613927 -0.15594 0.18652 0 884 9205 0.0006269 -0.00105378 -0.00089335 1.74471e-08 3.47855e-06 
0 0 0 0.000712395 -0.0198033 0.00358802 0 884 6671 6.18076e-06 1.06088e-05 3.84299e-06 1.10038e-09 2.18943e-07 
0 0 0 0.0472936 -0.0236749 -0.00491306 0 884 6929 -3.7627e-05 -0.000155542 0.000277694 4.03555e-09 8.03251e-07 
0 0 0 -0.0257379 0.0115186 0.000920675 0 884 10062 9.36592e-06 8.27227e-06 0.000253099 4.48904e-09 8.93565e-07 
0 0 0 -0.000528358 0.0183109 0.00228204 0 884 7884 3.63476e-06 -6.34631e-05 0.000169217 3.65368e-09 7.27208e-07 
0 0 0 2.80826e-08 -5.18918e-07 5.0365e-12 0 884 4708 -0.0632527 -0.00341783 -1.62342 1.22654e-06 0.000300419 
0 0 0 0.0747657 -0.00677891 0.0905735 0 884 12229 0.000297485 -0.000668251 0.0053301 4.00869e-08 8.0152e-06 
0 0 0 -0.00351392 -0.00357889 0.00182924 0 884 5839 7.57807e-06 -1.99574e-05 0.000104885 2.70022e-09 5.37372e-07 
0 0 0 1.16921e-14 2.24114e-13 4.49998e-11 0 863 2723 -1.6224 0.0141152 3.28135e-05 1.22614e-06 0.000300294 
0 0 0 1.62261e-14 5.17711e-14 -1.75743e-11 0 863 4560 -1.61763 -0.00844426 -1.90603e-05 1.2243e-06 0.000299705 
0 0 0 2.33011e-15 4.62991e-20 -2.06418e-302 0 862 444 -1.62002 5.25978e-06 2.62452e-307 1.22522e-06 0.0003 
0 0 0 2.48107e-15 -2.75856e-13 -2.74255e-11 0 862 927 -1.62002 9.98454e-05 -9.17233e-07 1.22522e-06 0.000300001 
0 0 0 0.0314034 -0.0978512 0.041827 0 854 15522 -0.000184073 8.30503e-05 -3.96652e-05 2.72306e-09 5.41919e-07 
0 0 0 -6.86811 2.07596 -7.39085 0 854 12018 0.882846 -0.080005 0.27142 7.0608e-07 0.000155603 
0 0 0 0.0275966 0.0173014 -0.133043 0 854 17449 0.00908669 0.00105365 -0.00220121 4.92348e-08 9.85566e-06 
0 0 0 -0.00440125 -0.0424457 0.0186486 0 854 8074 9.05414e-05 3.9928e-05 -2.13353e-05 1.54292e-09 3.07013e-07 
0 0 0 -0.00320216 0.0509538 -0.0279956 0 854 5439 0.000414487 -0.000204301 -3.47982e-05 5.69769e-09 1.13432e-06 
0 0 0 0.000257285 0.0145043 0.0434886 0 854 14531 6.90097e-06 -0.000109203 -0.000216567 4.55921e-10 9.07078e-08 
0 0 0 -0.0107091 -0.000178023 -0.000883541 0 854 12718 0.000159307 -0.000114393 -2.09162e-05 1.76554e-09 3.51319e-07 
0 0 0 -0.0107975 -0.0188234 -0.0133002 0 854 5581 0.00031602 5.21541e-06 -0.000157924 3.75099e-09 7.46584e-07 
0 0 0 -0.0289423 0.0322876 -0.0468436 0 854 6806 0.000395555 -6.1648e-05 0.000187924 2.58412e-09 5.1426e-07 
0 0 0 0.00179079 0.00285378 -1.19568e-05 0 854 5287 0.000171998 1.39722e-05 8.48565e-05 3.62273e-09 7.21044e-07 
0 0 0 0.00464971 0.0852349 -0.0269325 0 854 6410 3.54185e-05 -1.74545e-05 2.99303e-06 1.9891e-09 3.95817e-07 