ITEM: TIMESTEP
7400000
ITEM: NUMBER OF ENTRIES
2342
ITEM: BOX BOUNDS ff ff ff
-0.01 0.45
-0.15 0.15
-0.08 0.1
ITEM: ENTRIES c_pwc[1] c_pwc[2] c_pwc[3] c_pwc[4] c_pwc[5] c_pwc[6] c_pwc[7] c_pwc[8] c_pwc[9] c_pwc[10] c_pwc[11] c_pwc[12] c_pwc[13] c_pwc[14] 
0 0 0 -13.8315 -42.3477 19.3305 0 920 12888 -0.0205752 0.209075 1.50641 1.45188e-06 0.000378275 
0 0 0 -0.00190923 -0.29237 0.145583 0 788 4848 1.03675e-11 4.18876e-06 3.15237e-06 3.06252e-10 6.09293e-08 
0 0 0 -5.71711e-06 -8.85847e-05 0.000169559 0 778 12800 -4.97404e-10 9.58534e-06 1.21559e-06 4.83058e-10 9.61071e-08 
0 0 0 0.000110035 -6.84755e-05 0.000637397 0 778 7649 -2.63652e-08 1.00544e-05 1.34951e-06 5.22674e-10 1.03989e-07 
0 0 0 0.00043023 -0.000252643 0.00105733 0 778 8040 -1.47555e-08 9.55468e-06 1.13342e-06 4.81908e-10 9.58783e-08 
0 0 0 -0.00527064 0.00235747 -0.00504279 0 778 2015 9.68811e-09 8.74242e-06 1.28383e-06 7.72848e-10 1.53768e-07 
0 0 0 0.00518167 -0.000372215 0.00196441 0 778 3837 -1.48257e-10 1.04517e-05 1.39306e-06 5.241e-10 1.04273e-07 
0 0 0 -0.00207238 -0.000299808 0.00115609 0 778 4413 1.48609e-08 1.08567e-05 1.39734e-06 5.20649e-10 1.03587e-07 
0 0 0 0.0415244 -0.0130606 0.069868 0 778 5560 5.24289e-18 1.02659e-05 1.35713e-06 5.18851e-10 1.03229e-07 
0 0 0 0.0357914 -0.00665724 0.0356172 0 778 12450 -5.25574e-06 1.02883e-05 2.34995e-06 5.25831e-10 1.04618e-07 
0 0 0 0.0108397 7.45275e-07 -0.000435109 0 778 12917 -1.95153e-07 8.25333e-06 8.87149e-07 4.29417e-10 8.54344e-08 
0 0 0 0.0201812 -0.000465662 0.00249107 0 778 5399 -5.13151e-06 1.00483e-05 2.5208e-06 5.18851e-10 1.03229e-07 
0 0 0 0.00936243 -0.00295755 0.0160016 0 778 2611 -1.58971e-07 1.05285e-05 1.48869e-06 5.35405e-10 1.06523e-07 
0 0 0 -0.0187348 -0.00505324 0.0270324 0 778 12332 -8.79492e-19 1.02659e-05 1.35713e-06 5.18851e-10 1.03229e-07 
0 0 0 0.135304 -0.0307406 0.164447 0 778 215 -7.17957e-18 1.02659e-05 1.35713e-06 5.18851e-10 1.03229e-07 
0 0 0 -0.167917 -0.0209271 0.11195 0 778 7654 1.04453e-06 1.10949e-05 -3.07736e-06 5.18847e-10 1.03228e-07 
0 0 0 0.181941 0.00453105 -0.0242391 0 778 10952 -1.53041e-06 9.25756e-06 6.75499e-06 5.18868e-10 1.03232e-07 
0 0 0 5.20438e-05 -1.69047e-05 0.000544157 0 776 7937 2.41887e-07 1.08555e-05 -5.0722e-09 5.32299e-10 1.05905e-07 
0 0 0 -0.00080181 -3.26111e-05 0.00041967 0 776 5540 -9.04504e-08 1.0492e-05 -2.99803e-07 5.16847e-10 1.0283e-07 
0 0 0 6.3926e-05 -1.92549e-05 0.000459975 0 776 1200 -2.0071e-08 1.04457e-05 -1.30767e-08 5.18194e-10 1.03098e-07 
0 0 0 -0.00180463 0.00023187 0.00054373 0 776 1871 -7.31375e-07 6.31377e-06 2.89145e-07 4.28025e-10 8.51574e-08 
0 0 0 0.000202326 -9.11689e-06 -0.00310249 0 776 206 8.89558e-07 1.45605e-05 -5.10633e-07 6.49948e-10 1.29314e-07 
0 0 0 0.00125543 -0.000259129 -0.00144488 0 776 1972 7.40588e-07 3.33275e-05 -1.65121e-06 1.08575e-09 2.16032e-07 
0 0 0 -0.000116219 -0.000354679 -0.00192918 0 776 733 -1.41787e-06 1.44887e-05 7.10426e-06 5.76956e-10 1.1479e-07 
0 0 0 0.00140922 -2.00052e-05 0.00315581 0 776 894 9.1497e-08 9.99398e-06 -2.29734e-08 5.02829e-10 1.00041e-07 
0 0 0 0.000712512 9.85954e-06 0.00107525 0 776 9680 3.62587e-10 1.08082e-05 -1.93585e-10 5.36505e-10 1.06741e-07 
0 0 0 -0.00163294 -5.90123e-05 -0.00145385 0 776 690 -1.30526e-08 9.20266e-06 5.74405e-08 4.66999e-10 9.29118e-08 
0 0 0 -0.0010768 2.81126e-05 -3.24445e-05 0 776 280 -4.88996e-08 1.18724e-05 -6.60084e-07 5.74866e-10 1.14374e-07 
0 0 0 -0.0015437 -6.82554e-05 -0.00472161 0 776 1894 -2.82701e-06 1.15022e-05 1.30055e-06 5.42464e-10 1.07927e-07 
0 0 0 0.00124296 0.000177959 0.00161319 0 776 9977 -1.15599e-07 1.02192e-05 3.56707e-07 5.53478e-10 1.10119e-07 
0 0 0 0.00102912 9.99984e-06 0.00268212 0 776 1225 2.74457e-11 1.05819e-05 7.38976e-11 5.29057e-10 1.05259e-07 
0 0 0 -0.00038638 -6.03286e-12 0.00368011 0 776 3512 3.77682e-20 1.05196e-05 4.19727e-19 5.24825e-10 1.04417e-07 
0 0 0 -0.000256705 0.000146111 0.00108461 0 776 101 -3.61176e-06 1.2885e-05 -2.10338e-06 6.31373e-10 1.25618e-07 
0 0 0 0.000940636 -3.72245e-05 -0.00197083 0 776 317 1.83345e-08 1.13114e-05 -1.23785e-08 5.4288e-10 1.0801e-07 
0 0 0 0.000702735 0.000201394 -0.00137465 0 776 1705 -1.90862e-06 1.18673e-05 1.9143e-06 6.1145e-10 1.21653e-07 
0 0 0 0.0042897 -5.22946e-05 -0.00113153 0 776 2352 1.2421e-08 1.04022e-05 -1.17259e-07 5.09575e-10 1.01383e-07 
0 0 0 -0.000989637 -2.60272e-07 0.00479777 0 776 9269 7.06763e-14 1.05153e-05 -3.42795e-13 5.24626e-10 1.04378e-07 
0 0 0 6.76775e-05 -2.58272e-05 0.00516148 0 776 6408 1.5679e-09 1.07274e-05 9.03655e-10 5.26144e-10 1.0468e-07 
0 0 0 0.000531603 -5.86109e-12 0.00213494 0 776 553 7.48762e-20 1.05196e-05 3.02157e-19 5.24825e-10 1.04417e-07 
0 0 0 0.0014856 -8.23472e-05 -0.00187536 0 776 585 -2.90309e-06 1.36023e-05 -2.09194e-06 6.05828e-10 1.20535e-07 
0 0 0 0.00126524 2.31799e-05 -0.000985592 0 776 2069 1.15708e-07 1.0301e-05 -4.58446e-08 5.22565e-10 1.03968e-07 
0 0 0 0.00217643 7.70013e-06 -0.00149914 0 776 531 -4.59378e-08 1.00455e-05 2.90877e-07 5.10615e-10 1.0159e-07 
0 0 0 0.0026691 4.25625e-05 0.00196166 0 776 8455 2.13603e-08 -7.22671e-08 -2.9144e-08 1.1583e-11 2.30437e-09 
0 0 0 0.00100789 0.000233339 0.00413501 0 776 11208 1.18239e-06 1.53836e-05 -7.60039e-06 7.23544e-10 1.43957e-07 
0 0 0 0.00228327 2.07096e-05 0.00271143 0 776 6702 -2.03522e-10 1.0289e-05 -1.01584e-10 5.21626e-10 1.03781e-07 
0 0 0 0.003182 1.21273e-12 -0.000140102 0 776 1002 -2.63707e-19 1.05196e-05 1.87192e-20 5.24825e-10 1.04417e-07 
0 0 0 0.0011692 -1.33967e-05 -0.00180644 0 776 1470 -7.74912e-07 1.09704e-05 -2.20054e-07 5.36834e-10 1.06807e-07 
0 0 0 0.002033 -2.68063e-06 -0.00165798 0 776 154 -2.57383e-11 1.05336e-05 -2.27863e-12 5.24713e-10 1.04395e-07 
0 0 0 0.00119699 -3.06479e-09 -0.00623124 0 776 1045 -1.00422e-15 1.05195e-05 5.22771e-15 5.24822e-10 1.04417e-07 
0 0 0 0.00504975 -0.000285311 0.00824405 0 776 10360 -1.02003e-05 2.05783e-05 1.34907e-06 7.65669e-10 1.5234e-07 
0 0 0 0.00131688 -5.06605e-12 -0.00310091 0 776 4634 1.51081e-19 1.05196e-05 2.84752e-19 5.24825e-10 1.04417e-07 
0 0 0 0.00352514 5.56886e-12 -0.00279056 0 776 72 -5.99007e-19 1.05196e-05 -2.83332e-19 5.24825e-10 1.04417e-07 
0 0 0 0.00109561 5.44839e-06 -0.00228398 0 776 4165 3.24442e-09 1.06109e-05 9.76681e-10 5.29034e-10 1.05255e-07 
0 0 0 0.000504936 -9.02564e-06 -0.00208331 0 776 1920 -2.14192e-10 1.04028e-05 -2.64081e-10 5.18978e-10 1.03254e-07 
0 0 0 0.00323572 1.99011e-06 -0.00164872 0 776 3087 -2.14979e-08 1.13459e-05 1.14743e-06 5.52383e-10 1.09901e-07 
0 0 0 0.00483007 -1.17858e-06 0.00836174 0 776 10613 -1.55145e-12 1.05084e-05 -2.7031e-12 5.24197e-10 1.04292e-07 
0 0 0 0.011096 -3.57821e-12 -0.00170241 0 776 4185 1.20855e-18 1.05196e-05 -2.88103e-19 5.24825e-10 1.04417e-07 
0 0 0 0.000124052 -1.73489e-05 -0.00304386 0 776 4095 -1.8405e-08 1.06715e-05 -8.15021e-09 5.2612e-10 1.04675e-07 
0 0 0 -0.000481709 -3.66964e-06 -0.002712 0 776 4938 -1.61592e-13 1.05275e-05 2.38692e-12 5.24295e-10 1.04312e-07 
0 0 0 0.00116819 1.44969e-05 -0.00277765 0 776 18 1.43335e-09 1.0502e-05 6.26942e-10 5.2738e-10 1.04926e-07 
0 0 0 -0.000314982 2.07215e-07 -0.00234283 0 776 4248 -1.29571e-14 1.05186e-05 -1.36699e-13 5.24839e-10 1.0442e-07 
0 0 0 0.0284848 3.95751e-12 0.0224485 0 776 9715 -1.69367e-18 1.05196e-05 1.69367e-18 5.24825e-10 1.04417e-07 
0 0 0 -0.00129843 6.67605e-05 0.00466217 0 776 1367 2.94659e-08 1.11881e-05 9.03964e-09 5.61131e-10 1.11641e-07 
0 0 0 -2.44685e-05 4.3519e-06 -0.00172525 0 776 1036 8.80745e-13 1.05213e-05 -1.51869e-12 5.25825e-10 1.04616e-07 
0 0 0 -0.000150707 -3.56074e-06 -0.000613091 0 776 6544 -7.03351e-08 1.1797e-05 9.73689e-07 5.65737e-10 1.12558e-07 
0 0 0 0.00211401 7.09206e-13 0.013157 0 776 9160 3.57664e-19 1.05196e-05 1.7015e-18 5.24825e-10 1.04417e-07 
0 0 0 0.00318437 2.18032e-08 0.00778524 0 776 8603 1.95501e-14 1.05193e-05 4.77967e-14 5.24821e-10 1.04417e-07 
0 0 0 0.00697282 -3.461e-12 0.011188 0 776 3983 -5.91998e-18 1.05196e-05 -9.36533e-18 5.24825e-10 1.04417e-07 
0 0 0 0.00433254 -3.37575e-05 0.0106805 0 776 9639 2.12167e-08 9.08356e-06 1.72923e-08 4.6842e-10 9.31947e-08 
0 0 0 -5.04897e-06 2.18502e-12 -0.00323098 0 776 7185 -5.90139e-22 1.05196e-05 -5.40776e-19 5.24825e-10 1.04417e-07 
0 0 0 -0.00162159 0.000133114 -0.00129324 0 776 4532 9.84724e-07 1.36487e-05 5.90926e-07 6.51899e-10 1.29702e-07 
0 0 0 -0.00158852 2.21446e-09 0.00200951 0 776 9210 -9.73986e-16 1.05196e-05 1.23213e-15 5.24826e-10 1.04418e-07 
0 0 0 0.0042599 -2.68359e-10 0.00630622 0 776 3427 -3.18149e-16 1.05196e-05 -4.70961e-16 5.24825e-10 1.04417e-07 
0 0 0 -0.000139198 -3.39493e-07 -0.000831643 0 776 1118 1.0899e-14 1.05185e-05 7.95623e-14 5.24715e-10 1.04396e-07 
0 0 0 -0.00132443 -0.000162494 -0.000159384 0 776 1890 4.4254e-07 8.56105e-06 1.97566e-06 4.21094e-10 8.37784e-08 
0 0 0 -0.0105671 -0.000820167 -0.00204938 0 776 1063 1.88379e-05 2.26101e-05 -2.49831e-06 7.18111e-10 1.42876e-07 
0 0 0 0.00537922 -2.81477e-11 0.0117047 0 776 7431 -4.31372e-17 1.05196e-05 -9.40002e-17 5.24825e-10 1.04417e-07 
0 0 0 -0.000470933 -1.78824e-06 -0.00270336 0 776 1366 2.36418e-13 1.05322e-05 1.35265e-12 5.24857e-10 1.04424e-07 
0 0 0 -0.0068481 -3.1558e-08 0.00445741 0 776 9279 -2.12308e-09 1.06926e-05 -1.98671e-09 5.30557e-10 1.05558e-07 
0 0 0 -0.0052113 -9.4635e-07 -0.00312038 0 776 10907 1.70258e-07 1.10064e-05 5.66515e-07 5.40689e-10 1.07574e-07 
0 0 0 0.00481947 2.74736e-05 -0.00966831 0 776 12872 5.88438e-09 1.0051e-05 4.86156e-09 5.15115e-10 1.02485e-07 
0 0 0 0.00096543 4.53831e-09 -0.00346056 0 776 1887 1.39143e-15 1.05188e-05 -5.0039e-15 5.24802e-10 1.04413e-07 
0 0 0 0.000518152 -3.62976e-13 -0.00204588 0 776 4164 4.17273e-22 1.05196e-05 -5.14852e-21 5.24825e-10 1.04417e-07 
0 0 0 -0.00206557 -1.3407e-05 -0.00173096 0 776 1749 6.69234e-07 1.18131e-05 1.05469e-06 5.64164e-10 1.12245e-07 
0 0 0 -0.0107999 -0.000158304 0.00441902 0 776 7893 -3.38416e-08 6.77284e-06 -9.25641e-08 3.54472e-10 7.0523e-08 
0 0 0 0.00387722 1.99844e-05 -0.00201849 0 776 11571 4.03464e-11 1.09072e-05 -3.42341e-12 5.41937e-10 1.07822e-07 
0 0 0 -0.000570357 -5.73852e-06 -0.000312243 0 776 3630 -2.22545e-12 1.05019e-05 -1.05324e-11 5.22994e-10 1.04053e-07 
0 0 0 -0.000497814 5.66993e-06 0.000211887 0 776 11044 -2.56267e-11 1.04944e-05 -3.09352e-11 5.25216e-10 1.04495e-07 
0 0 0 0.00054339 6.21624e-05 0.00130054 0 777 10595 2.29937e-08 1.13132e-05 -7.82774e-07 5.64189e-10 1.1225e-07 
0 0 0 0.00597162 -1.51912e-05 7.31675e-05 0 777 5611 6.78907e-08 1.33732e-05 -1.15332e-06 6.12728e-10 1.21908e-07 
0 0 0 0.0112465 0.000233139 0.0114369 0 777 12304 -7.84476e-07 2.97398e-05 -4.71188e-06 1.09168e-09 2.17212e-07 
0 0 0 0.0208963 1.80774e-09 0.00242334 0 777 12691 1.02494e-14 1.05196e-05 1.18861e-15 5.24827e-10 1.04418e-07 
0 0 0 -0.157995 -6.83854e-12 0.0939863 0 777 5953 1.18442e-17 1.05196e-05 -9.58461e-18 5.24825e-10 1.04417e-07 
0 0 0 -0.0205211 1.25969e-11 0.0219501 0 777 7286 -7.17126e-17 1.05196e-05 7.69115e-17 5.24825e-10 1.04417e-07 
0 0 0 0.00159509 -0.000334368 -0.00154056 0 775 2116 2.40786e-07 1.3655e-05 6.209e-07 6.04408e-10 1.20252e-07 
0 0 0 1.6797e-05 -0.000290484 -0.00171064 0 775 12 -1.09536e-07 9.81226e-06 -1.04241e-06 5.08164e-10 1.01102e-07 
0 0 0 -0.00103828 -4.0131e-05 -0.000589136 0 775 3998 -1.77425e-07 8.31633e-06 -1.03152e-06 4.65912e-10 9.26957e-08 
0 0 0 -0.00226074 -3.39474e-05 -0.000329939 0 775 5900 -1.62856e-07 9.2836e-06 -1.13766e-06 4.90652e-10 9.76181e-08 
0 0 0 -0.000999239 -0.000570939 -0.00305414 0 775 9290 5.11514e-15 1.02641e-05 -1.35679e-06 5.18787e-10 1.03216e-07 
0 0 0 -0.00326223 -0.00069221 -0.00370688 0 775 6574 1.97763e-08 9.96407e-06 -1.25594e-06 5.08407e-10 1.01151e-07 
0 0 0 -0.00547663 0.000176766 0.000892656 0 775 7843 1.06534e-07 9.45224e-06 -1.29343e-06 4.9348e-10 9.81808e-08 
0 0 0 0.000202326 -9.11689e-06 -0.00310249 0 832 206 -3.27299e-07 -8.67899e-07 1.38538e-05 6.43763e-11 1.28074e-08 
0 0 0 -0.000116219 -0.000354679 -0.00192918 0 832 733 7.07059e-06 2.00592e-06 -2.91111e-06 3.75841e-10 7.47747e-08 
0 0 0 0.00129712 -0.000200182 -0.00148546 0 774 2641 2.26303e-06 1.65172e-05 -1.04908e-06 7.21744e-10 1.43599e-07 
0 0 0 0.00588772 -0.00125537 -0.00671277 0 774 5113 -7.7327e-13 1.02072e-05 -1.34565e-06 5.16736e-10 1.02808e-07 
0 0 0 -0.000233614 -0.000111121 -0.000202015 0 774 10425 -2.92655e-08 1.05997e-05 -1.37273e-06 5.14298e-10 1.02323e-07 
0 0 0 0.00256175 -0.000891278 -0.00476915 0 774 210 1.32863e-15 1.02703e-05 -1.358e-06 5.1905e-10 1.03268e-07 
0 0 0 -0.00362033 -0.00127546 -0.00599706 0 774 3865 -2.39098e-07 9.54636e-06 -1.07101e-06 4.59754e-10 9.14704e-08 
0 0 0 -0.00243079 -0.000156518 -0.00603589 0 774 4325 2.08483e-06 1.46716e-05 -9.34012e-07 8.4786e-10 1.68694e-07 
0 0 0 -0.000264648 -0.000111708 -0.00117303 0 774 3869 1.45066e-07 9.41617e-06 -1.90619e-06 5.17218e-10 1.02904e-07 
0 0 0 -0.00374888 -0.00133641 -0.0071585 0 774 1165 -1.70023e-12 1.02854e-05 -1.36105e-06 5.19888e-10 1.03435e-07 
0 0 0 -0.00638862 0.000267998 0.00104276 0 774 2858 1.49202e-07 8.80422e-06 -1.41213e-06 4.85939e-10 9.66804e-08 
0 0 0 -0.000817316 -0.000211499 -0.00143909 0 774 9441 1.07209e-07 7.60461e-06 -6.55205e-07 4.3532e-10 8.66089e-08 
0 0 0 -0.00517601 -0.000288583 -0.0014754 0 774 8682 -1.80376e-11 1.06028e-05 -1.42179e-06 5.27551e-10 1.0496e-07 
0 0 0 -0.00228762 -0.00110271 -0.00594881 0 774 6076 -2.48805e-07 1.02092e-05 -1.44233e-06 5.19498e-10 1.03358e-07 
0 0 0 -0.00645736 -0.000894456 -0.00556259 0 774 3081 -2.04391e-07 8.78525e-06 -9.80099e-07 4.98352e-10 9.91501e-08 
0 0 0 -0.0035703 -0.000598633 -0.00194152 0 774 3877 5.96947e-07 1.12682e-05 -1.87777e-06 5.04965e-10 1.00466e-07 
0 0 0 -0.0183691 -0.00285601 -0.0152793 0 774 1541 -9.32652e-13 1.02695e-05 -1.35785e-06 5.19014e-10 1.03261e-07 
0 0 0 0.00270727 -0.00112698 -0.0060288 0 774 8267 -1.81026e-15 1.02659e-05 -1.35713e-06 5.18851e-10 1.03229e-07 
0 0 0 0.00352956 -0.000807737 -0.00384413 0 774 9650 1.83853e-07 1.16222e-05 -1.43115e-06 5.44343e-10 1.08301e-07 
0 0 0 0.00178538 -0.00509526 -0.0272572 0 774 6493 4.88327e-19 1.02659e-05 -1.35713e-06 5.18851e-10 1.03229e-07 
0 0 0 0.314181 14.2509 14.3345 0 944 14254 -0.00143239 0.0432718 -0.0375582 2.02087e-07 4.12683e-05 
0 0 0 2.02603 12.254 12.7386 0 944 2464 -0.00256549 0.0473231 -0.0450919 1.96235e-07 4.00418e-05 
0 0 0 0.0148014 -0.00041111 -0.0171879 0 774 5016 -3.25717e-06 5.18456e-05 -3.9081e-05 2.08722e-09 4.15347e-07 
0 0 0 -0.0284811 -0.0105603 -0.0564925 0 774 5294 1.27954e-13 1.02658e-05 -1.35711e-06 5.18843e-10 1.03227e-07 
0 0 0 -0.0345441 -0.00305762 -0.0163568 0 774 5875 2.67089e-18 1.02659e-05 -1.35713e-06 5.18851e-10 1.03229e-07 
0 0 0 0.117541 -0.0120081 -0.0642375 0 774 12874 -1.60412e-18 1.02659e-05 -1.35713e-06 5.18851e-10 1.03229e-07 
0 0 0 -0.0185663 -0.00126141 -0.00674796 0 774 9818 -9.02981e-18 1.02659e-05 -1.35713e-06 5.18851e-10 1.03229e-07 
0 0 0 3.42233e-81 7.55666e-20 -1.18145e-12 0 884 5230 1.18524e-82 5.25978e-06 -1.62002 1.22522e-06 0.0003 
0 0 0 -7.63807e-155 -7.53436e-20 4.7235e-12 0 884 3064 -3.8486e-155 5.25978e-06 -1.62002 1.22522e-06 0.0003 
0 0 0 3.38207e-208 4.76835e-20 -2.26131e-15 0 884 871 -2.70355e-209 5.25978e-06 -1.62002 1.22522e-06 0.0003 
0 0 0 3.47907e-203 -6.66694e-20 -2.26313e-15 0 884 1962 -1.71266e-204 5.25978e-06 -1.62002 1.22522e-06 0.0003 
0 0 0 -2.15086 0.886804 1.78275 0 884 1061 -0.0248203 0.00105596 0.10599 3.14174e-07 6.51563e-05 
0 0 0 1.32158e-17 -9.0412e-17 -2.36056e-12 0 884 2565 -0.00048722 -0.00444222 -1.61989 1.22517e-06 0.000299984 
0 0 0 2.40961e-129 -1.9272e-20 -2.15153e-15 0 884 2145 2.81484e-129 5.25978e-06 -1.62002 1.22522e-06 0.0003 
0 0 0 0.0535159 0.0828056 0.0535749 0 884 12293 -0.00030948 -0.000110618 0.00065731 1.39787e-08 2.78583e-06 
0 0 0 2.2437e-302 3.77209e-20 4.72345e-12 0 884 7394 -4.16876e-307 5.25978e-06 -1.62002 1.22522e-06 0.0003 
0 0 0 3.19779e-302 3.77232e-20 3.53501e-12 0 884 3089 -4.72276e-307 5.25978e-06 -1.62002 1.22522e-06 0.0003 
0 0 0 3.64672e-185 4.70639e-23 2.36055e-12 0 884 1269 6.7838e-186 5.25978e-06 -1.62002 1.22522e-06 0.0003 
0 0 0 0.00525856 -0.0449196 0.0615567 0 884 1828 3.9055e-05 4.75831e-05 -0.000360304 5.55133e-09 1.10517e-06 
0 0 0 0.00694629 0.0488423 -0.100946 0 884 7839 0.0358844 -0.034973 -1.57396 1.20906e-06 0.000294883 
0 0 0 0.688229 1.48246 1.72301 0 884 14336 -0.00379585 -0.0126223 0.0263614 1.90742e-07 3.88923e-05 
0 0 0 0.0541302 0.0583574 -0.000543678 0 884 6876 -0.000103605 -0.000425613 0.000592246 7.64246e-09 1.52187e-06 
0 0 0 2.10099e-302 2.80761e-24 -5.89787e-12 0 884 5274 2.8766e-307 5.25978e-06 -1.62002 1.22522e-06 0.0003 
0 0 0 -0.0132118 0.000463036 0.0115128 0 884 8118 6.06366e-05 -5.2091e-05 0.000159878 4.78798e-09 9.53107e-07 
0 0 0 3.5028e-16 2.12703e-17 4.71677e-12 0 884 2130 0.0645874 0.0035438 -1.62438 1.22691e-06 0.000300538 
0 0 0 -0.00849384 0.0287254 -0.000179114 0 884 1416 1.78011e-06 -5.02912e-06 1.06697e-05 4.91145e-10 9.77162e-08 
0 0 0 -4.23326e-16 -2.11827e-17 4.71666e-12 0 884 4708 -0.0546258 -0.00298752 -1.61566 1.22353e-06 0.000299462 
0 0 0 9.08479e-14 -8.48272e-20 -4.0039e-302 0 863 2723 -1.62002 5.25978e-06 6.04175e-307 1.22522e-06 0.0003 
0 0 0 -7.22931e-14 -1.02484e-19 1.98648e-264 0 862 444 -1.62002 5.25978e-06 2.38993e-265 1.22522e-06 0.0003 
0 0 0 1.63201e-14 -5.65377e-20 -2.59486e-302 0 862 927 -1.62002 5.25978e-06 0 1.22522e-06 0.0003 
0 0 0 0.0594773 0.0747303 0.0215988 0 854 10704 -0.000250443 1.97612e-05 -2.34246e-05 6.71155e-09 1.33634e-06 
0 0 0 0.000140818 -0.0422878 0.0115275 0 854 9118 1.71789e-05 8.4741e-06 1.40287e-06 7.55863e-10 1.50388e-07 
0 0 0 0.00225545 0.0118203 0.0271015 0 854 1115 0.0001339 -8.9898e-06 -3.32964e-06 3.17937e-09 6.32766e-07 
0 0 0 0.00551292 0.00132641 0.0372122 0 854 7902 0.000599147 -0.000232516 -0.000188894 8.36908e-09 1.66671e-06 
0 0 0 3.42233e-81 7.55666e-20 -1.18145e-12 0 850 5230 1.18524e-82 5.25978e-06 1.62002 1.22522e-06 0.0003 
0 0 0 -7.63807e-155 -7.53436e-20 4.7235e-12 0 850 3064 -3.8486e-155 5.25978e-06 1.62002 1.22522e-06 0.0003 
0 0 0 4.37125e-302 -9.65306e-21 -1.18146e-12 0 850 478 4.63775e-307 5.25978e-06 1.62002 1.22522e-06 0.0003 
0 0 0 3.38207e-208 4.76835e-20 -2.26131e-15 0 850 871 -2.70355e-209 5.25978e-06 1.62002 1.22522e-06 0.0003 
0 0 0 3.47907e-203 -6.66694e-20 -2.26313e-15 0 850 1962 -1.71266e-204 5.25978e-06 1.62002 1.22522e-06 0.0003 
0 0 0 2.58858e-248 -8.46987e-20 -3.535e-12 0 850 283 1.72595e-250 5.25978e-06 1.62002 1.22522e-06 0.0003 
0 0 0 -1.31127e-17 8.54384e-17 -2.36056e-12 0 850 6540 0.00048722 0.00445274 1.61989 1.22517e-06 0.000299984 
0 0 0 1.32158e-17 -9.0412e-17 -2.36056e-12 0 850 2565 -0.000520944 -0.00475007 1.62015 1.22527e-06 0.000300016 
0 0 0 2.40961e-129 -1.9272e-20 -2.15153e-15 0 850 2145 2.81484e-129 5.25978e-06 1.62002 1.22522e-06 0.0003 
0 0 0 -2.14213e-47 4.71211e-20 4.72348e-12 0 850 5520 -7.15154e-49 5.25978e-06 1.62002 1.22522e-06 0.0003 
0 0 0 2.2437e-302 3.77209e-20 4.72345e-12 0 850 7394 3.23865e-307 5.25978e-06 1.62002 1.22522e-06 0.0003 
0 0 0 -3.71325e-303 8.49183e-20 5.89792e-12 0 850 2321 7.84086e-307 5.25978e-06 1.62002 1.22522e-06 0.0003 
0 0 0 -5.87853e-303 -5.6428e-20 -3.53505e-12 0 850 7581 3.21091e-307 5.25978e-06 1.62002 1.22522e-06 0.0003 
0 0 0 -4.47242e-17 1.32443e-17 2.95013e-12 0 850 10198 0.0104028 0.000679638 1.62125 1.2257e-06 0.000300151 
0 0 0 3.19779e-302 3.77232e-20 3.53501e-12 0 850 3089 5.64559e-307 5.25978e-06 1.62002 1.22522e-06 0.0003 
0 0 0 3.64672e-185 4.70639e-23 2.36055e-12 0 850 1269 6.7838e-186 5.25978e-06 1.62002 1.22522e-06 0.0003 
0 0 0 8.24084e-17 -1.30622e-17 2.95022e-12 0 850 5323 -0.00745161 -0.000477803 1.6188 1.22475e-06 0.000299849 
0 0 0 -1.4394e-302 4.72595e-20 2.3606e-12 0 850 392 7.28561e-307 5.25978e-06 1.62002 1.22522e-06 0.0003 
0 0 0 -1.5585e-302 -5.65374e-20 -1.18147e-12 0 850 13677 -1.73829e-307 5.25978e-06 1.62002 1.22522e-06 0.0003 
0 0 0 0.00694629 0.0488423 -0.100946 0 850 7839 -0.00460595 -0.0138181 1.66647 1.24121e-06 0.000305117 
0 0 0 7.72822e-17 -5.15031e-17 -1.18153e-12 0 850 9691 0.010908 0.00192508 1.61931 1.22494e-06 0.000299912 
0 0 0 1.68055e-173 -4.71515e-20 2.36061e-12 0 850 1583 -8.49169e-174 5.25978e-06 1.62002 1.22522e-06 0.0003 
0 0 0 -8.99986e-17 5.14768e-17 -1.18146e-12 0 850 10506 -0.0125971 -0.00221185 1.62073 1.2255e-06 0.000300088 
0 0 0 1.48533e-293 9.37481e-21 -2.25553e-15 0 850 8195 1.78809e-294 5.25978e-06 1.62002 1.22522e-06 0.0003 
0 0 0 2.10099e-302 2.80761e-24 -5.89787e-12 0 850 5274 -3.80152e-307 5.25978e-06 1.62002 1.22522e-06 0.0003 
0 0 0 5.43312e-111 5.65997e-20 -3.53502e-12 0 850 10333 7.43722e-112 5.25978e-06 1.62002 1.22522e-06 0.0003 
0 0 0 3.5028e-16 2.12703e-17 4.71677e-12 0 850 2130 0.0546258 0.00299803 1.61566 1.22353e-06 0.000299462 
0 0 0 -4.23326e-16 -2.11827e-17 4.71666e-12 0 850 4708 -0.0645874 -0.00353328 1.62438 1.22691e-06 0.000300538 
0 0 0 -7.22931e-14 -1.02484e-19 1.98648e-264 0 822 444 1.62002 5.25978e-06 2.38993e-265 1.22522e-06 0.0003 
0 0 0 1.63201e-14 -5.65377e-20 -2.59486e-302 0 821 927 1.62002 5.25978e-06 -8.43645e-308 1.22522e-06 0.0003 
0 0 0 9.08479e-14 -8.48272e-20 -4.0039e-302 0 821 2723 1.62002 5.25978e-06 -5.10644e-307 1.22522e-06 0.0003 
0 0 0 4.37125e-302 -9.65306e-21 -1.18146e-12 0 885 478 -3.72117e-307 5.25978e-06 -1.62002 1.22522e-06 0.0003 
0 0 0 2.58858e-248 -8.46987e-20 -3.535e-12 0 885 283 1.72595e-250 5.25978e-06 -1.62002 1.22522e-06 0.0003 
0 0 0 -1.31127e-17 8.54384e-17 -2.36056e-12 0 885 6540 0.000520944 0.00476059 -1.62015 1.22527e-06 0.000300016 
0 0 0 -2.14213e-47 4.71211e-20 4.72348e-12 0 885 5520 -7.15154e-49 5.25978e-06 -1.62002 1.22522e-06 0.0003 
0 0 0 -3.71325e-303 8.49183e-20 5.89792e-12 0 885 2321 -8.77328e-307 5.25978e-06 -1.62002 1.22522e-06 0.0003 
0 0 0 -5.87853e-303 -5.6428e-20 -3.53505e-12 0 885 7581 -2.27188e-307 5.25978e-06 -1.62002 1.22522e-06 0.0003 
0 0 0 -4.47242e-17 1.32443e-17 2.95013e-12 0 885 10198 0.00745161 0.000488321 -1.6188 1.22475e-06 0.000299849 
0 0 0 8.24084e-17 -1.30622e-17 2.95022e-12 0 885 5323 -0.0104028 -0.000669117 -1.62125 1.2257e-06 0.000300151 
0 0 0 -1.4394e-302 4.72595e-20 2.3606e-12 0 885 392 -6.35487e-307 5.25978e-06 -1.62002 1.22522e-06 0.0003 
0 0 0 -1.5585e-302 -5.65374e-20 -1.18147e-12 0 885 13677 7.90781e-308 5.25978e-06 -1.62002 1.22522e-06 0.0003 
0 0 0 7.72822e-17 -5.15031e-17 -1.18153e-12 0 885 9691 0.0125971 0.00222237 -1.62073 1.2255e-06 0.000300088 
0 0 0 1.68055e-173 -4.71515e-20 2.36061e-12 0 885 1583 -8.49169e-174 5.25978e-06 -1.62002 1.22522e-06 0.0003 
0 0 0 -8.99986e-17 5.14768e-17 -1.18146e-12 0 885 10506 -0.010908 -0.00191456 -1.61931 1.22494e-06 0.000299912 
0 0 0 1.48533e-293 9.37481e-21 -2.25553e-15 0 885 8195 1.78809e-294 5.25978e-06 -1.62002 1.22522e-06 0.0003 
0 0 0 5.43312e-111 5.65997e-20 -3.53502e-12 0 885 10333 7.43722e-112 5.25978e-06 -1.62002 1.22522e-06 0.0003 
0 0 0 0.141706 0.0416767 0.0574553 0 853 7611 -0.000100398 -0.00598379 -0.00138326 3.27653e-08 6.54523e-06 
0 0 0 0.16137 -0.0210484 0.0706048 0 853 6262 -7.37087e-05 -0.000405488 -5.59525e-05 8.44391e-09 1.68163e-06 
0 0 0 0.0418321 -0.0210602 0.0837151 0 853 916 -2.80262e-05 -0.000112701 -4.88865e-05 5.52446e-09 1.09981e-06 
0 0 0 0.0560571 0.000948925 0.0903704 0 853 1616 -0.00023596 -7.93941e-05 -1.44623e-05 1.87241e-09 3.72592e-07 
0 0 0 -0.0028271 -0.00883876 0.00170408 0 853 677 0.000107568 -0.000297329 -2.98823e-05 5.95951e-09 1.18649e-06 
0 0 0 0.0365067 -0.00501581 0.121173 0 853 9983 -6.91573e-05 -0.000475729 4.38584e-06 7.23067e-09 1.43979e-06 
0 0 0 -0.0164327 0.00524999 0.0241265 0 852 2270 8.00945e-05 -0.000446394 0.000208331 5.77312e-09 1.14935e-06 
0 0 0 -0.0418933 0.0596975 -0.038263 0 852 5457 0.000156812 -0.00318168 -0.000259201 1.86327e-08 3.71549e-06 
0 0 0 -0.0402519 -0.00797231 0.080191 0 852 1984 9.56242e-06 -2.65736e-05 -9.22493e-06 2.39179e-09 4.75974e-07 
0 0 0 -0.0101872 -0.0194351 0.0495432 0 852 9036 0.00051734 -0.00103469 2.36374e-06 1.31176e-08 2.61394e-06 
0 0 0 -0.0933312 0.112218 -0.147987 0 852 10640 0.00240775 -0.0107508 0.000354933 4.53497e-08 9.0735e-06 
0 0 0 0.0164706 0.0588306 -0.0642399 0 852 4329 0.000258751 -0.000476231 -0.000459247 9.91947e-10 1.97366e-07 
0 0 0 0.071586 0.00711662 0.0478246 0 852 8307 -0.000228784 -0.000475762 6.5154e-05 5.84287e-09 1.16325e-06 
0 0 0 -0.00668173 -0.141156 0.206044 0 852 12188 0.000390917 -0.0132278 -0.00352082 6.98197e-08 1.40129e-05 
0 0 0 0.135776 -0.0140557 0.198417 0 852 7764 0.000149202 -0.000192105 -0.000817862 5.49436e-09 1.09382e-06 
0 0 0 0.0445372 -0.000886058 0.0355082 0 852 1622 8.22597e-05 -0.00177489 -0.000124474 1.60753e-08 3.2045e-06 
0 0 0 0.0878422 0.0410758 0.113895 0 852 5764 -0.00132131 -0.00100392 -0.000983199 6.84315e-09 1.36256e-06 
0 0 0 0.0161546 -0.00542918 0.14497 0 852 9024 0.000103562 -0.00126963 -0.000626312 1.33247e-08 2.65528e-06 
0 0 0 -0.0309477 -0.020231 0.027363 0 852 2553 -6.53199e-06 8.59913e-05 -2.51362e-06 2.4807e-09 4.93671e-07 
0 0 0 -0.0111961 -0.0642205 -0.00158439 0 894 11518 0.000109443 0.000118132 2.70154e-06 3.96661e-10 7.89172e-08 
0 0 0 -0.00063642 -0.0179733 0.00111297 0 894 10977 3.92039e-05 0.000147202 -0.000355479 5.34843e-09 1.06475e-06 
0 0 0 0.00190426 -0.0479362 -0.0038491 0 894 10228 -1.69617e-05 -7.89764e-06 -0.000271497 5.06495e-09 1.00828e-06 
0 0 0 0.00148696 -0.182009 0.000512496 0 894 1886 -9.40229e-05 1.67461e-05 -0.000534898 7.13976e-09 1.42167e-06 
0 0 0 0.00076141 -0.155951 -0.00047599 0 894 11759 1.47495e-07 5.32097e-07 1.10432e-06 1.07998e-10 2.14857e-08 
0 0 0 0.00299578 -0.0949649 0.00570351 0 894 2038 5.22619e-06 0.000114942 -5.24008e-05 6.24108e-10 1.24172e-07 
0 0 0 0.0114097 -0.0947263 0.0021142 0 894 9729 9.56847e-06 0.00037598 -1.81004e-05 3.48165e-10 6.92682e-08 
0 0 0 0.0034108 -0.0620158 -0.00327004 0 894 9674 -4.79281e-05 1.0005e-06 -9.58771e-05 2.77793e-09 5.52843e-07 
0 0 0 0.00129624 -0.0835295 -0.0025429 0 894 9689 -8.10045e-06 9.80286e-05 -0.000196725 4.03356e-09 8.02853e-07 
0 0 0 0.021513 -0.0899342 0.00201277 0 894 9013 -0.000187831 0.000169106 -8.14845e-05 1.74508e-09 3.47248e-07 
0 0 0 -0.0226186 -0.0534059 -0.00643888 0 894 1615 -0.000254401 0.000233362 -0.00105209 1.19377e-08 2.37847e-06 
0 0 0 0.00173302 -0.0536485 0.000240048 0 894 8374 4.18267e-05 8.61131e-05 -0.000465928 6.53743e-09 1.30164e-06 
0 0 0 0.0132018 -0.0816342 0.00156875 0 894 6690 -1.04786e-05 1.71837e-05 -4.02532e-05 1.01319e-09 2.01593e-07 
0 0 0 -0.00719906 -0.193466 -0.00723878 0 894 9923 -9.64318e-06 -2.34496e-06 8.67719e-06 1.54223e-09 3.06875e-07 
0 0 0 -0.0429554 -0.196618 -0.0029332 0 894 12347 2.12621e-05 4.87345e-06 -5.93432e-05 2.13699e-09 4.25254e-07 
0 0 0 -0.0157769 -0.0380694 -0.0129156 0 894 10055 5.87524e-05 2.56203e-05 -0.000128191 4.59568e-09 9.14804e-07 
0 0 0 0.0339005 -0.0776198 -0.00745316 0 894 8194 -3.02167e-05 7.57575e-05 -0.000429565 7.08626e-09 1.41101e-06 
0 0 0 0.00409715 -0.0683015 0.00421044 0 894 9361 -4.15946e-05 0.000158801 -0.000328317 4.68676e-09 9.32944e-07 
0 0 0 0.0167419 -0.0848644 -0.00902845 0 894 6494 -4.40728e-05 0.000121912 -0.00015259 4.36346e-09 8.68555e-07 
0 0 0 -0.00652333 -0.151677 -0.00128334 0 894 12348 -1.4661e-05 5.36862e-05 -0.000159284 3.38753e-09 6.74212e-07 
0 0 0 -0.0516322 -0.0359131 -0.0331178 0 894 8044 8.61221e-05 5.70012e-05 0.000206554 2.57074e-09 5.11597e-07 
0 0 0 0.00378163 -0.038302 -0.00188509 0 894 6756 -2.21729e-05 1.24162e-05 -0.000181235 3.75319e-09 7.47023e-07 
0 0 0 0.0710811 -0.227117 0.000363456 0 894 7670 -9.8401e-06 3.37016e-05 -7.02175e-05 1.80296e-09 3.58767e-07 
0 0 0 0.0117263 -0.169973 -0.000871388 0 894 12916 1.96166e-07 1.07416e-06 2.18385e-06 1.83657e-10 3.65382e-08 
0 0 0 -0.0383624 -0.191892 -0.00225342 0 894 11644 -1.93132e-05 -1.46977e-05 -9.01577e-05 2.53789e-09 5.05056e-07 
0 0 0 0.00193806 -0.125782 -0.00115169 0 894 3011 -8.5596e-06 1.53576e-05 -4.86757e-05 1.65005e-09 3.28334e-07 
0 0 0 -0.0257497 -0.0285164 -0.0338365 0 894 11936 0.00084133 0.000325537 -0.00170099 1.86669e-08 3.72232e-06 
0 0 0 -0.0399293 -0.0386406 -0.0039572 0 894 24 0.000223384 0.00013003 -0.000516945 7.48214e-09 1.48991e-06 
0 0 0 -0.0109962 -0.0341124 0.00675108 0 894 10655 -1.13874e-05 8.37728e-05 -0.000405346 5.19007e-09 1.0332e-06 
0 0 0 0.0355664 -0.0475095 -0.00410071 0 894 12413 -5.16964e-05 0.000103176 -0.000230806 4.64089e-09 9.23809e-07 
0 0 0 -0.0401197 -0.137296 -0.00153945 0 894 2065 2.01937e-05 2.0589e-05 -0.000101581 2.60745e-09 5.18905e-07 
0 0 0 -0.0342964 -0.24929 -0.00467618 0 894 3111 -6.98679e-07 3.80158e-06 3.28677e-06 1.13933e-09 2.26696e-07 
0 0 0 0.0120963 -0.045742 -0.00562514 0 894 8955 -5.43339e-07 5.06883e-06 1.01957e-05 1.15622e-09 2.30055e-07 
0 0 0 -0.0164361 -0.28389 0.0138722 0 894 5474 0.000411256 0.00025348 -0.00120071 1.09727e-08 2.18594e-06 
0 0 0 -0.0263458 -0.314212 0.00235043 0 894 12426 0.000108346 0.000607689 -0.000761191 8.85496e-09 1.76358e-06 
0 0 0 -0.0602086 -0.237105 -0.0145056 0 894 6400 2.35168e-05 0.000357549 -0.000716643 1.02931e-08 2.05037e-06 
0 0 0 -0.0149643 -0.0559679 -0.00223108 0 894 4059 0.000264531 -7.43497e-05 -0.000703234 8.87514e-09 1.76761e-06 
0 0 0 0.0286061 -0.0443164 0.0022756 0 894 11913 -3.20384e-05 1.72741e-05 -7.27971e-05 1.54966e-09 3.08355e-07 
0 0 0 0.0285215 -0.0391038 -0.000977317 0 894 6783 -6.99657e-05 0.000270617 -0.00055903 7.52086e-09 1.49763e-06 
0 0 0 -0.00517104 -0.0512115 -0.00292745 0 894 3265 4.68928e-05 0.000203985 -0.000425796 6.52408e-09 1.29898e-06 
0 0 0 0.0344635 -0.206503 0.00326794 0 894 13604 -0.00019578 5.8376e-05 -0.000178334 3.0216e-09 6.01354e-07 
0 0 0 0.0156984 -0.0911922 -0.00927454 0 894 1877 4.94608e-05 -8.55102e-06 -6.40692e-05 3.20684e-09 6.38235e-07 
0 0 0 0.0166159 -0.0821061 -0.000143714 0 894 58 0.000105212 0.000202701 -0.000456758 6.49522e-09 1.29323e-06 
0 0 0 -0.0158316 -0.158841 -0.00766175 0 894 9967 1.62468e-05 0.00274183 -8.69109e-05 3.29889e-09 6.56563e-07 
0 0 0 -0.0241724 -0.120566 0.00233668 0 894 7687 1.12982e-05 1.22617e-05 -3.33466e-05 7.19649e-10 1.43182e-07 
0 0 0 -0.0221676 -0.0377659 -0.0147996 0 894 9582 5.15991e-06 1.02589e-07 7.04515e-05 1.62447e-09 3.23244e-07 