ITEM: TIMESTEP
39200000
ITEM: NUMBER OF ATOMS
2640
ITEM: BOX BOUNDS ff ff ff
-0.01 0.45
-0.15 0.15
-0.08 0.1
ITEM: ATOMS id type x y z ix iy iz vx vy vz fx fy fz c_cc_1 c_cc_2 c_cc_3 c_cc_4 c_cc_5 c_cc_6 c_cc_7 c_cc_8 c_cc_9 c_cc_10 c_cc_11 c_cc_12 c_cc_13 c_cc_14 c_cc_15 c_cc_16 f_fppacc 
37882 4 0.0166966 -0.00475021 -0.0556651 0 0 0 -0.063322 9.35855 -0.854506 0.0667805 0.038243 0.443136 0 0 0 1 0 0 0 0 0 0 0 0 0 0 0 0 16 
38489 16 0.0337909 -0.00293726 -0.044658 0 0 0 -0.00121036 22.3305 -1.46898 0.00204661 0.0192226 0.305683 0 0 0 0 0 0 0 0 0 0 0 0 0 0 0 0 1 
36798 8 0.042553 -0.0082531 -0.054927 0 0 0 1.13417 10.4181 -2.02135 -0.112507 -0.21025 0.00446053 0 0 0 0 0 0 0 1 0 0 0 0 0 0 0 0 25 
38610 14 0.00661205 -0.0375062 -0.0371118 0 0 0 0.334827 4.61548 -2.48165 0 -0.000206096 0 0 0 0 0 0 0 0 0 0 0 0 0 0 0 0 0 0 
38466 16 0.0149368 -0.0272745 -0.0385792 0 0 0 -0.323568 7.36114 -7.8821 0 -0.000268494 0 0 0 0 0 0 0 0 0 0 0 0 0 0 0 0 0 1 
38492 8 0.0280556 -0.017575 -0.0413825 0 0 0 0.00395852 20.6964 -8.78721 -0.00343237 0.125574 0.281265 0 0 0 0 0 0 0 1 0 0 0 0 0 0 0 0 1 
11811 8 0.026333 -0.0153085 -0.0524906 0 0 0 -0.0200291 26.2166 -7.61392 0.198337 0.286367 0.499699 0 0 0 0 0 0 0 3 0 0 0 0 0 0 0 0 410 
38449 12 0.0272189 -0.00972801 -0.0540597 0 0 0 -0.00372969 27.0224 -4.88411 -0.00236466 0.0579824 0.310937 0 0 0 0 0 0 0 1 0 0 0 1 0 0 0 0 9 
31246 16 0.0297346 -0.00423609 -0.0544417 0 0 0 -0.000451776 27.2281 -2.1003 -0.000435894 0.0286988 0.374127 0 0 0 0 0 0 0 0 0 0 0 1 0 0 0 0 98 
38426 4 0.0221336 -0.0031992 -0.049606 0 0 0 -0.1738 19.4859 0.522618 -0.185181 -0.0761019 -0.305653 0 0 0 0 0 0 0 0 0 0 0 0 0 0 0 0 0 
1152 15 0.0216509 -0.0265747 -0.0467027 0 0 0 -0.0342686 23.3433 -13.2314 -0.0858924 0.154814 0.0145376 0 0 0 0 0 0 0 0 0 0 0 0 0 0 2 0 1783 
38602 14 0.0100904 -0.0318517 -0.0454863 0 0 0 -5.70587 11.4502 -7.94109 0.0685726 0.0864897 0.126023 0 0 0 0 0 0 0 0 0 0 0 0 0 0 0 0 0 
1027 11 0.0240886 -0.0221373 -0.0522407 0 0 0 -0.0209995 26.4163 -11.5272 -0.496731 3.42798 -3.24382 0 0 0 0 0 0 0 1 0 0 2 0 0 0 1 0 2821 
24 14 0.0234186 -0.0226438 -0.047622 0 0 0 0.0031941 23.8075 -11.2719 -0.0218078 0.134655 0.0842002 0 0 0 0 0 0 0 0 0 0 1 0 0 1 1 0 3980 
58 1 0.0248668 -0.0171318 -0.0486599 0 0 0 -0.0252991 24.283 -8.55232 0.0132466 0.0222947 0.280262 0 0 0 0 0 0 0 2 0 0 1 0 0 1 0 0 2398 
38446 16 0.0095048 -0.0451623 -0.0317521 0 0 0 0.617065 2.19789 -2.99042 -0.00522281 -0.0359599 0.0100202 0 0 0 0 0 0 0 0 0 0 0 0 0 0 0 1 4 
38551 12 0.0378756 -0.0555574 -0.000287635 0 0 0 -9.6254 1.14372 -20.6719 -0.272141 -1.05877 -0.0859284 0 0 0 0 0 0 0 0 0 0 0 0 0 0 0 0 0 
38398 14 0.00885658 -0.0492319 -0.0234296 0 0 0 1.97172 3.31277 -2.13331 0.000804234 0.0118224 -0.00917733 0 0 0 0 0 0 0 0 0 0 0 0 0 0 0 1 2 
37098 8 0.0198836 -0.0434782 -0.0291812 0 0 0 3.80573 4.2265 -12.7989 0 -0.000268443 0 0 0 0 0 0 0 0 0 0 0 0 0 0 0 0 0 14 
38604 8 0.0302343 -0.0516484 -0.0203472 0 0 0 -4.9105 3.40894 -8.81974 0.00704106 0.0760297 0.0322529 0 0 0 0 0 0 0 0 0 0 0 0 0 0 0 0 0 
38310 14 0.00671103 -0.0537091 -0.0140565 0 0 0 -1.92377 2.66623 -10.2293 0.00709101 0.0813996 0.0232002 0 0 0 0 0 0 0 0 0 0 0 0 0 0 0 0 1 
38612 15 0.00670678 -0.0554815 -0.00169386 0 0 0 0.370473 0.209064 -8.18771 0.0338994 0.0527491 0.0029588 0 0 0 0 0 0 0 0 0 0 0 0 0 0 0 0 0 
38366 16 0.0104612 -0.0547167 0.0071936 0 0 0 1.89568 -2.50075 -7.89851 0 -0.000268494 0 0 0 0 0 0 0 0 0 0 0 0 0 0 0 0 0 4 
22235 16 0.0459965 -0.0342472 0.00401772 0 0 0 0.298915 -2.33782 -17.6115 0.365918 -0.154914 -0.177165 0 0 0 0 0 0 0 0 0 0 0 0 0 0 0 2 210 
385 16 0.0472744 -0.0547424 0.00384706 0 0 0 -0.00194318 -1.92791 -27.3733 -5.96904e-05 0.374628 -0.0264503 0 0 0 0 0 0 0 0 0 0 0 0 0 0 0 1 2843 
38613 15 0.0461053 -0.0548993 -0.00866463 0 0 0 -5.93588 3.01364 -17.742 -0.0695306 -1.03785 0.0121145 0 0 0 0 0 0 0 0 0 0 0 0 0 0 0 0 0 
28140 8 0.0464933 -0.0507504 -0.0168202 0 0 0 -11.1683 4.39936 -19.9412 0.0249863 -0.170464 -0.106286 0 0 0 0 0 0 0 1 0 0 0 0 0 0 0 0 260 
20630 6 0.0429504 -0.0410321 0.00853789 0 0 0 0.942854 -5.0721 -24.6635 69.6369 2.45659 12.4417 0 0 0 0 0 0 0 0 0 0 0 0 0 0 0 1 195 
965 11 0.0444351 -0.0542635 0.00852799 0 0 0 -0.00780127 -4.27766 -27.1208 1.13121e-05 0.242839 -0.0384087 0 0 0 0 0 0 0 0 0 0 1 0 0 0 0 1 4073 
27809 14 0.0394774 -0.0308523 0.00967745 0 0 0 0.0117926 -4.88091 -15.3744 0.064769 -0.145787 -0.0973524 0 0 0 0 0 0 0 0 0 0 0 0 0 0 0 1 37 
38428 16 0.0437321 -0.0154456 0.0530285 0 0 0 -5.69961 -12.0562 -3.50737 -0.0310013 0.0419907 -0.135968 0 0 0 0 0 0 0 0 0 0 0 0 0 0 0 0 0 
38512 14 0.0147138 -0.00941362 0.0527565 0 0 0 0.0672997 -4.69909 -0.926405 0 -0.000206096 0 0 0 0 0 0 0 0 0 0 0 0 0 0 0 0 0 3 
38377 15 0.014925 -0.0211713 0.0497219 0 0 0 -4.42569 -7.14905 -2.93416 0.0225211 0.0936575 -0.0156956 0 0 0 0 0 0 0 0 0 0 0 0 0 0 1 0 1 
38395 12 0.0157362 -0.0533078 0.0155002 0 0 0 4.6571 -2.43999 -8.50138 0.0233389 0.044365 -0.0139193 0 0 0 0 0 0 0 0 0 0 0 0 0 0 0 0 4 
38614 16 0.0259409 -0.0533989 0.0141292 0 0 0 -5.30188 -3.48818 -13.007 0.0217881 0.199543 -0.0493591 0 0 0 0 0 0 0 0 0 0 0 0 0 0 0 0 0 
38569 15 0.020475 -0.00271915 0.0460356 0 0 0 3.35297 -10.3301 2.14105 0 -0.000216769 0 0 0 0 0 0 0 0 0 0 0 0 0 0 0 0 0 0 
38619 12 0.0219278 -0.0129745 0.0472354 0 0 0 -0.0244168 -6.52059 -0.0114953 0 -0.000227443 0 0 0 0 0 0 0 0 0 0 0 0 0 0 0 0 0 0 
38361 12 0.015099 -0.0286614 0.0388606 0 0 0 -3.77086 -9.87994 -4.16698 0 -0.000227443 0 0 0 0 0 0 0 0 0 0 0 0 0 0 0 0 0 4 
16581 4 0.0409518 -0.0533935 0.0138303 0 0 0 0.000867499 -6.9142 -26.6965 7.27216e-06 0.309408 -0.080129 0 0 0 1 0 0 0 0 0 0 0 0 0 0 0 0 277 
38625 8 0.0117906 -0.029182 0.0472293 0 0 0 -5.04733 -6.45038 -4.20881 -0.00151449 -0.0757326 0.0391694 0 0 0 0 0 0 0 0 0 0 0 0 0 0 1 0 1 
22977 16 0.0391093 -0.0414409 0.0167497 0 0 0 0.18984 -8.37175 -20.7323 -0.108327 0.311548 -0.0277791 0 0 0 0 0 0 0 0 0 0 0 0 0 0 0 1 188 
1201 8 0.0368453 -0.0493589 0.0205546 0 0 0 -0.00298932 -10.276 -24.6905 -0.00325536 0.317228 -0.145546 0 0 0 0 0 0 0 0 0 0 0 0 0 0 0 1 1950 
38122 14 0.0145709 -0.0321458 0.0234285 0 0 0 -2.64836 -4.46763 -9.50981 0 -0.000206096 0 0 0 0 0 0 0 0 0 0 0 0 0 0 0 0 0 8 
38383 8 0.0188624 -0.046074 0.0310012 0 0 0 -6.74864 -7.88604 -12.1463 0.0338364 0.180113 -0.116329 0 0 0 0 0 0 0 0 0 0 0 0 0 0 0 0 2 
38391 16 0.0147857 -0.0377048 0.0315611 0 0 0 -5.92531 -8.19181 -9.81325 0 -0.000268494 0 0 0 0 0 0 0 0 0 0 0 0 0 0 0 0 0 4 
38287 12 0.00796931 -0.0435739 0.0343987 0 0 0 -6.91939 -6.50989 -8.55801 0.00836337 -0.0262485 0.0123781 0 0 0 0 0 0 0 0 0 0 0 0 0 0 0 0 1 
18622 14 0.000694913 -0.00348544 0.0584637 0 0 0 -1.65953e-15 3.25743e-15 2.01754e-15 1.83742e-14 7.54952e-15 1.77636e-14 0 0 0 0 0 0 0 0 0 0 0 0 0 0 0 0 50 
38456 8 0.0233194 -0.00666915 0.0551301 0 0 0 0.65436 -4.96311 -0.842448 -0.0552812 0.0617934 0.0350658 0 0 0 0 0 0 0 1 0 0 0 0 0 0 0 0 4 
38616 16 0.0164313 -0.000443885 0.0552211 0 0 0 0.0476259 -4.73647 -0.361548 0.0460483 -0.0487376 -0.0129048 0 0 0 0 0 0 0 1 0 0 0 0 0 0 0 0 1 
38480 14 0.0131471 0.0164376 -0.0554987 0 0 0 3.16957 11.8876 0.00186989 0 -0.000206096 0 0 0 0 0 0 0 0 0 0 0 0 0 0 0 0 0 2 
38609 12 0.0261361 0.0203877 -0.0556121 0 0 0 1.24363 6.54986 0.928075 -0.039937 0.24499 0.208524 0 0 0 0 0 0 0 0 0 0 0 0 0 0 0 0 0 
34546 12 0.0332444 0.0150347 -0.055479 0 0 0 -0.20585 4.51069 0.715541 0.188048 -0.165507 0.128087 0 0 0 0 0 0 0 0 0 0 0 0 0 0 0 0 98 
38586 8 0.033691 0.0248445 -0.0526829 0 0 0 1.94052 8.81033 1.42811 0 -0.000268443 0 0 0 0 0 0 0 0 0 0 0 0 0 0 0 0 0 0 
38092 12 0.0462482 0.0189119 -0.0544043 0 0 0 1.72791 2.11005 2.17143 0.267888 0.430697 0.092915 0 0 0 0 0 0 0 0 0 0 0 2 0 0 0 0 9 
26944 15 0.001 0.0271528 -0.0546342 0 0 0 -1.21756e-14 1.08184e-20 1.78417e-19 0 1.89735e-19 -1.28771e-19 0 0 0 0 0 0 0 0 0 0 0 0 0 0 0 0 41 
38595 16 0.0472918 0.027946 -0.055106 0 0 0 0.0701737 0.296489 -0.587791 0.0216396 0.2961 -0.272445 0 0 0 0 0 0 0 0 0 0 0 1 0 0 0 1 2 
38580 16 0.0311886 0.0362169 -0.0550782 0 0 0 -1.36214 -0.327953 0.74445 0.0419973 -0.195572 -0.0317541 0 0 0 0 0 0 0 0 0 0 0 0 0 0 0 2 2 
38388 8 0.0397089 0.0329881 -0.0555263 0 0 0 -0.826506 -0.281741 0.0677833 0.0285775 0.116997 0.0200889 0 0 0 0 0 0 0 0 0 0 0 0 0 0 0 2 6 
38590 12 0.0160079 0.0369147 -0.0552388 0 0 0 1.41242 -4.81371 1.59131 -0.074771 -0.0672673 -0.148998 0 0 0 0 0 0 0 0 0 0 0 1 0 0 0 0 1 
38530 16 0.0237117 0.0419541 -0.0552246 0 0 0 -1.05047 0.0778907 0.271805 0.531709 -0.348466 -0.220685 0 0 0 0 0 0 0 0 0 0 0 1 0 0 0 3 4 
38543 12 0.0404483 0.0079693 -0.0555533 0 0 0 -0.107125 10.6905 -0.371918 -0.65684 -1.43435 -0.116897 0 0 0 0 0 0 0 0 0 0 0 1 0 0 0 0 2 
37526 4 0.0061991 0.0467537 -0.0547442 0 0 0 0.0146184 -1.19337 1.14278 -0.00179487 0.000666176 8.32316e-05 0 0 0 0 0 0 0 0 0 0 0 0 0 0 0 0 10 
38575 12 0.0332602 0.0452277 -0.0547045 0 0 0 1.07812 -0.349157 1.26195 -0.0101886 -0.0773179 0.00662143 0 0 0 0 0 0 0 0 0 0 0 1 0 0 0 1 2 
38558 6 0.0232594 0.0507566 -0.055872 0 0 0 -0.392258 0.147602 0.135773 -0.0252319 -0.200479 -0.00199842 0 0 0 0 0 2 0 0 0 0 0 0 0 0 0 1 3 
38516 16 0.0409191 0.0513816 -0.0551849 0 0 0 -0.66881 -0.481797 0.0422062 0 -0.000268494 0 0 0 0 0 0 0 0 0 0 0 0 0 0 0 0 0 2 
37805 7 0.00618117 0.0552511 -0.0552443 0 0 0 0.0826047 -0.935146 -0.0209655 -0.00255653 -0.011834 -0.0190013 0 0 0 0 0 0 1 0 0 0 0 0 0 0 0 0 8 
36695 6 0.0145271 0.055466 -0.0558092 0 0 0 0.199821 -1.72357 -0.0699089 -0.024478 0.00535592 -0.0938085 0 0 0 0 0 1 1 0 0 0 0 0 0 0 0 0 36 
38565 12 0.0236559 0.0592447 -0.0555034 0 0 0 1.4594 0.22554 0.271066 -0.016731 -0.0165354 0.0383815 0 0 0 0 0 1 0 0 0 0 0 1 0 0 0 0 2 
37985 8 0.0316381 0.053999 -0.0550809 0 0 0 2.28692 0.302681 0.0275449 0.0050392 -0.10311 -0.098103 0 0 0 0 0 0 0 1 0 0 0 1 0 0 0 0 11 
38245 12 0.00695006 0.0639329 -0.0545837 0 0 0 0.424248 -0.696541 -0.474112 0.000619984 -0.00036162 -0.0015475 0 0 0 0 0 0 0 0 0 0 0 1 0 0 0 0 4 
38148 16 0.0325118 0.0631697 -0.0551016 0 0 0 0.809485 0.70102 -0.664995 0.073081 -0.170606 -0.343746 0 0 0 0 0 0 0 1 0 0 0 0 0 0 0 1 3 
37973 4 0.040166 0.059669 -0.0514801 0 0 0 -0.213895 -0.895597 1.52605 0 -0.000227392 0 0 0 0 0 0 0 0 0 0 0 0 0 0 0 0 0 4 
38289 14 0.0240578 0.0680167 -0.0548071 0 0 0 0.691398 0.420532 0.547736 0.0585267 0.0202299 -0.0347243 0 0 0 0 0 0 0 0 0 0 0 1 0 3 0 0 10 
37829 8 0.0406159 0.0686014 -0.0555393 0 0 0 0.0463109 -0.356854 -0.083385 -0.058897 -0.0371044 -0.018293 0 0 0 0 0 0 0 2 0 0 0 0 0 0 0 0 22 
36794 14 0.00649622 0.073105 -0.055511 0 0 0 -0.204092 -0.505178 -0.0274062 -4.04113e-05 0.0612768 0.0507652 0 0 0 0 0 0 0 0 0 0 0 0 0 2 0 0 24 
34979 16 0.03208 0.0726928 -0.0549504 0 0 0 -0.0148568 1.06506 -0.137786 0.0304638 -0.109407 -0.155475 0 0 0 0 0 0 0 0 0 0 0 0 0 1 0 1 109 
36118 14 0.0424241 0.0132503 -0.0489493 0 0 0 -0.839881 7.36537 3.36852 -0.229969 -0.262464 0.940437 0 0 0 0 0 0 0 0 0 0 0 2 0 1 0 0 66 
38392 16 0.0173783 0.0299705 -0.0443711 0 0 0 0.411556 5.03937 8.95653 0 -0.000268494 0 0 0 0 0 0 0 0 0 0 0 0 0 0 0 0 0 2 
38423 14 0.0391939 0.0289275 -0.0466265 0 0 0 0.502174 3.68962 4.1797 0 -0.000206096 0 0 0 0 0 0 0 0 0 0 0 0 0 0 0 0 0 3 
38518 8 0.0232722 0.0341131 -0.0502621 0 0 0 -0.908917 1.99151 4.52194 -0.0319635 0.0605912 -0.0644782 0 0 0 0 0 0 0 0 0 0 0 0 0 0 0 1 1 
38591 14 0.0385297 0.0395523 -0.0474159 0 0 0 -0.286275 -0.711526 1.71361 -0.00570271 0.00238607 0.0062509 0 0 0 0 0 0 0 0 0 0 0 0 0 0 0 0 0 
38571 16 0.0465858 0.0457013 -0.0489704 0 0 0 -0.47275 0.627749 1.51579 0 -0.000268494 0 0 0 0 0 0 0 0 0 0 0 0 0 0 0 0 0 0 
38233 15 0.0167604 0.0468637 -0.0517439 0 0 0 2.07438 -4.25562 2.38109 -1.03878 0.316525 0.689843 0 0 0 0 0 1 0 0 0 0 0 0 0 0 0 1 8 
38513 12 0.0083403 0.0530774 -0.046982 0 0 0 1.15803 -1.18886 -0.0582562 0 -0.000227443 0 0 0 0 0 0 0 0 0 0 0 0 0 0 0 0 0 2 
37875 12 0.0161883 0.0614176 -0.0497323 0 0 0 -0.515031 -2.65176 0.37694 0.100586 -0.361786 -0.191668 0 0 0 0 0 1 0 0 0 0 0 2 0 0 0 0 8 
37272 8 0.0307521 0.0674811 -0.0471749 0 0 0 -0.517302 -0.723739 -1.26397 0.212026 -0.0282291 -0.0791182 0 0 0 0 0 0 0 3 0 0 0 0 0 0 0 1 17 
37868 12 0.0316777 0.0735835 -0.0408108 0 0 0 1.29852 -1.18965 -1.57732 0.0163378 0.0242793 0.0553427 0 0 0 0 0 0 0 1 0 0 0 4 0 0 0 0 19 
36812 15 0.00661777 0.0707917 -0.0468525 0 0 0 -0.904276 -1.48696 -0.257869 -0.185657 -0.00977481 0.0106822 0 0 0 0 0 0 0 0 0 0 0 0 0 1 3 0 27 
37356 12 0.0161864 0.0703695 -0.0514035 0 0 0 -0.873278 -1.60968 -0.906482 -0.0278831 -0.101111 -0.0619035 0 0 0 0 0 0 0 0 0 0 0 2 0 1 0 0 18 
38112 4 0.038858 0.070674 -0.0473588 0 0 0 0.0201567 -1.02794 -0.0496242 -0.00624956 -0.0718894 -0.0139784 0 0 0 3 0 0 0 1 0 0 0 0 0 0 0 0 9 
37874 12 0.0471683 0.074035 -0.0464741 0 0 0 0.0200927 -0.536546 0.0968362 -0.00865277 -0.0282339 0.0138417 0 0 0 0 0 0 0 0 0 0 0 2 0 0 0 0 17 
38096 14 0.0302234 0.0291936 -0.038402 0 0 0 0.778748 -0.0803204 6.97283 0 -0.000206096 0 0 0 0 0 0 0 0 0 0 0 0 0 0 0 0 0 7 
38548 16 0.0139524 0.0377195 -0.0386005 0 0 0 9.28914 9.49572 10.2707 0.0615623 0.0887174 -0.00115256 0 0 0 0 0 0 0 0 0 0 0 0 0 0 0 2 2 
2590 12 0.000859114 0.0411564 -0.0462248 0 0 0 8.50373e-14 2.49921e-07 8.23916e-08 1.03029e-13 -1.27953e-07 -4.21825e-08 0 0 0 0 0 0 0 0 0 0 0 0 0 0 0 0 820 
38078 12 0.0188325 0.0452431 -0.0410514 0 0 0 11.6062 8.01264 7.3835 -0.00243236 -0.0802107 0.0497775 0 0 0 0 0 0 0 0 0 0 0 0 0 0 0 1 5 
38568 14 0.0313729 0.0441297 -0.0444484 0 0 0 -0.736695 -0.691277 0.940375 0.00255689 0.00887761 -0.00827015 0 0 0 0 0 0 0 0 0 0 0 0 0 1 0 0 1 
38047 8 0.0285184 0.0524597 -0.0463068 0 0 0 -0.339369 -0.629767 -0.336184 0.000380624 -0.00980004 0.00236238 0 0 0 0 0 0 0 1 0 0 0 0 0 1 0 0 6 
38529 12 0.0171231 0.0562851 -0.0423692 0 0 0 0.438793 -1.9244 0.576678 -0.0157 -0.00324275 0.0139174 0 0 0 0 0 0 0 0 0 0 0 1 0 0 0 0 1 
38465 8 0.0370677 0.0547678 -0.0445921 0 0 0 -0.319032 -1.10461 1.27249 -0.121757 -0.0442652 -0.193085 0 0 0 0 0 0 0 0 0 0 0 0 0 0 0 0 4 
38184 14 0.00664642 0.0618774 -0.0458333 0 0 0 0.229576 -1.52442 -0.65079 0.000532256 -0.0385218 0.00633662 0 0 0 0 0 0 0 0 0 0 0 1 0 0 1 0 6 
38532 16 0.0245134 0.0608127 -0.0456988 0 0 0 -0.436834 -0.5912 0.494584 0.0150026 -0.0599446 0.0257751 0 0 0 0 0 0 0 2 0 0 0 2 0 0 0 0 5 
38455 8 0.0398486 0.0631917 -0.0431698 0 0 0 -0.516 -1.45818 0.0287008 0.109408 -0.011035 0.162178 0 0 0 1 0 0 0 1 0 0 0 0 0 0 0 0 3 
38343 16 0.01637 0.065553 -0.041493 0 0 0 1.85948 -1.56577 -1.61422 -0.321758 0.0697303 0.0067797 0 0 0 0 0 0 0 0 0 0 0 1 0 0 0 2 3 
37625 12 0.0227179 0.0710529 -0.0452754 0 0 0 1.35468 -2.30038 -2.60015 -0.0822343 0.0918349 -0.102093 0 0 0 0 0 0 0 1 0 0 0 1 0 0 0 1 21 
38535 8 0.024744 0.00956041 -0.0554802 0 0 0 -5.88679 21.5157 0.207202 0 -0.000268443 0 0 0 0 0 0 0 0 0 0 0 0 0 0 0 0 0 2 
37697 8 0.0376566 0.0364699 -0.0354293 0 0 0 0.990565 6.40433 1.86489 -0.182494 0.0487538 0.153725 0 0 0 0 0 0 0 0 0 0 0 0 0 0 0 0 13 
38417 8 0.0459361 0.034644 -0.0380599 0 0 0 0.598235 2.7739 1.436 0.182494 -0.0492907 -0.153725 0 0 0 0 0 0 0 0 0 0 0 0 0 0 0 0 2 
38373 14 0.0338786 0.0446423 -0.0354603 0 0 0 2.48195 6.21312 2.00245 0 -0.000206096 0 0 0 0 0 0 0 0 0 0 0 0 0 0 0 0 0 1 
37998 14 0.0349769 0.0670551 -0.0355266 0 0 0 0.980386 -2.57308 -2.92772 -0.0766576 -0.156498 -0.0678372 0 0 0 0 0 0 0 0 0 0 0 0 0 2 0 0 13 
38062 4 0.0129285 0.0712143 -0.0356501 0 0 0 1.31627 -0.763088 -2.59629 -0.0728665 0.178982 0.51268 0 0 0 3 0 0 0 0 0 0 0 0 0 0 0 1 12 
38137 8 0.0312052 0.0587714 -0.0389513 0 0 0 -0.222835 -0.190468 0.237761 0 -0.000268443 0 0 0 0 0 0 0 0 0 0 0 0 0 0 0 0 0 4 
37815 16 0.0409269 0.0572673 -0.0361281 0 0 0 2.18461 0.632861 1.54085 0.0395447 0.028311 0.0571899 0 0 0 0 0 0 0 1 0 0 0 0 0 0 0 0 9 
38523 14 0.00975146 0.0599063 -0.0352259 0 0 0 9.49461 5.60592 0.23616 5.31775 4.83255 -2.90673 0 0 0 0 0 0 0 0 0 0 0 0 0 2 0 0 2 
32179 4 0.0061894 0.0674283 -0.0388768 0 0 0 0.0754572 -1.67405 -0.14999 0.0290809 0.0205588 0.0247593 0 0 0 0 0 0 0 0 0 0 0 0 0 0 1 0 129 
38493 12 0.0263384 0.0665693 -0.038028 0 0 0 1.09724 -2.64616 -1.49501 0.093488 -0.216616 -0.239647 0 0 0 0 0 0 0 0 0 0 0 1 0 0 0 0 1 
37866 8 0.0404079 0.073104 -0.0392098 0 0 0 0.937291 -1.03463 -0.788159 0.0294716 -0.0486255 0.0346208 0 0 0 1 0 0 0 2 0 0 0 1 0 1 0 0 31 
37911 8 0.0474433 0.0676699 -0.0401482 0 0 0 0.662996 -1.25072 -0.470398 0.128364 -0.0819944 0.015233 0 0 0 0 0 0 0 1 0 0 0 1 0 0 0 0 9 
38594 15 0.0474578 0.0377108 -0.0549197 0 0 0 -0.334455 -0.0705362 0.407951 0 -0.000216769 0 0 0 0 0 0 0 0 0 0 0 0 0 0 0 0 0 0 
38603 14 0.0104198 0.00110055 -0.0555812 0 0 0 -1.2399 10.5172 0.423558 0.0382059 0.00235379 0.354337 0 0 0 0 0 0 0 0 0 0 0 0 0 1 0 0 1 
37830 8 0.0474988 0.0584953 -0.0435263 0 0 0 -0.000323397 -0.235003 -2.56638 0.0228246 -0.0262577 0.0113874 0 0 0 0 0 0 0 0 0 0 0 0 0 0 0 0 10 
37838 16 0.0310797 0.000997558 -0.0543685 0 0 0 -0.00234683 27.1766 0.493168 9.54978e-05 -0.00665335 0.371444 0 0 0 0 0 0 0 0 0 0 0 0 0 0 0 0 5 
3709 16 0.00921963 0.0489897 -0.0214448 0 0 0 0.281285 10.7041 24.3592 -0.0220678 -0.31583 0.116558 0 0 0 0 0 0 0 0 0 0 0 0 0 0 0 3 852 
38596 16 0.00546947 0.0538122 -0.0309136 0 0 0 22.3353 17.6766 -4.97633 -26.4219 -16.7827 26.2839 0 0 0 0 0 0 0 0 0 0 0 0 0 0 0 2 2 
34964 15 0.0111426 0.0522697 -0.0176104 0 0 0 -0.089616 8.82664 26.188 -0.0207104 -0.292769 0.0887507 0 0 0 0 0 0 0 0 0 0 0 0 0 0 2 1 126 
38578 16 0.0242493 0.05008 -0.0292984 0 0 0 1.0652 0.239361 8.33448 -0.291207 -0.480763 -0.409583 0 0 0 0 0 0 0 0 0 0 0 0 0 0 0 1 1 
38505 8 0.0310212 0.0563004 -0.030259 0 0 0 -2.10464 -0.0853162 0.866797 0.291207 0.480226 0.409583 0 0 0 0 0 0 0 0 0 0 0 0 0 0 0 1 2 
37926 6 0.0149732 0.0646116 -0.030423 0 0 0 1.07174 -0.0929836 -0.537974 2.54129 3.16572 -1.57029 0 0 0 0 0 2 0 0 0 0 0 0 0 0 0 0 16 
38322 14 0.021189 0.0718442 -0.0330172 0 0 0 1.48716 -2.56895 -2.02752 -0.101452 -0.201207 -0.0787779 0 0 0 0 0 0 0 0 0 0 0 0 0 3 0 0 7 
38450 12 0.00715715 0.0403882 -0.0187061 0 0 0 2.04006 7.11588 14.9838 0.00874001 -0.0355281 0.0165888 0 0 0 0 0 0 0 0 0 0 0 0 0 0 0 1 2 
38024 12 0.0258315 0.041273 -0.0256719 0 0 0 -2.03171 2.45863 3.24042 0 -0.000227443 0 0 0 0 0 0 0 0 0 0 0 0 0 0 0 0 0 3 
38207 8 0.0412461 0.0481515 -0.0258319 0 0 0 5.54353 0.257947 3.45254 0.0203575 -1.29729 -3.58827 0 0 0 0 0 0 0 1 0 0 0 0 0 0 0 0 6 
37224 8 0.000680963 0.0506688 -0.0256008 0 0 0 -1.46364 0.0524288 3.75433 -0.671441 0.763399 1.74548 0 0 0 0 0 0 0 0 0 0 0 0 0 0 0 1 3 
2618 12 0.0134755 0.0533039 -0.012725 0 0 0 -0.00306116 6.36351 26.6598 -0.0014175 -0.310438 0.0743583 0 0 0 0 0 0 0 0 0 0 0 1 0 0 1 0 1643 
38623 16 0.00705613 0.0594131 -0.0255414 0 0 0 6.8399 26.7832 0.838485 -2.08776 -2.53862 -3.95351 0 0 0 0 0 0 0 0 0 0 0 0 0 0 0 1 1 
38303 16 0.0395584 0.0632719 -0.0283066 0 0 0 -0.195645 -2.0165 -0.981408 -0.0107597 -0.00199294 0.0333785 0 0 0 0 0 0 0 0 0 0 0 0 0 0 0 1 1 
38134 16 0.00680133 0.0684109 -0.0299039 0 0 0 0.72574 -4.31181 -2.35505 0.362528 -1.36758 0.890706 0 0 0 0 0 0 0 0 0 0 0 0 0 0 0 2 8 
37574 16 0.0236316 0.0642196 -0.0275664 0 0 0 0.711836 -2.91022 -0.288895 -0.129291 -0.297281 -0.186035 0 0 0 0 0 0 0 0 0 0 0 0 0 0 0 1 19 
38319 12 0.031754 0.0688999 -0.027435 0 0 0 0.650764 -2.03213 -2.58489 -0.108713 -0.053306 -0.0225699 0 0 0 0 0 0 0 0 0 0 0 3 0 0 0 0 7 
37412 8 0.0151311 0.0720325 -0.0261035 0 0 0 -0.86411 -0.652172 -0.648905 0.0578731 0.0524693 0.383044 0 0 0 0 0 1 0 1 0 0 0 0 0 0 0 0 25 
37895 16 0.0393896 0.0735749 -0.0293599 0 0 0 0.675969 -2.22045 -2.14408 -0.0137273 -0.0694719 -0.15436 0 0 0 0 0 0 0 0 0 0 0 1 0 0 0 2 18 
38476 16 0.0362346 0.0381721 -0.0175253 0 0 0 3.01595 5.6144 5.83585 0 -0.000268494 0 0 0 0 0 0 0 0 0 0 0 0 0 0 0 0 0 0 
38508 8 0.00462879 0.0486175 -0.0152656 0 0 0 -5.10158 2.94621 12.9666 0.28959 0.424724 0.449641 0 0 0 0 0 0 0 0 0 0 0 0 0 0 1 1 2 
38593 15 0.0331789 0.0454844 -0.0225231 0 0 0 2.43117 -1.58005 0.915797 0 -0.000216769 0 0 0 0 0 0 0 0 0 0 0 0 0 0 0 0 0 0 
295 3 0.0149009 0.0545663 -0.00810431 0 0 0 0.0389402 4.10419 27.3325 0.00312318 -0.239895 0.048414 0 0 1 0 0 0 0 0 0 0 0 1 0 0 0 0 3392 
38630 14 0.0249011 0.06159 -0.0169548 0 0 0 -0.372689 5.69664 9.02169 0 -0.000206096 0 0 0 0 0 0 0 0 0 0 0 0 0 0 0 0 0 0 
38541 8 0.00800596 0.0657414 -0.0213355 0 0 0 1.99961 17.2013 10.1141 -0.136915 2.7723 -0.0770883 0 0 0 0 0 0 0 0 0 0 0 0 0 0 0 2 3 
38468 8 0.0377448 0.0669291 -0.0199608 0 0 0 1.14135 -3.31628 0.188827 0.0173506 0.00742016 -0.0318882 0 0 0 0 0 0 0 1 0 0 0 0 0 0 0 1 2 
38337 14 0.0063584 0.0674723 0.00562469 0 0 0 1.24005 4.56273 -0.380563 0.0708174 -1.29357 0.076434 0 0 0 0 0 0 0 0 0 0 0 0 0 1 0 0 2 
38386 16 0.0257137 0.0702557 -0.0207163 0 0 0 0.567244 -1.45617 -2.00295 -0.0661192 0.0432947 0.185728 0 0 0 0 0 0 0 0 0 0 0 1 0 0 0 2 5 
38432 12 0.028617 0.0388859 -0.0114734 0 0 0 1.04494 -0.70481 3.59441 0 -0.000227443 0 0 0 0 0 0 0 0 0 0 0 0 0 0 0 0 0 0 
38592 14 0.0425755 0.0422363 -0.0119408 0 0 0 8.71355 -6.1626 -2.05215 -0.142792 0.284818 0.619801 0 0 0 0 0 0 0 0 0 0 0 0 0 1 0 0 1 
1068 8 0.0164589 0.0546021 -0.00368635 0 0 0 0.118673 1.85312 27.3292 -0.117483 -0.396025 0.0379739 0 0 1 0 0 0 0 1 0 0 0 0 0 0 0 0 4404 
1434 12 0.0184637 0.054709 0.00065757 0 0 0 2.92792 0.0544445 27.3792 -2.24702 -0.647253 -0.00602518 0 0 0 0 0 0 0 1 0 0 0 3 0 0 0 0 5485 
38369 16 0.0310413 0.0519942 -0.0162338 0 0 0 -1.9185 -1.98929 1.12928 0 -0.000268494 0 0 0 0 0 0 0 0 0 0 0 0 0 0 0 0 0 0 
38309 12 0.0433937 0.0498988 -0.0175561 0 0 0 4.97259 -2.14591 -4.22965 -0.0203575 1.2968 3.58827 0 0 0 0 0 0 0 1 0 0 0 0 0 0 0 0 3 
37006 8 0.00676043 0.0597063 -0.013497 0 0 0 -0.904314 2.66413 9.98101 -1.91947 3.26576 5.56899 0 0 0 0 0 0 0 1 0 0 0 0 0 0 0 0 34 
37347 8 0.009627 0.0692915 -0.0147466 0 0 0 3.63022 4.90927 7.14475 0.27472 2.36017 2.40045 0 0 0 0 0 0 0 2 0 0 0 0 0 0 0 0 17 
38607 8 0.0176807 0.0676755 -0.0176704 0 0 0 2.16159 -2.85089 3.38696 -1.00471 -0.0962589 0.924105 0 0 0 0 0 0 0 1 0 0 0 0 0 0 0 1 2 
38460 14 0.0145862 0.044787 -0.000704636 0 0 0 -0.0658951 0.334298 22.3941 0.0139361 -0.252909 0.0147165 0 0 0 0 0 0 0 0 0 0 0 0 0 2 0 0 4 
37259 16 0.0350234 0.0437954 -0.00613397 0 0 0 10.0619 -6.15367 4.0329 -0.00673126 0.00629172 -0.0387639 0 0 0 0 0 0 0 0 0 0 0 0 0 0 0 0 10 
38009 16 0.00666894 0.0492124 -0.00501071 0 0 0 -5.41905 2.81309 13.7578 0.360768 -0.733549 -1.75575 0 0 0 0 0 0 0 0 0 0 0 0 0 0 0 0 3 
1499 14 0.0208664 0.0536233 0.00590788 0 0 0 -0.216213 -3.22035 26.9825 -0.0362298 -0.19374 0.175172 0 0 0 0 0 0 0 0 0 0 0 1 0 3 0 0 4935 
38308 12 0.0466517 0.0490879 -0.00782193 0 0 0 14.1948 -8.32795 2.48536 -2.41204 -0.297819 2.17215 0 0 0 0 0 0 0 0 0 0 0 1 0 1 0 0 5 
38415 16 0.0144348 0.0637221 -0.00474801 0 0 0 0.977357 2.80485 11.5817 0.0104118 -0.00459652 -0.0469427 0 0 0 0 0 0 0 0 0 0 0 0 0 0 0 0 1 
38288 12 0.0327215 0.0591646 -0.0105538 0 0 0 -2.21991 -1.57942 2.54248 0.0564091 0.0439134 0.0197962 0 0 0 0 0 0 0 0 0 0 0 2 0 0 0 0 4 
36075 4 0.00617467 0.0660142 -0.00771115 0 0 0 -1.40002 -1.06357 2.79513 -2.0126 2.25577 0.521702 0 0 0 1 0 0 0 2 0 0 0 0 0 0 0 0 55 
37345 15 0.0151135 0.0512045 -0.0324488 0 0 0 -0.372661 3.04944 11.077 0 -0.000216769 0 0 0 0 0 0 0 0 0 0 0 0 0 0 0 0 0 20 
38372 12 0.0190431 0.0353836 -0.0312087 0 0 0 10.3676 10.6858 10.6587 -0.05913 -0.00923008 -0.0486249 0 0 0 0 0 0 0 0 0 0 0 1 0 0 0 0 8 
37823 15 0.0155865 0.0748461 -0.0127398 0 0 0 3.888 1.33288 1.59471 0.98094 1.32108 1.65685 0 0 0 0 0 0 0 2 0 0 0 0 0 0 3 0 13 
38338 14 0.0151027 0.0680097 0.00582044 0 0 0 4.70692 14.209 0.433802 0.201716 1.14459 0.469781 0 0 0 0 0 0 0 0 0 0 0 0 0 2 0 0 9 
38243 8 0.0341304 0.0734065 -0.0127536 0 0 0 1.08529 -0.116713 -0.951002 0.293642 0.0127111 -0.0924951 0 0 0 0 0 0 0 1 0 0 0 0 0 0 0 0 3 
38408 8 0.0422141 0.0737852 -0.00916314 0 0 0 0.598993 -1.26133 -0.546244 0.107872 -0.145341 0.0425469 0 0 0 0 0 0 0 2 0 0 0 0 0 0 0 0 7 
38295 8 0.0125359 0.0411221 0.00695757 0 0 0 4.00945 -5.02958 20.8312 -0.0252906 -1.4143 -1.06321 0 0 0 0 0 0 0 3 0 0 0 0 0 1 0 0 12 
38628 16 0.0255843 0.0396609 0.000778368 0 0 0 5.36418 0.472301 12.7949 0 -0.000268494 0 0 0 0 0 0 0 0 0 0 0 0 0 0 0 0 0 0 
38471 12 0.0212923 0.0453007 0.00818059 0 0 0 4.18873 -5.04816 20.8965 -0.136623 -0.492875 -0.581394 0 0 0 0 0 0 0 0 0 0 0 2 0 1 0 0 4 
38198 12 0.0429635 0.0417972 0.0019318 0 0 0 13.5438 -13.7636 9.46516 0 -0.000227443 0 0 0 0 0 0 0 0 0 0 0 0 0 0 0 0 0 3 
38221 15 0.0125734 0.0503273 0.0056502 0 0 0 -0.348844 -0.580946 23.8052 0.352373 -0.421507 0.601943 0 0 0 0 0 0 0 0 0 0 0 1 0 2 1 0 7 
38605 16 0.0309326 0.0540502 -0.00310952 0 0 0 5.46767 -8.63228 0.537522 -0.00150439 -0.04654 0.0273122 0 0 0 0 0 0 0 0 0 0 0 1 0 0 0 0 1 
38124 15 0.0392882 0.0628763 -0.00575156 0 0 0 -0.298851 -2.151 2.04467 0.103573 -0.145025 -0.277365 0 0 0 0 0 0 0 0 0 0 0 1 0 0 2 0 11 
38412 14 0.0256058 0.0697054 -0.00341372 0 0 0 6.86948 -2.26712 -2.48669 0.161596 -0.364642 0.200183 0 0 0 0 0 0 0 0 0 0 0 0 0 3 0 0 4 
36679 12 0.047451 0.0672946 -0.0311602 0 0 0 -0.18367 -1.20683 -0.41096 0.00159307 -0.00122598 -0.00399858 0 0 0 0 0 0 0 0 0 0 0 1 0 0 0 0 43 
38519 12 0.0227578 0.0584714 -0.0346601 0 0 0 -1.27989 -1.92448 0.923345 -0.109767 -0.462018 -0.570235 0 0 0 0 0 0 0 0 0 0 0 0 0 0 0 1 1 
38074 16 0.0248782 0.0748291 -0.0109858 0 0 0 3.30005 -4.57411 -4.72813 -0.381288 -0.470949 0.146098 0 0 0 0 0 0 0 0 0 0 0 0 0 1 0 2 13 
38599 12 0.0372701 0.0399892 0.00956218 0 0 0 5.87728 -5.13653 12.1995 0.252226 -0.197396 0.000142666 0 0 0 0 0 0 0 0 0 0 0 3 0 0 0 0 3 
38482 14 0.0417334 0.0592871 0.00524738 0 0 0 0.834012 -1.24408 -1.87007 -0.641513 -0.461969 -0.0003084 0 0 0 0 0 0 0 0 0 0 0 0 0 0 0 0 1 
38631 16 0.0338063 0.0455917 0.00320857 0 0 0 11.5011 -7.87201 4.34028 -0.0279958 0.00987675 0.0119238 0 0 0 0 0 0 0 0 0 0 0 1 0 0 0 0 1 
38584 16 0.0465506 0.0491337 0.00889906 0 0 0 9.41038 -4.72596 11.2588 0 -0.000268494 0 0 0 0 0 0 0 0 0 0 0 0 0 0 0 0 0 0 
38441 8 0.0058294 0.0574848 0.00541256 0 0 0 -1.4858 4.00177 12.8414 -0.106405 -0.946513 1.36675 0 0 0 0 0 0 0 1 0 0 0 0 0 0 0 0 2 
38162 16 0.0129229 0.0602596 0.00400853 0 0 0 -1.17553 9.80963 14.4393 0.584384 -1.13605 0.952826 0 0 0 0 0 0 0 1 0 0 0 1 0 1 0 0 7 
32938 12 0.0405607 0.0503997 -0.00106757 0 0 0 11.0236 -14.2326 -2.83761 0 -0.000227443 0 0 0 0 0 0 0 0 0 0 0 0 0 0 0 0 0 142 
38228 12 0.0249338 0.0587452 0.00775499 0 0 0 6.13129 -1.27134 -2.12904 -1.57571 0.580494 2.84767 0 0 0 0 0 0 0 0 0 0 0 0 0 1 0 0 3 
697 12 0.0176739 0.0721753 -0.00101719 0 0 0 7.43649 3.32376 -3.14661 -0.2996 1.04087 -0.434884 0 0 0 0 0 0 0 0 0 0 0 1 0 2 0 0 7856 
37927 6 0.033706 0.0619183 0.00222169 0 0 0 3.54559 -7.41582 5.57036 0 -0.000206046 0 0 0 0 0 0 0 0 0 0 0 0 0 0 0 0 0 7 
36606 16 0.00668822 0.0725484 -0.00175225 0 0 0 0.379218 3.36521 -1.9684 0.119759 -0.550981 0.92948 0 0 0 1 0 0 0 0 0 0 0 0 0 1 0 3 53 
38477 8 0.0386777 0.0701857 -0.000726311 0 0 0 0.245948 -1.08727 0.608571 0.11656 -0.28701 -0.278732 0 0 0 0 0 0 0 3 0 0 0 0 0 0 1 0 5 
38491 8 0.0325128 0.0720085 0.00539229 0 0 0 0.529417 -3.05122 -0.168473 -0.611959 -0.138046 0.464923 0 0 0 0 0 0 0 2 0 0 0 0 0 0 0 0 3 
38356 12 0.0247708 0.0676625 0.00549704 0 0 0 -1.02766 -0.278594 -0.464193 -0.306088 -0.233368 -0.0279321 0 0 0 0 0 0 0 1 0 0 0 0 0 0 0 0 3 
38251 12 0.0163475 0.0376586 0.0205641 0 0 0 0.347577 -2.24641 21.0999 0.666889 -0.583946 -0.110817 0 0 0 0 0 0 0 0 0 0 0 1 0 0 0 0 7 
37908 16 0.0270938 0.0387453 0.0198963 0 0 0 -0.618668 -6.76621 16.2363 -0.00637245 0.0120443 0.0284869 0 0 0 0 0 0 0 0 0 0 0 0 0 0 0 0 7 
38413 14 0.00630329 0.053081 0.0168146 0 0 0 -0.440556 -4.81551 13.6034 -0.520495 0.755907 -0.383201 0 0 0 0 0 0 0 0 0 0 0 0 0 1 0 0 5 
38510 12 0.015403 0.0498445 0.0231187 0 0 0 3.78323 -0.829972 13.804 0.156929 0.508342 0.297669 0 0 0 0 0 0 0 0 0 0 0 2 0 0 0 0 2 
38566 12 0.0271649 0.0515646 0.0187631 0 0 0 5.73035 2.11941 16.9943 0.335167 0.128137 -0.0545912 0 0 0 0 0 0 0 0 0 0 0 1 0 0 0 0 1 
38633 8 0.019976 0.031177 0.025034 0 0 0 -0.901164 -8.32233 15.5373 0.606679 -0.399241 -1.12178 0 0 0 0 0 0 0 1 0 0 0 1 0 0 0 0 2 
38638 15 0.0434933 0.0332099 0.0232876 0 0 0 2.56131 -1.92279 5.47982 0 -0.000216769 0 0 0 0 0 0 0 0 0 0 0 0 0 0 0 0 0 0 
37946 12 0.0111388 0.0409999 0.0269211 0 0 0 1.97797 -6.49303 18.2565 -0.929267 0.994473 0.895295 0 0 0 0 0 0 0 0 0 0 0 2 0 0 0 0 13 
38539 16 0.0274303 0.0456088 0.0264526 0 0 0 -1.06982 -2.44187 13.4819 0.00637245 -0.0125813 -0.0284869 0 0 0 0 0 0 0 0 0 0 0 0 0 0 0 0 0 
38564 8 0.036021 0.0438544 0.0204551 0 0 0 -2.80947 -3.43576 9.94677 0.00313406 -0.0125546 0.045102 0 0 0 0 0 0 0 1 0 0 0 0 0 0 0 0 1 
38557 4 0.0080295 0.049142 0.0268596 0 0 0 1.90368 -2.81822 9.93253 -0.811661 0.845202 0.234555 0 0 0 1 0 0 0 0 0 0 0 1 0 0 0 0 2 
37784 12 0.00918166 0.0130032 0.0274145 0 0 0 0.040653 -13.6914 6.49409 -8.04943e-06 -0.0751203 -0.158568 0 0 0 0 0 0 0 0 0 0 0 0 0 0 0 0 0 
37371 14 0.0125471 0.0326185 0.0295408 0 0 0 -3.05347 -9.69136 10.1001 0.0579437 1.04145 -0.801172 0 0 0 0 0 0 0 1 0 0 0 1 0 0 0 0 7 
38381 16 0.0277952 0.0349563 0.0288336 0 0 0 -4.7524 -8.18869 17.5568 0 -0.000268494 0 0 0 0 0 0 0 0 0 0 0 0 0 0 0 0 0 3 
37831 8 0.0219615 0.0267285 0.0322818 0 0 0 -1.06265 -12.3794 13.0672 0.184862 1.31855 -2.00235 0 0 0 0 0 0 0 1 0 0 0 0 0 0 0 0 8 
38597 8 0.011423 0.036907 0.0374711 0 0 0 -9.22746 -3.92472 10.6212 0 -0.000268443 0 0 0 0 0 0 0 0 0 0 0 0 0 0 0 0 0 0 
38574 12 0.0370099 0.0383225 0.0332745 0 0 0 -1.76826 -4.11389 2.51857 0 -0.000227443 0 0 0 0 0 0 0 0 0 0 0 0 0 0 0 0 0 0 
38636 14 0.015638 0.0176736 0.0357882 0 0 0 -1.77102 -8.56022 6.41062 1.01901 0.118173 -0.865109 0 0 0 0 0 0 0 0 0 0 0 0 0 1 0 0 1 
38320 14 0.0103305 0.0271281 0.0357579 0 0 0 -1.85188 -5.72031 12.5084 -0.896857 -1.58959 1.84767 0 0 0 0 0 0 0 0 0 0 0 0 0 0 0 0 0 
38285 16 0.0202583 0.040169 0.0379014 0 0 0 -6.48187 -4.87246 4.79356 -0.00334513 0.0086043 0.0114352 0 0 0 0 0 0 0 0 0 0 0 0 0 0 0 0 2 
38622 16 0.00989461 0.014799 0.0423265 0 0 0 -2.03017 -5.97982 2.538 -1.01901 -0.118648 0.865109 0 0 0 0 0 0 0 0 0 0 0 0 0 1 0 0 1 
38165 8 0.0189547 0.00988058 0.0435033 0 0 0 -1.21132 -15.1717 2.7573 0 -0.000268443 0 0 0 0 0 0 0 0 0 0 0 0 0 0 0 0 0 1 