ITEM: TIMESTEP
38800000
ITEM: NUMBER OF ATOMS
2687
ITEM: BOX BOUNDS ff ff ff
-0.01 0.45
-0.15 0.15
-0.08 0.1
ITEM: ATOMS_ id type x y z ix iy iz vx vy vz fx fy fz c_cc_1 c_cc_2 c_cc_3 c_cc_4 c_cc_5 c_cc_6 c_cc_7 c_cc_8 c_cc_9 c_cc_10 c_cc_11 c_cc_12 c_cc_13 c_cc_14 c_cc_15 c_cc_16 f_fppacc 
38189 8 0.0415316 -0.0423302 -0.0358971 0 0 0 -2.49872 4.64109 -5.41063 -9.02448e-05 -0.00533453 -0.0105738 0 0 0 0 0 0 0 0 0 0 0 0 0 0 0 0 2 
38154 14 0.046613 -0.00726077 -0.0546311 0 0 0 -3.16361 7.4301 -1.69415 0.00122266 7.37631e-05 0.000470659 0 0 0 0 0 0 0 0 0 0 0 0 0 1 0 0 1 
36540 12 0.0427761 -0.032799 -0.0364673 0 0 0 -1.50243 4.78152 -4.72698 0 -0.000227443 0 0 0 0 0 0 0 0 0 0 0 0 0 0 0 0 0 24 
38207 8 0.0333837 -0.0367517 -0.0416163 0 0 0 -2.25741 7.64449 -6.76678 -0.0106062 0.0658901 0.0768396 0 0 0 0 0 0 0 0 0 0 0 0 0 0 0 0 0 
38174 15 0.00650181 -0.0187263 -0.0522609 0 0 0 -0.0711514 8.16392 -2.88044 -0.000970296 0.00114073 0.0019328 0 0 0 0 0 0 0 0 0 0 0 0 0 0 0 0 1 
37726 8 0.0430432 -0.01849 -0.0523361 0 0 0 -1.27463 7.7564 -2.73933 0.00251954 -0.010645 -0.0266287 0 0 0 0 0 0 0 0 0 0 0 0 0 0 0 0 13 
38143 14 0.009066 -0.0262639 -0.048026 0 0 0 1.63018 8.17057 -3.47938 0 -0.000206096 0 0 0 0 0 0 0 0 0 0 0 0 0 0 0 0 0 2 
37370 14 0.0450318 -0.0217497 -0.0433961 0 0 0 -3.90202 8.49624 -4.136 0 -0.000206096 0 0 0 0 0 0 0 0 0 0 0 0 0 0 0 0 0 12 
38201 14 0.0425841 -0.0123462 -0.0450388 0 0 0 0.492103 7.28907 -8.66841 0 -0.000206096 0 0 0 0 0 0 0 0 0 0 0 0 0 0 0 0 0 0 
38247 12 0.0238121 -0.0548444 0.00872017 0 0 0 -1.90339 -1.64888 -5.96149 0.802993 0.02266 -0.0939589 0 0 0 0 0 0 0 0 0 0 0 1 0 0 0 0 1 
38119 12 0.0165192 -0.0436013 0.00380613 0 0 0 -4.45899 -3.42311 -17.0701 0 -0.000227443 0 0 0 0 0 0 0 0 0 0 0 0 0 0 0 0 0 0 
38248 16 0.0464012 -0.0316158 -0.0273982 0 0 0 -1.64072 3.8019 -6.11812 0 -0.000268494 0 0 0 0 0 0 0 0 0 0 0 0 0 0 0 0 0 0 
38252 12 0.00916291 -0.0498598 -0.0243837 0 0 0 -2.9174 2.87671 -5.89766 0.00140998 0.0112826 0.00558309 0 0 0 0 0 0 0 0 0 0 0 0 0 0 0 0 0 
38221 15 0.0251035 -0.0454652 -0.0319126 0 0 0 -6.52309 9.51791 -12.2379 -0.00946651 -0.117562 -0.0599465 0 0 0 0 0 0 0 0 0 0 0 0 0 0 0 0 0 
37672 16 0.0334042 -0.0494037 -0.0247676 0 0 0 -7.56366 9.63577 -17.7393 -0.169244 0.232651 0.332789 0 0 0 0 0 0 0 0 0 0 0 0 0 0 0 0 13 
37733 16 0.00884784 -0.0535549 -0.0134037 0 0 0 0.925501 1.49252 -6.00413 0.0160026 0.0321589 0.00793566 0 0 0 0 0 0 0 0 0 0 0 0 0 0 0 0 5 
38145 14 0.0228575 -0.0537032 -0.014295 0 0 0 -4.50151 2.22847 -10.3686 -0.102523 0.464777 0.0457202 0 0 0 0 0 0 0 0 0 0 0 0 0 0 0 0 0 
385 16 0.0472196 -0.0491201 -0.0242733 0 0 0 0.00308515 12.1427 -24.5656 6.71078e-05 0.336478 0.166441 0 0 0 0 0 0 0 0 0 0 0 0 0 0 0 1 2838 
16581 4 0.0409535 -0.0530214 -0.0151317 0 0 0 -0.00311897 7.55888 -26.5089 -0.00105059 0.306828 0.0893951 0 0 0 1 0 0 0 0 0 0 0 0 0 0 0 0 272 
965 11 0.0444476 -0.0511193 -0.0200037 0 0 0 0.0111266 10.0072 -25.5518 -4.81209e-05 0.22939 0.0898552 0 0 0 1 0 0 0 0 0 0 0 0 0 0 0 1 4065 
37908 16 0.029519 -0.0462763 -0.0139119 0 0 0 -0.155179 4.62165 -16.0389 0 -0.000268494 0 0 0 0 0 0 0 0 0 0 0 0 0 0 0 0 0 5 
20630 6 0.0429994 -0.0397052 -0.0134177 0 0 0 0.154011 8.23005 -24.1459 9.27169 -0.479003 2.19991 0 0 0 0 0 1 0 0 0 0 0 0 0 0 0 0 191 
22235 16 0.0460077 -0.0315803 -0.0138971 0 0 0 0.274835 7.15417 -15.8022 -0.0017101 0.168041 -0.940357 0 0 0 0 0 1 0 0 0 0 0 0 0 0 0 1 202 
38199 14 0.0273106 -0.0550239 -0.00680369 0 0 0 -2.95259 2.81113 -10.3564 0.314385 0.160242 0.413757 0 0 0 0 0 0 0 0 0 0 0 0 0 0 0 0 0 
27809 14 0.0394937 -0.0315474 -0.00730994 0 0 0 0.147422 3.49976 -15.8195 0.0157628 0.152248 0.0307753 0 0 0 0 0 0 0 0 0 0 0 0 0 0 0 1 33 
38239 16 0.00765875 -0.0551761 0.00186422 0 0 0 0.510345 -0.205568 -6.61429 0.00741385 0.0145594 -0.00038509 0 0 0 0 0 0 0 0 0 0 0 0 0 0 0 0 0 
1201 8 0.0368572 -0.0529541 -0.00728261 0 0 0 -0.00383371 3.64041 -26.4817 0.0019717 0.362442 0.0599026 0 0 0 0 0 0 0 1 0 0 0 0 0 0 0 0 1946 
22977 16 0.0390248 -0.0442259 -0.00655708 0 0 0 0.0714601 3.29472 -22.1323 -0.043992 0.300472 0.035093 0 0 0 0 0 0 0 1 0 0 0 0 0 0 0 0 184 
38141 12 0.0226261 -0.0038071 0.0547825 0 0 0 -2.09375 -6.31316 0.239055 -0.383509 -0.219205 0.0607118 0 0 0 0 0 0 0 0 0 0 0 2 0 0 0 0 3 
38250 8 0.00667213 -0.0508291 0.0114418 0 0 0 0.314278 -1.1996 -5.50965 0 -0.000268443 0 0 0 0 0 0 0 0 0 0 0 0 0 0 0 0 0 0 
32179 4 0.00874965 -0.00248285 0.0535033 0 0 0 1.26296 -4.72163 -0.623862 0 -0.000227392 0 0 0 0 0 0 0 0 0 0 0 0 0 0 0 0 0 127 
38185 14 0.0158144 -0.0540791 0.0123692 0 0 0 -0.98161 -0.497508 -7.63614 -0.997739 0.355236 0.0597322 0 0 0 0 0 0 0 0 0 0 0 0 0 2 0 0 2 
35928 8 0.0165412 -0.0457867 0.0157589 0 0 0 1.95497 0.103073 -10.7905 -0.0228118 0.0689682 0.0100255 0 0 0 0 0 0 0 0 0 0 0 0 0 1 0 0 34 
38197 12 0.00649425 -0.047438 0.0203736 0 0 0 0.0190926 -5.31951 -4.66331 0.00484768 0.00145098 0.00174868 0 0 0 0 0 0 0 0 0 0 0 0 0 0 0 0 0 
38078 12 0.0184433 -0.0360658 0.0207967 0 0 0 -2.73544 -4.40263 -8.12688 0 -0.000227443 0 0 0 0 0 0 0 0 0 0 0 0 0 0 0 0 0 0 
37923 4 0.00821669 -0.047631 0.0292024 0 0 0 0.960491 -2.49557 -2.86633 -0.0137938 0.278939 -0.129791 0 0 0 2 0 0 0 0 0 0 0 0 0 0 0 0 6 
38075 8 0.00759867 -0.03998 0.0254745 0 0 0 -1.89812 -3.88308 -4.94372 -0.304833 0.454002 -0.374544 0 0 0 1 0 0 0 0 0 0 0 0 0 0 0 0 4 
38099 16 0.0165828 -0.0451297 0.0309747 0 0 0 0.986043 -4.17706 -4.37832 0.406867 -0.0606564 0.175467 0 0 0 1 0 0 0 0 0 0 0 0 0 0 0 0 3 
36962 4 0.00641426 -0.0419449 0.0358935 0 0 0 0.219473 -2.5567 -2.69536 0 -0.000227392 0 0 0 0 0 0 0 0 0 0 0 0 0 0 0 0 0 18 
38265 16 0.00679706 -0.0272111 0.0362091 0 0 0 0.0900298 -3.70588 -3.07838 -0.0184755 -0.00506961 -0.00307454 0 0 0 0 0 0 0 0 0 0 0 0 0 0 0 0 0 
37875 12 0.00750238 -0.0350836 0.0411321 0 0 0 -0.194916 -3.13573 -1.72887 0 -0.000227443 0 0 0 0 0 0 0 0 0 0 0 0 0 0 0 0 0 2 
36929 16 0.0161201 -0.0381093 0.0387347 0 0 0 -1.70501 -4.8988 -2.51232 0 -0.000268494 0 0 0 0 0 0 0 0 0 0 0 0 0 0 0 0 0 5 
38153 12 0.00810269 -0.0183361 0.0388783 0 0 0 3.35857 -3.57789 -2.66625 0 -0.000227443 0 0 0 0 0 0 0 0 0 0 0 0 0 0 0 0 0 1 
38094 14 0.00731577 -0.00603412 0.0390557 0 0 0 0.225729 -7.02304 -0.203163 0 -0.000206096 0 0 0 0 0 0 0 0 0 0 0 0 0 0 0 0 0 2 
37053 16 0.0162907 -0.0298272 0.0442282 0 0 0 -1.38405 -3.75345 -3.48139 0 -0.000268494 0 0 0 0 0 0 0 0 0 0 0 0 0 0 0 0 0 14 
38053 12 0.0146685 -0.0058831 0.0480255 0 0 0 0.775114 -7.24242 -0.182733 0 -0.000227443 0 0 0 0 0 0 0 0 0 0 0 0 0 0 0 0 0 2 
37926 6 0.0419039 -0.020377 0.0519572 0 0 0 -5.37736 -7.2641 -2.84748 -0.0229875 0.0170766 -0.0426113 0 0 0 0 0 0 0 0 0 0 0 0 0 0 0 0 7 
36946 15 0.00762523 -0.0155957 0.052243 0 0 0 -0.63867 -5.70786 -1.52001 0 -0.000216769 0 0 0 0 0 0 0 0 0 0 0 0 0 0 0 0 0 7 
38272 15 0.0190159 -0.011946 0.0542148 0 0 0 1.60955 -6.33266 -1.04812 -0.14874 -0.372873 0.0833404 0 0 0 0 0 0 0 0 0 0 0 1 0 0 0 0 1 
37784 12 0.00875602 -0.00266863 0.0302244 0 0 0 0.00608429 -15.1134 -1.33442 -1.37576e-06 0.0155803 -0.175205 0 0 0 0 0 0 0 0 0 0 0 0 0 0 0 0 0 
18622 14 0.000722377 -0.00347355 0.0584603 0 0 0 -1.2327e-14 1.15438e-15 2.99535e-14 2.88658e-15 0 1.02141e-14 0 0 0 0 0 0 0 0 0 0 0 0 0 0 0 0 50 
37736 8 0.0435429 -0.00634195 0.0552381 0 0 0 -6.21737 -17.6565 -0.899411 0.908853 -0.454842 -0.771982 0 0 0 0 0 0 0 0 0 0 0 0 0 0 0 0 4 
38156 16 0.01332 0.0083523 -0.0551955 0 0 0 -1.796 12.5678 0.0783659 0 -0.000268494 0 0 0 0 0 0 0 0 0 0 0 0 0 0 0 0 0 0 
58 1 0.0264543 0.0145784 -0.0518068 0 0 0 -0.0101097 25.9201 7.26537 -0.00214853 -0.0402828 0.147722 2 0 0 0 0 0 0 0 0 0 0 0 0 0 0 0 2387 
38009 16 0.0444054 0.00734328 -0.052585 0 0 0 -1.08349 10.8729 -0.0566784 0 -0.000268494 0 0 0 0 0 0 0 0 0 0 0 0 0 0 0 0 0 2 
37606 12 0.0178272 0.016913 -0.0522792 0 0 0 -2.57233 13.0976 -0.579317 0 -0.000227443 0 0 0 0 0 0 0 0 0 0 0 0 0 0 0 0 0 4 
11811 8 0.0274787 0.0191703 -0.0513112 0 0 0 0.0656478 25.709 9.57358 -0.128859 -0.128109 0.357805 1 0 0 0 0 0 0 2 0 0 0 0 0 0 0 0 398 
31246 16 0.029698 0.024047 -0.0490731 0 0 0 0.0126021 24.532 12.0338 -0.0337973 -0.18836 0.228783 0 0 0 0 0 0 0 1 0 0 0 0 0 0 0 0 93 
37941 14 0.0433688 0.016874 -0.0523834 0 0 0 -1.26299 11.6302 3.13985 0 -0.000206096 0 0 0 0 0 0 0 0 0 0 0 0 0 0 0 0 0 2 
38198 12 0.0221627 0.0244974 -0.0555267 0 0 0 -2.94252 13.7106 0.351326 -1.37465 1.05043 -0.340842 0 0 0 0 0 0 0 1 0 0 0 0 0 0 0 0 1 
26944 15 0.000999015 0.0272219 -0.0545552 0 0 0 -1.52089e-15 4.64892e-15 -8.39107e-15 4.16334e-16 -2.05391e-15 3.60822e-15 0 0 0 0 0 0 0 0 0 0 0 0 0 0 0 0 40 
38101 8 0.0290022 0.0355932 -0.0549234 0 0 0 -3.24369 6.20649 0.592182 -0.0605222 -0.0213244 -0.0119135 0 0 0 0 0 0 0 1 0 0 0 0 0 0 0 0 4 
37709 8 0.0409595 0.030968 -0.055472 0 0 0 0.0677543 -0.60807 0.0392585 0 -0.000268443 0 0 0 0 0 0 0 0 0 0 0 0 0 0 0 0 0 4 
37868 12 0.0172729 0.0313722 -0.0533593 0 0 0 -5.30408 7.61609 1.68968 -1.88837 1.61453 -0.334827 0 0 0 0 0 0 0 0 0 0 0 0 0 0 0 0 7 
38157 8 0.0247872 0.0444075 -0.0552315 0 0 0 -4.30908 4.3293 -4.07278 -0.353791 -1.17919 -0.237964 0 0 0 0 0 0 0 1 0 0 0 0 0 0 0 0 2 
38074 16 0.0351922 0.0420569 -0.0530159 0 0 0 -0.170063 5.82987 -0.736789 -0.326064 -0.19317 -0.143293 0 0 0 0 0 0 0 1 0 0 0 0 0 0 0 1 9 
38235 4 0.0468499 0.0375267 -0.0551304 0 0 0 -0.0342476 -0.629669 0.306205 0.0016698 0.0158717 0.00851978 0 0 0 1 0 0 0 0 0 0 0 0 0 0 0 0 1 
37809 8 0.0132633 0.0406582 -0.0527208 0 0 0 2.05341 -4.63288 1.40032 0 -0.000268443 0 0 0 0 0 0 0 0 0 0 0 0 0 0 0 0 0 5 
37737 12 0.00683784 0.0491214 -0.0514424 0 0 0 0.200825 -4.40139 0.902483 0 -0.000227443 0 0 0 0 0 0 0 0 0 0 0 0 0 0 0 0 0 8 
38062 4 0.0164843 0.052686 -0.0558568 0 0 0 1.30226 -1.96506 0.136308 0.0121203 -0.0712386 0.0128645 0 0 0 0 0 0 0 0 0 0 0 0 0 0 0 0 3 
34546 12 0.0257168 0.0529671 -0.0552701 0 0 0 -0.0377661 6.33835 -0.565968 -0.0390989 0.333228 -0.301925 0 0 0 0 0 0 0 1 0 0 0 1 0 0 0 0 90 
37121 8 0.0437526 0.0528557 -0.05375 0 0 0 1.17758 -0.0558715 0.101682 0.0791843 0.0581622 0.00448722 0 0 0 0 0 0 0 0 0 0 0 0 0 0 0 0 19 
37964 8 0.0348219 0.0537535 -0.0553266 0 0 0 0.415386 -2.01134 0.121699 0 -0.000268443 0 0 0 0 0 0 0 0 0 0 0 0 0 0 0 0 0 5 
37356 12 0.00646637 0.0620635 -0.0552852 0 0 0 0.193591 -0.855738 0.425971 0.0603726 -0.0377378 -0.0109702 0 0 0 0 0 0 0 0 0 0 0 0 0 0 0 0 11 
37998 14 0.0217838 0.0616794 -0.0554528 0 0 0 0.272937 -1.66024 0.0394313 0 -0.000206096 0 0 0 0 0 0 0 0 0 0 0 0 0 0 0 0 0 4 
37429 8 0.0406355 0.0610668 -0.0555241 0 0 0 -0.275622 -0.598417 0.0224576 -0.0169947 -0.00876795 -0.000844744 0 0 0 0 0 0 0 0 0 0 0 0 0 0 0 0 9 
37625 12 0.0140913 0.0666769 -0.0535402 0 0 0 -0.349766 -1.87029 -0.772886 0 -0.000227443 0 0 0 0 0 0 0 0 0 0 0 0 0 0 0 0 0 10 
37895 16 0.0317519 0.0647529 -0.0541737 0 0 0 -0.288162 -2.09122 -1.33155 -0.008184 0.0159618 0.0280651 0 0 0 0 0 0 0 0 0 0 0 0 0 0 0 1 4 
36794 14 0.00666396 0.0714359 -0.0555251 0 0 0 0.394996 -1.36769 0.12781 -0.00213873 -0.00487308 0.00793609 0 0 0 0 0 0 0 0 0 0 0 0 0 1 0 0 20 
37461 12 0.0240908 0.0708907 -0.0555394 0 0 0 0.569091 -0.964267 0.0412931 -0.0549703 0.0290149 -0.0530189 0 0 0 0 0 0 0 0 0 0 0 2 0 0 0 0 14 
37829 8 0.0399226 0.0699842 -0.055347 0 0 0 0.232049 -0.498703 -0.405026 -0.0745952 -0.00822268 -0.158621 0 0 0 0 0 0 0 2 0 0 0 0 0 0 0 0 10 
37838 16 0.0311674 0.0283888 -0.0462158 0 0 0 -0.00168543 23.1072 14.1874 -0.00186573 -0.18926 0.318365 0 0 0 0 0 0 0 0 0 0 0 0 0 0 0 0 2 
37946 12 0.0401657 0.0237543 -0.0460107 0 0 0 0.383431 8.78411 6.05423 0 -0.000227443 0 0 0 0 0 0 0 0 0 0 0 0 0 0 0 0 0 6 
38244 12 0.0376807 0.0379647 -0.0411518 0 0 0 9.4201 18.7345 12.4447 0.333515 -0.04518 0.504668 0 0 0 0 0 0 0 0 0 0 0 1 0 0 0 0 1 
36412 16 0.00099113 0.0324767 -0.0466377 0 0 0 2.49807e-07 6.22614e-07 -3.0981e-06 -1.54747e-08 -5.21984e-08 -1.79127e-07 0 0 0 0 0 0 0 0 0 0 0 0 0 0 0 1 22 
38227 12 0.0293093 0.0457784 -0.0449974 0 0 0 2.3893 -1.69752 2.96056 -0.140994 -0.108929 0.116654 0 0 0 0 0 0 0 0 0 0 0 1 0 0 0 0 1 
37272 8 0.043734 0.0444018 -0.0508188 0 0 0 1.63255 0.167765 0.585321 -0.0709069 -0.110672 -0.0921948 0 0 0 1 0 0 0 2 0 0 0 0 0 0 0 1 11 
37396 12 0.0370511 0.0495343 -0.0474277 0 0 0 -0.195661 0.38439 -0.240628 0.118982 0.150995 -0.106279 0 0 0 0 0 0 0 0 0 0 0 1 0 0 0 0 15 
37526 4 0.0130989 0.0570928 -0.0497123 0 0 0 0.904152 -3.4912 1.35906 0.0896942 -0.018598 0.0636974 0 0 0 2 0 0 0 0 0 0 0 0 0 0 0 0 7 
38058 15 0.021431 0.0553344 -0.0472481 0 0 0 0.301492 -2.51396 0.366658 0 -0.000216769 0 0 0 0 0 0 0 0 0 0 0 0 0 0 0 0 0 2 
37882 4 0.0297513 0.0572281 -0.0490726 0 0 0 0.800992 0.45109 0.563381 0.289267 0.964981 0.274528 0 0 0 1 0 0 0 0 0 0 0 1 0 0 0 0 6 
36812 15 0.00649427 0.0684273 -0.047087 0 0 0 0.0686237 -2.18793 0.022662 -0.0125845 -0.00853663 0.0100311 0 0 0 0 0 0 0 0 0 0 0 0 0 1 0 0 21 
37866 8 0.0208291 0.0686932 -0.0475516 0 0 0 0.138517 -1.7194 -0.334606 0.016998 0.103152 -0.0461439 0 0 0 0 0 0 0 2 0 0 0 1 0 0 0 0 13 
36679 12 0.0439622 0.0737036 -0.0482856 0 0 0 0.107432 -0.919698 -0.906866 -0.0573164 0.0210705 -0.116596 0 0 0 0 0 0 0 1 0 0 0 2 0 0 0 0 37 
38269 14 0.0268572 0.0137096 -0.0395841 0 0 0 -8.22695 21.667 7.32746 901.507 -1179.62 -393.752 0 0 0 0 0 0 0 0 0 0 0 0 0 0 0 0 0 
38069 8 0.0233492 0.0250765 -0.042322 0 0 0 -3.51785 16.9107 5.16097 0.467952 -0.161539 0.0131688 0 0 0 0 0 0 0 0 0 0 0 0 0 0 0 0 1 
2590 12 0.000867152 0.0411919 -0.0462225 0 0 0 -7.30957e-08 4.82221e-06 4.16052e-06 3.65601e-08 1.27345e-07 1.67627e-07 0 0 0 0 0 0 0 0 0 0 0 0 0 0 0 1 818 
37406 8 0.0350911 0.0426148 -0.0353249 0 0 0 -1.80534 8.73376 21.4555 -1.52185 -3.52875 0.793257 0 0 0 0 0 0 0 3 0 0 0 1 0 0 0 0 16 
38026 12 0.0202331 0.0449324 -0.0407467 0 0 0 0.424107 -4.72379 3.65047 0 -0.000227443 0 0 0 0 0 0 0 0 0 0 0 0 0 0 0 0 0 1 
37884 4 0.0061776 0.0511296 -0.0417338 0 0 0 -0.149136 -1.85148 1.87024 0.128017 0.0173039 -0.0615608 0 0 0 0 0 0 0 0 0 0 0 0 0 0 0 0 2 
37973 4 0.014741 0.0527402 -0.0422869 0 0 0 0.487499 -3.13084 0.438843 0 -0.000227392 0 0 0 0 0 0 0 0 0 0 0 0 0 0 0 0 0 1 
37455 16 0.0409703 0.0557057 -0.0416928 0 0 0 -0.450047 -1.35426 1.52482 -0.0367619 -0.0154525 0.112239 0 0 0 0 0 0 0 0 0 0 0 1 0 0 0 2 7 
38042 8 0.00642457 0.0593084 -0.0447276 0 0 0 0.142335 -2.42237 0.449495 0.0578291 0.0418229 0.0722497 0 0 0 1 0 0 0 0 0 0 0 0 0 0 0 0 2 
36889 16 0.0245182 0.0626416 -0.0416412 0 0 0 -0.590759 -1.88159 -0.237538 0.0373481 0.193117 -0.084092 0 0 0 0 0 0 0 1 0 0 0 0 0 0 0 3 16 
38092 12 0.0336009 0.0612271 -0.0423836 0 0 0 -0.57743 -0.901446 0.126643 -0.421178 0.360325 0.237619 0 0 0 1 0 0 0 0 0 0 0 1 0 0 0 2 5 
37412 8 0.0140912 0.0638018 -0.0443526 0 0 0 0.485118 -2.49577 -0.124023 0.0994683 0.0492503 0.103502 0 0 0 1 0 0 0 0 0 0 0 0 0 0 0 0 17 
37826 15 0.0411748 0.0652044 -0.0454514 0 0 0 0.0563597 -1.34266 0.778653 0 -0.000216769 0 0 0 0 0 0 0 0 0 0 0 0 0 0 0 0 0 4 
37874 12 0.0317622 0.0699911 -0.0464956 0 0 0 0.547037 -1.51878 -1.35286 -0.0106327 0.00852358 0.000923077 0 0 0 0 0 0 0 0 0 0 0 0 0 0 0 1 6 
37902 12 0.0385406 0.0731616 -0.04127 0 0 0 -0.737465 1.57423 -2.45868 -0.341386 0.248128 -0.419153 0 0 0 0 0 0 0 0 0 0 0 1 0 0 0 0 9 
37911 8 0.0474755 0.0663802 -0.05202 0 0 0 0.390624 -1.38272 -0.109123 0.0473475 -0.0655526 -0.0320468 0 0 0 0 0 0 0 1 0 0 0 1 0 0 0 0 4 
32503 16 0.0466226 0.031584 -0.0375563 0 0 0 1.82883 -1.46196 3.36633 0 -0.000268494 0 0 0 0 0 0 0 0 0 0 0 0 0 0 0 0 0 108 
38055 12 0.00659663 0.00179456 -0.0534703 0 0 0 0.535828 8.84374 4.27592 0 -0.000227443 0 0 0 0 0 0 0 0 0 0 0 0 0 0 0 0 0 1 
1152 15 0.0215415 0.000899586 -0.0536377 0 0 0 -0.0162301 26.8061 0.487321 5.71887e-06 -0.00577263 0.2961 0 0 0 0 0 0 0 0 0 0 0 0 0 0 1 0 1778 
24 14 0.0236615 0.00536501 -0.0533818 0 0 0 -0.0147602 26.6312 2.67464 0.000285067 -0.0282332 0.279466 0 0 0 0 0 0 0 0 0 0 0 0 0 1 1 0 3970 
37770 4 0.0474536 0.0610783 -0.038427 0 0 0 -0.533443 -0.286348 0.385864 -0.0211949 0.0437778 -0.0531875 0 0 0 2 0 0 0 0 0 0 0 0 0 0 0 0 5 
37596 4 0.0231211 0.0524073 -0.0367106 0 0 0 -1.47744 -0.557584 1.89546 0.0632381 -0.231596 -0.0232796 0 0 0 2 0 0 0 0 0 0 0 0 0 0 0 0 10 
37288 15 0.0312272 0.0529319 -0.0398939 0 0 0 -0.969155 1.61135 0.636366 0.675632 -0.671299 -0.0756035 0 0 0 0 0 0 0 0 0 0 0 2 0 0 1 0 18 
37962 16 0.0473243 0.0528428 -0.0350693 0 0 0 0.230922 0.443612 2.10372 -0.0352826 0.0592183 0.112916 0 0 0 1 0 0 0 0 0 0 0 0 0 0 0 1 7 
38222 15 0.00932018 0.0570971 -0.0355456 0 0 0 -0.131225 -2.63589 1.4587 -0.28706 -0.0408499 0.00710696 0 0 0 0 0 0 0 0 0 0 0 0 0 0 0 0 0 
38124 15 0.0179443 0.0591491 -0.0362258 0 0 0 -0.698442 -0.306501 0.630724 -0.327412 0.156817 -0.0287695 0 0 0 1 0 0 0 0 0 0 0 0 0 0 1 1 3 
37985 8 0.0396473 0.0637315 -0.0355627 0 0 0 3.17712 7.00667 -1.83232 0.0481812 -0.615523 -0.656481 0 0 0 0 0 0 0 2 0 0 0 0 0 0 0 0 7 
37241 16 0.00802268 0.0660803 -0.0375894 0 0 0 -0.346031 -2.7717 -0.432277 0.00341817 0.00369784 0.00497277 0 0 0 0 0 0 0 0 0 0 0 0 0 0 0 1 11 
37822 14 0.0165132 0.0720057 -0.0404516 0 0 0 0.272357 -2.57331 0.381148 -0.000466442 0.0197719 0.00538158 0 0 0 0 0 0 0 1 0 0 0 0 0 1 0 0 3 
697 12 0.0254442 0.0731516 -0.0409302 0 0 0 0.258965 -1.84357 -0.882994 0.00898947 -0.0338585 0.0371352 0 0 0 0 0 0 0 0 0 0 0 1 0 0 0 0 7846 
37831 8 0.0469125 0.0695531 -0.0398475 0 0 0 -0.207637 -0.192426 1.23241 0.0135173 0.150145 0.00174858 0 0 0 1 0 0 0 1 0 0 0 0 0 0 0 0 5 
1027 11 0.025088 0.0106471 -0.0541168 0 0 0 -0.0108273 27.0396 5.33059 0.000682352 -0.0479419 0.243802 1 0 0 0 0 0 0 0 0 0 0 0 0 1 0 0 2809 
35771 15 0.0066332 0.0747335 -0.0407074 0 0 0 -0.16756 -2.14733 0.116045 0.00563655 0.00931227 0.0259864 0 0 0 0 0 0 0 0 0 0 0 0 0 0 0 0 41 
38253 12 0.0474624 0.0392529 -0.0445002 0 0 0 -0.294672 0.24146 1.65031 0.0572147 -0.0097274 0.0415763 0 0 0 0 0 0 0 1 0 0 0 1 0 0 0 0 2 
37357 14 0.0160608 0.0541925 -0.0279351 0 0 0 0.343281 -2.93016 2.89362 0.160866 -0.21299 -0.160154 0 0 0 0 0 0 0 0 0 0 0 0 0 2 0 0 13 
38194 16 0.0294392 0.0568347 -0.0317106 0 0 0 -1.09214 -0.500979 2.51995 0.0632126 -0.00519406 -0.0347813 0 0 0 0 0 0 0 0 0 0 0 0 0 0 0 1 1 
38117 8 0.0399565 0.0566258 -0.0313651 0 0 0 9.02634 11.9545 7.04817 0.655783 -0.405845 -0.725791 0 0 0 0 0 0 0 3 0 0 0 0 0 0 0 0 6 
36119 14 0.022056 0.0666403 -0.0336812 0 0 0 -0.372926 -1.12813 -1.01055 -0.0168694 0.353551 -0.124015 0 0 0 0 0 0 0 0 0 0 0 0 0 3 0 0 41 
37917 12 0.032332 0.066046 -0.0310861 0 0 0 0.161386 -0.511788 -0.693513 0.084593 -0.242535 -0.255982 0 0 0 0 0 0 0 0 0 0 0 2 0 0 0 0 8 
36258 12 0.0404575 0.071529 -0.032891 0 0 0 0.507134 6.01234 -3.12128 -0.126809 0.0267117 -0.07879 0 0 0 0 0 0 0 0 0 0 0 4 0 0 0 0 34 
37026 16 0.0109111 0.0511351 -0.0208528 0 0 0 2.42908 0.375287 5.27124 -0.0819221 -4.56371 -2.44221 0 0 0 0 0 0 0 0 0 0 0 0 0 1 0 0 15 
37931 16 0.0314546 0.0467008 -0.0254659 0 0 0 -0.523301 -1.61876 7.16308 0 -0.000268494 0 0 0 0 0 0 0 0 0 0 0 0 0 0 0 0 0 3 
37224 8 0.001 0.0506995 -0.0260526 0 0 0 2.92892e-14 4.62398e-18 -1.2728e-17 0 -1.24683e-18 1.68752e-17 0 0 0 0 0 0 0 0 0 0 0 0 0 0 0 0 2 
37794 14 0.0348193 0.0552682 -0.0240965 0 0 0 0.445155 -0.782772 2.47376 0.037551 -0.129484 -0.118687 0 0 0 0 0 0 0 0 0 0 0 0 0 1 0 0 8 
37518 8 0.00648743 0.0612386 -0.0275308 0 0 0 0.0791634 -2.08783 -0.0438515 0.00457118 0.00910593 0.00430006 0 0 0 0 0 0 0 1 0 0 0 0 0 0 0 0 8 
37872 16 0.015739 0.0629043 -0.0252022 0 0 0 2.89548 -0.170848 -2.36062 -0.0873193 -0.31858 -0.175565 0 0 0 0 0 0 0 0 0 0 0 0 0 1 0 1 10 
37704 14 0.0412254 0.0621353 -0.0256084 0 0 0 0.00819054 9.07145 8.52205 -0.392409 0.547222 0.347694 0 0 0 0 0 0 0 1 0 0 0 0 0 2 0 0 7 
36348 8 0.00888831 0.0699001 -0.0291672 0 0 0 0.569621 -1.71799 -0.876915 -0.00341817 -0.00423478 -0.00497277 0 0 0 0 0 0 0 1 0 0 0 0 0 0 0 0 33 
37347 8 0.0219864 0.0702052 -0.0255267 0 0 0 0.113386 -2.08505 -1.19954 -0.074185 0.0203396 0.0710399 0 0 0 0 0 0 0 0 0 0 0 0 0 1 0 0 11 
37098 8 0.0304315 0.0731475 -0.0261362 0 0 0 -0.276865 -1.0726 0.024301 -0.0840495 0.0283786 0.0357307 0 0 0 0 0 0 0 3 0 0 0 1 0 0 0 0 10 
38006 16 0.032249 0.0363058 -0.0182412 0 0 0 9.14074 8.21336 9.76921 0 -0.000268494 0 0 0 0 0 0 0 0 0 0 0 0 0 0 0 0 0 1 
38015 14 0.0442781 0.0419564 -0.0222497 0 0 0 0.42643 -1.91402 0.203897 0 -0.000206096 0 0 0 0 0 0 0 0 0 0 0 0 0 0 0 0 0 3 
38205 16 0.0364165 0.0499916 -0.016393 0 0 0 2.77991 -0.354826 1.32659 -0.160772 -0.108013 -0.294137 0 0 0 0 0 0 0 0 0 0 0 0 0 0 0 0 0 
38262 6 0.0211324 0.0522047 -0.020706 0 0 0 0.067557 -5.43445 4.69733 0 -0.000206046 0 0 0 0 0 0 0 0 0 0 0 0 0 0 0 0 0 0 
37909 16 0.0240078 0.0609 -0.0199344 0 0 0 -0.765448 -3.79644 1.07002 0 -0.000268494 0 0 0 0 0 0 0 0 0 0 0 0 0 0 0 0 0 2 
37701 8 0.0329271 0.0634635 -0.0211885 0 0 0 -1.82251 -0.363334 1.12408 -0.0250803 -0.110707 0.119922 0 0 0 0 0 0 0 1 0 0 0 0 0 1 0 0 8 
37974 4 0.00616834 0.0671793 -0.0212208 0 0 0 0.262741 -1.13721 -0.572501 0.0133579 -0.0135091 -0.00443635 0 0 0 1 0 0 0 1 0 0 0 0 0 0 0 0 7 
37331 15 0.0142703 0.0706658 -0.0206199 0 0 0 -1.49671 -2.41889 -0.458287 -0.0789408 0.0345384 0.0297503 0 0 0 0 0 0 0 0 0 0 0 0 0 0 2 1 17 
37334 12 0.0350132 0.0717081 -0.0185808 0 0 0 0.0296746 -0.163687 -0.0922524 -0.194777 0.0673003 0.238771 0 0 0 0 0 0 0 2 0 0 0 4 0 0 0 0 22 
37006 8 0.0421537 0.0701264 -0.0235694 0 0 0 2.44314 7.32913 4.03444 0.172065 2.29143 0.255395 0 0 0 0 0 0 0 1 0 0 0 1 0 1 0 0 28 
38277 8 0.0461066 0.0390934 -0.0118449 0 0 0 1.66493 2.86116 5.82493 0 -0.000268443 0 0 0 0 0 0 0 0 0 0 0 0 0 0 0 0 0 0 
38240 16 0.00770444 0.0516315 -0.00845141 0 0 0 7.03487 -1.45901 12.4566 -0.447024 0.636897 -0.512483 0 0 0 0 0 0 0 0 0 0 0 0 0 0 0 0 0 
38176 16 0.045467 0.0503228 -0.0133905 0 0 0 -0.792604 -2.02678 3.92266 0.785831 0.0484097 -0.113241 0 0 0 0 0 0 0 0 0 0 0 0 0 0 0 0 4 
26442 16 0.001 0.0591347 -0.0149845 0 0 0 -0.00029238 7.50236e-05 -0.000188218 0.00023553 3.93844e-05 -0.000105786 0 0 0 0 0 0 0 0 0 0 0 0 0 0 0 0 55 
38115 16 0.0141577 0.0570762 -0.0147494 0 0 0 6.62701 -1.47064 -1.74008 -1.19226 3.61062 1.25789 0 0 0 0 0 0 0 0 0 0 0 0 0 0 0 1 1 
37713 14 0.0389237 0.061743 -0.0146706 0 0 0 -0.819846 -2.71862 -0.406977 0.0205584 -0.0109125 0.002108 0 0 0 0 0 0 0 0 0 0 0 0 0 1 0 0 5 
37833 8 0.0255395 0.069734 -0.0174057 0 0 0 -0.166231 -3.21997 -1.01948 0.019344 -0.0652264 0.109076 0 0 0 0 0 0 0 1 0 0 0 0 0 0 0 0 11 
37937 16 0.0472747 0.0718709 -0.0164012 0 0 0 0.724054 2.77132 0.276559 0.414358 1.67182 0.573148 0 0 0 0 0 0 0 1 0 0 0 0 0 0 0 3 8 
38210 16 0.0113686 0.0451184 -0.00286486 0 0 0 7.77949 -0.619182 14.3961 0.447024 -0.637434 0.512483 0 0 0 0 0 0 0 0 0 0 0 0 0 0 0 0 0 
38056 14 0.0182142 0.0503794 -0.00971219 0 0 0 -5.39554 -5.2183 3.29988 0 -0.000206096 0 0 0 0 0 0 0 0 0 0 0 0 0 0 0 0 0 0 
38049 16 0.0349789 0.0519165 -0.00732544 0 0 0 3.80456 -4.31741 3.61014 -0.433076 -0.345496 -0.11804 0 0 0 0 0 0 0 0 0 0 0 0 0 0 0 1 1 
38122 14 0.0270854 0.0566182 -0.00745077 0 0 0 2.16764 -6.71422 0.950642 -0.062721 -0.172209 0.0674994 0 0 0 0 0 0 0 0 0 0 0 0 0 1 0 1 3 
37567 14 0.0174045 0.0644026 -0.010351 0 0 0 6.67218 -6.45883 -2.83566 1.26644 0.504329 1.08999 0 0 0 0 0 0 0 0 0 0 0 0 0 0 0 1 7 
37383 16 0.0315017 0.0662093 -0.0113208 0 0 0 -1.23872 -3.57672 -0.369598 0.240773 -0.0315697 -0.0394354 0 0 0 0 0 0 0 1 0 0 0 0 0 1 0 1 14 
36405 12 0.00655702 0.069477 -0.0129005 0 0 0 0.262857 -1.72305 0.137953 -0.0692613 -0.073334 0.0158292 0 0 0 1 0 0 0 0 0 0 0 2 0 0 0 0 15 
38057 14 0.0196003 0.0728328 -0.00867439 0 0 0 3.26744 -6.72441 3.216 0.112064 -0.341327 0.161402 0 0 0 0 0 0 0 0 0 0 0 0 0 2 0 0 7 
38023 8 0.041963 0.0726466 -0.008933 0 0 0 -0.202183 -1.80152 0.0805042 0.0980828 0.159936 0.188992 0 0 0 0 0 0 0 2 0 0 0 0 0 0 0 1 5 
38195 16 0.0300998 0.0456339 -0.000171543 0 0 0 0.425894 -3.38459 6.03211 0 -0.000268494 0 0 0 0 0 0 0 0 0 0 0 0 0 0 0 0 0 0 
37475 12 0.0425279 0.0426173 -0.00436947 0 0 0 4.90396 -8.14597 4.19435 0 -0.000227443 0 0 0 0 0 0 0 0 0 0 0 0 0 0 0 0 0 9 
3709 16 0.00927405 0.0530637 0.00628267 0 0 0 0.341885 -3.17687 26.4917 -0.0200485 -0.330801 0.0232555 0 0 0 0 0 0 0 0 0 0 0 0 0 0 0 2 844 
21275 14 0.0474986 0.00200039 -0.0302776 0 0 0 -0.0303573 15.1684 1.0038 0.000208162 -0.0123793 0.159444 0 0 0 0 0 0 0 0 0 0 0 0 0 0 0 0 1 
38280 14 0.0432954 0.0551369 -0.00257761 0 0 0 0.379829 -0.660607 -0.76818 0.0304091 -0.00765922 -0.0311104 0 0 0 0 0 0 0 0 0 0 0 0 0 1 0 0 1 
37968 14 0.00670812 0.0630767 -0.00660259 0 0 0 0.572656 -1.87433 -1.05329 -0.0114822 -0.138447 0.0463049 0 0 0 0 0 0 0 0 0 0 0 1 0 0 0 0 4 
37103 16 0.023913 0.0643597 -0.00362162 0 0 0 4.06056 -5.52038 -0.318156 0.788677 0.519974 -0.394248 0 0 0 0 0 0 0 0 0 0 0 0 0 1 0 2 24 
37785 8 0.0397424 0.0644656 -0.00219563 0 0 0 -0.878415 -2.37317 -0.730408 0.0277995 0.0277295 -0.0962064 0 0 0 0 0 0 0 1 0 0 0 0 0 0 0 0 6 
38196 8 0.00704025 0.0724069 -0.00416649 0 0 0 1.13512 6.4482 -9.2747 -0.367033 -0.25566 1.02414 0 0 0 0 0 0 0 1 0 0 0 0 0 0 0 0 1 
37925 4 0.0314067 0.069192 -0.00287465 0 0 0 0.145044 -3.22889 -1.04322 0.494514 -0.00903765 -0.307088 0 0 0 1 0 0 0 0 0 0 0 0 0 0 0 2 11 
37696 12 0.0474573 0.0594138 -0.012691 0 0 0 -0.325321 -1.64679 1.12251 0.000533612 0.00595784 0.00550722 0 0 0 0 0 0 0 0 0 0 0 1 0 0 0 0 5 
38206 8 0.00630463 0.0439118 0.00825195 0 0 0 -0.313856 -3.74273 16.32 -0.257245 0.339593 -0.460939 0 0 0 0 0 0 0 0 0 0 0 0 0 0 0 0 0 
36426 14 0.0325721 0.074958 -0.0346669 0 0 0 -1.32094 1.13151 -0.0478289 -0.0796942 0.40371 0.219173 0 0 0 0 0 0 0 1 0 0 0 1 0 2 0 0 38 
36331 12 0.00685939 0.0702895 0.00413575 0 0 0 4.19385 2.73182 -11.2681 -0.660175 -1.0931 0.323278 0 0 0 0 0 0 0 1 0 0 0 2 0 0 0 0 42 
38142 12 0.0147154 0.0573511 -0.00145388 0 0 0 0.954826 -17.5625 0.508291 0 -0.000227443 0 0 0 0 0 0 0 0 0 0 0 0 0 0 0 0 0 0 
38048 16 0.0324497 0.0569985 0.00019565 0 0 0 -0.514121 -6.61434 4.27547 -0.0933276 0.165648 0.255442 0 0 0 0 0 0 0 0 0 0 0 0 0 0 0 0 2 
37259 16 0.0265811 0.0449571 -0.0335636 0 0 0 -9.31787 -1.5625 10.3939 -0.42015 -0.581725 0.122695 0 0 0 0 0 0 0 0 0 0 0 0 0 0 0 2 8 
37939 8 0.042058 0.0720949 0.00498002 0 0 0 1.16302 -0.712653 0.171983 1.41638 -0.092859 0.666537 0 0 0 0 0 0 0 2 0 0 0 0 0 0 0 0 8 
38160 14 0.0360783 0.0279415 -0.0322577 0 0 0 -2.58692 3.94872 6.75874 0 -0.000206096 0 0 0 0 0 0 0 0 0 0 0 0 0 0 0 0 0 0 
37697 8 0.0067827 0.0621388 0.00620896 0 0 0 3.3503 0.746213 -0.669943 -0.922778 -4.48085 -1.25922 0 0 0 0 0 0 0 0 0 0 0 1 0 0 0 0 10 
38045 16 0.0402913 0.058903 0.00528568 0 0 0 0.177564 -1.1864 0.178003 0.0689852 0.0553362 -0.119803 0 0 0 0 0 0 0 0 0 0 0 0 0 1 0 0 2 
38167 12 0.0160101 0.0669872 -4.9558e-05 0 0 0 0.180831 -6.63954 -13.7166 -1.59198 -0.296399 0.905608 0 0 0 0 0 0 0 0 0 0 0 0 0 0 0 1 1 
28288 16 0.0344846 0.0664786 0.0051266 0 0 0 0.00180174 -1.30188 -0.11351 -0.0883028 0.0551675 0.0236602 0 0 0 1 0 0 0 1 0 0 0 0 0 0 0 0 209 
38000 14 0.0436443 0.0403225 -0.034216 0 0 0 1.66229 3.33908 4.75576 -0.564421 0.3939 0.0539056 0 0 0 0 0 0 0 0 0 0 0 0 0 1 0 0 2 
37268 8 0.0262987 0.0738864 0.00405263 0 0 0 0.578178 -11.7109 -2.54279 0 -0.000268443 0 0 0 0 0 0 0 0 0 0 0 0 0 0 0 0 0 16 
38040 15 0.0172805 0.0746243 0.00561008 0 0 0 -1.70663 -5.4419 -1.71396 -0.0973516 -0.289547 0.0690132 0 0 0 0 0 0 0 0 0 0 0 0 0 0 2 0 4 
38260 14 0.0375831 0.0496886 -0.0335661 0 0 0 -2.91932 11.2433 20.8998 -1.04224 -1.28617 0.811281 0 0 0 0 0 0 0 1 0 0 0 0 0 1 0 0 2 
37459 8 0.0128803 0.0432267 -0.0348086 0 0 0 0.255425 -1.1955 6.70747 0 -0.000268443 0 0 0 0 0 0 0 0 0 0 0 0 0 0 0 0 0 8 
36695 6 0.00627478 0.0393327 0.0211816 0 0 0 2.33425 -5.6569 10.6547 0.0582535 -0.146216 -0.140266 0 0 0 0 0 1 0 0 0 0 0 0 0 0 0 0 32 
38281 14 0.0437516 0.0369113 0.0200569 0 0 0 2.9657 -4.1934 8.90155 0.265795 0.0939592 -0.266415 0 0 0 0 0 0 0 0 0 0 0 0 0 2 0 0 2 
38109 15 0.0173871 0.0393414 0.0214864 0 0 0 -0.129994 -10.6871 19.728 -0.140508 0.0045163 -0.228455 0 0 0 0 0 0 0 0 0 0 0 0 0 0 2 0 5 
1068 8 0.0164756 0.048937 0.0244753 0 0 0 -0.0111822 -12.2542 24.4745 -0.00609766 -0.333968 -0.161452 0 0 0 0 0 0 0 2 0 0 0 0 0 0 0 0 4396 
38070 8 0.034892 0.0479224 0.0140105 0 0 0 3.89033 -7.88865 6.91354 0 -0.000268443 0 0 0 0 0 0 0 0 0 0 0 0 0 0 0 0 0 2 
38263 16 0.00679915 0.0314833 0.026499 0 0 0 -0.132782 -6.91841 9.17564 -0.0180838 -0.942059 -0.905115 0 0 0 0 0 0 0 0 0 0 0 0 0 0 0 2 2 
38044 16 0.0219814 0.032007 0.0231847 0 0 0 4.89506 -9.53806 13.5404 -0.239009 0.157126 -1.00708 0 0 0 0 0 0 0 0 0 0 0 0 0 0 1 1 6 
37812 12 0.0264276 0.0209262 0.051671 0 0 0 3.26269 -6.29364 2.33489 -0.406816 -0.729768 0.232598 0 0 0 0 0 0 0 0 0 0 0 1 0 0 0 0 4 
38238 6 0.0364915 0.0381968 0.0243678 0 0 0 3.06182 -3.53681 9.67534 -0.188289 0.112833 0.0843438 0 0 0 0 0 1 0 0 0 0 0 0 0 1 0 0 2 
37378 4 0.0120789 0.0415011 0.0275482 0 0 0 1.64187 -15.1955 22.8139 -0.505019 -0.804623 -2.81669 0 0 0 4 0 0 0 0 0 0 0 0 0 0 1 0 15 
38096 14 0.0285331 0.0435844 0.0210102 0 0 0 1.78731 -1.99408 10.4592 0 -0.000206096 0 0 0 0 0 0 0 0 0 0 0 0 0 0 0 0 0 2 
38165 8 0.00742534 0.0503946 0.0235929 0 0 0 -3.2313 -5.39886 14.2266 -0.439789 -0.606009 0.21512 0 0 0 0 0 0 0 1 0 0 0 0 0 0 0 0 1 
1499 14 0.0209451 0.0431485 0.0322697 0 0 0 0.154964 -16.0838 21.6972 -0.00676429 -0.123652 -0.205909 0 0 0 0 0 0 0 0 0 0 0 0 0 4 0 0 4924 
1434 12 0.0186364 0.0468223 0.0283164 0 0 0 0.00960681 -14.2002 23.4213 -0.0143936 -0.273991 -0.171263 0 0 0 1 0 0 0 1 0 0 0 0 0 1 0 0 5473 
38278 12 0.02721 0.0283566 0.0292892 0 0 0 10.3755 -9.62688 9.75262 0.210703 0.232802 -0.458859 0 0 0 0 0 0 0 0 0 0 0 1 0 0 0 1 2 
38084 16 0.0169342 0.0350521 0.0307328 0 0 0 1.7269 -13.6445 15.9703 2.14395 -0.279093 1.03751 0 0 0 1 0 0 0 0 0 0 0 0 0 1 0 1 6 
37634 8 0.0294136 0.0372411 0.0291999 0 0 0 5.45589 -12.6188 11.173 0.328928 0.102693 0.393433 0 0 0 0 0 1 0 1 0 0 0 0 0 0 0 0 5 
38035 12 0.00569981 0.0400028 0.0297325 0 0 0 -0.745277 -11.1331 11.4722 -0.485316 0.439423 -1.617 0 0 0 1 0 1 0 0 0 0 0 1 0 0 0 1 7 
38129 8 0.0434114 0.0465796 0.0304574 0 0 0 4.75665 -6.25377 8.83999 0.0407542 0.0401475 -0.0538902 0 0 0 0 0 0 0 0 0 0 0 0 0 0 0 0 2 
38112 4 0.0292097 0.0444427 0.0340731 0 0 0 8.62853 -9.34794 11.1331 -2.25609 2.10078 0.442265 0 0 0 0 0 0 0 1 0 0 0 0 0 1 0 0 3 