ITEM: TIMESTEP
39300000
ITEM: NUMBER OF ATOMS
2650
ITEM: BOX BOUNDS ff ff ff
-0.01 0.45
-0.15 0.15
-0.08 0.1
ITEM: ATOMS id type x y z ix iy iz vx vy vz fx fy fz c_cc_1 c_cc_2 c_cc_3 c_cc_4 c_cc_5 c_cc_6 c_cc_7 c_cc_8 c_cc_9 c_cc_10 c_cc_11 c_cc_12 c_cc_13 c_cc_14 c_cc_15 c_cc_16 f_fppacc 
38492 8 0.0280516 -0.0227464 -0.0386789 0 0 0 0.0160021 19.463 -11.024 0.00511099 0.0726767 -0.0416738 0 0 0 0 0 0 0 1 0 0 0 0 0 0 0 0 2 
1027 11 0.0224506 -0.0342449 -0.0435512 0 0 0 0.0142162 21.7963 -17.0046 0.0030154 0.153424 0.196942 0 0 0 0 0 0 0 0 0 0 2 0 0 0 0 0 2823 
58 1 0.025329 -0.0226187 -0.0451299 0 0 0 0.0080135 22.6088 -11.2857 3.40929e-05 0.06285 0.125792 2 0 0 0 0 0 0 1 0 0 0 0 0 0 0 0 2401 
38508 8 0.0167239 -0.0236393 -0.0502684 0 0 0 -1.48732 12.779 -6.99484 1.36873 -1.27692 0.054149 0 0 0 0 0 0 0 2 0 0 0 0 0 0 0 0 4 
38449 12 0.0277268 -0.0164363 -0.0520249 0 0 0 -0.00979159 26.0082 -8.22718 0.000538409 0.0980913 0.300996 0 0 0 0 0 0 0 0 0 0 0 2 0 0 0 0 11 
38672 16 0.0120097 -0.0162802 -0.0528397 0 0 0 -2.9062 10.6663 -3.7423 -0.555973 0.679001 0.0740095 0 0 0 0 0 0 0 1 0 0 0 0 0 0 0 0 1 
31246 16 0.0296754 -0.0112438 -0.0535327 0 0 0 0.00558089 26.7621 -5.62156 0.000238694 0.0771086 0.366392 0 0 0 0 0 0 0 0 0 0 0 1 0 0 0 0 99 
38702 14 0.0431958 -0.016852 -0.0528996 0 0 0 0.611727 10.9428 -3.57223 0.0333813 0.0345497 0.108643 0 0 0 0 0 0 0 0 0 0 0 0 0 1 0 0 1 
37838 16 0.0311598 -0.00600035 -0.0538301 0 0 0 -0.00945491 26.912 -3.01787 4.96444e-05 0.0414733 0.368191 0 0 0 0 0 0 0 0 0 0 0 0 0 0 0 0 5 
1152 15 0.0221813 -0.031404 -0.0430406 0 0 0 0.027446 21.5668 -15.6613 0.000522557 0.176384 0.239828 0 0 0 0 0 0 0 0 0 0 1 0 0 0 1 0 1785 
11811 8 0.026253 -0.0219287 -0.0504158 0 0 0 -0.0384748 25.0794 -10.9258 0.0220002 0.169655 0.353548 1 0 0 0 0 0 0 1 0 0 0 1 0 0 0 0 413 
38395 12 0.00659365 -0.0285164 -0.0476402 0 0 0 -4.91876 7.55808 -4.36722 -0.00958749 0.0592695 0.124458 0 0 0 0 0 0 0 0 0 0 0 0 0 0 0 0 4 
38009 16 0.0425828 -0.0241119 -0.0471391 0 0 0 1.40587 9.94867 -4.73115 -0.00358247 -0.00561629 0.0098593 0 0 0 0 0 0 0 0 0 0 0 0 0 1 0 0 4 
38681 16 0.0441129 -0.0111985 -0.045371 0 0 0 -3.55411 13.6621 -4.53219 0 -0.000268494 0 0 0 0 0 0 0 0 0 0 0 0 0 0 0 0 0 0 
38309 12 0.0299024 -0.00400336 -0.0447867 0 0 0 -0.0351146 22.4 -2.00542 -0.00150048 0.0233891 0.259579 0 0 0 0 0 0 0 0 0 0 0 0 0 0 0 0 3 
38465 8 0.00836392 -0.035468 -0.0421747 0 0 0 -3.51687 7.30296 -4.50868 0 -0.000268443 0 0 0 0 0 0 0 0 0 0 0 0 0 0 0 0 0 4 
24 14 0.0234349 -0.0285716 -0.0475606 0 0 0 0.0476484 23.6203 -14.0609 0.0339919 0.140614 0.248375 1 0 0 0 0 0 0 2 0 0 1 0 0 0 1 0 3985 
38695 8 0.00652706 -0.0456485 -0.031636 0 0 0 0.0165022 1.94086 -2.12184 0.020572 -0.178593 0.0213608 0 0 0 0 0 0 0 1 0 0 0 0 0 0 0 0 1 
37632 16 0.0085779 -0.0518761 0.00147504 0 0 0 1.59681 1.89028 -6.69155 0.039995 0.0490634 0.0537028 0 0 0 0 0 0 0 0 0 0 0 0 0 0 0 1 10 
38099 16 0.0436019 -0.0509781 0.000398972 0 0 0 -4.82931 -2.84367 -18.2471 0 -0.000268494 0 0 0 0 0 0 0 0 0 0 0 0 0 0 0 0 0 7 
38715 8 0.0352218 -0.0552817 0.00519805 0 0 0 -5.77123 -1.211 -12.8082 -0.0440696 -0.177499 0.0413051 0 0 0 0 0 0 0 0 0 0 0 0 0 0 0 0 0 
38486 16 0.0180876 -0.0406648 -0.0343249 0 0 0 5.50279 10.3461 -10.6529 0 -0.000268494 0 0 0 0 0 0 0 0 0 0 0 0 0 0 0 0 0 1 
38566 12 0.0472853 -0.0456214 -0.0316141 0 0 0 2.26282 3.9224 -5.54745 -0.000268723 -0.00135066 -0.0001638 0 0 0 0 0 0 0 0 0 0 0 0 0 0 0 0 1 
38568 14 0.00722968 -0.0312746 -0.0330408 0 0 0 0.56319 5.62698 -8.22219 0 -0.000206096 0 0 0 0 0 0 0 0 0 0 0 0 0 0 0 0 0 1 
37926 6 0.0067045 -0.0498571 -0.0240688 0 0 0 1.73286 2.85636 -0.551311 0.00312539 0.104112 -0.0716367 0 0 0 0 0 0 0 1 0 0 0 0 0 0 0 0 17 
37985 8 0.0450837 -0.0513875 -0.0209772 0 0 0 1.37932 2.01184 -4.93448 -0.000639925 0.000918172 0.000479719 0 0 0 0 0 0 0 0 0 0 0 0 0 0 0 0 11 
38505 8 0.0364464 -0.0391058 -0.0275509 0 0 0 -1.28903 3.71364 -9.97515 0 -0.000268443 0 0 0 0 0 0 0 0 0 0 0 0 0 0 0 0 0 2 
38513 12 0.0384555 -0.0523071 -0.00865211 0 0 0 -2.54847 1.42462 -3.36048 0 -0.000227443 0 0 0 0 0 0 0 0 0 0 0 0 0 0 0 0 0 2 
38611 14 0.00648218 -0.0548736 -0.00701142 0 0 0 -0.113541 0.5438 -6.04127 0.0517969 -0.0291176 -0.0126 0 0 0 0 0 0 0 0 0 0 0 0 0 0 0 1 1 
38630 14 0.0256733 -0.0551901 0.00593257 0 0 0 0.625474 -0.792879 -7.52988 -0.000231106 0.0124644 -0.00162504 0 0 0 0 0 0 0 0 0 0 0 0 0 0 0 0 0 
22235 16 0.0460211 -0.0333797 0.00850385 0 0 0 0.25108 -4.44096 -16.9311 0.237077 0.343096 0.954677 0 0 0 0 0 0 0 0 0 0 0 0 0 0 0 2 212 
38450 12 0.0116962 -0.0168248 0.0476984 0 0 0 2.10545 -7.02871 -4.22836 -0.0132181 0.0441512 -0.0639924 0 0 0 0 0 0 0 0 0 0 0 0 0 0 0 0 2 
38519 12 0.017131 -0.0540353 0.0131509 0 0 0 -4.18801 -1.41423 -10.1841 -0.084724 -0.856322 0.328437 0 0 0 0 0 0 0 0 0 0 0 0 0 0 0 0 1 
38441 8 0.0354219 -0.0528217 0.0139394 0 0 0 -9.05127 -1.14477 -12.3402 0 -0.000268443 0 0 0 0 0 0 0 0 0 0 0 0 0 0 0 0 0 2 
38161 14 0.023907 -0.0457369 0.0130451 0 0 0 -4.20795 -6.67161 -13.9153 0.000807818 -0.0163792 0.00964205 0 0 0 0 0 0 0 0 0 0 0 0 0 0 0 0 10 
37823 15 0.00898629 -0.00560243 0.0544435 0 0 0 0.147715 -6.66779 -2.16499 0 -0.000216769 0 0 0 0 0 0 0 0 0 0 0 0 0 0 0 0 0 13 
27809 14 0.0394908 -0.0293369 0.0136783 0 0 0 0.0125617 -6.8154 -14.6707 0.0377661 0.0634903 -0.0863572 0 0 0 0 0 0 0 0 0 0 0 0 0 1 0 0 38 
36119 14 0.024074 -0.0520579 0.0193955 0 0 0 -3.44672 -3.79178 -10.4128 -0.0940179 0.191636 -0.100312 0 0 0 0 0 0 0 0 0 0 0 0 0 0 0 0 48 
385 16 0.0473199 -0.053681 0.0110316 0 0 0 0.00475954 -5.52394 -26.8491 -2.75351e-05 0.367482 -0.0756788 0 0 0 0 0 0 0 0 0 0 0 0 0 0 0 1 2844 
20630 6 0.0429522 -0.039563 0.013821 0 0 0 0.511532 -7.34907 -21.0926 197.108 20.243 58.4819 0 0 0 0 0 1 0 0 0 0 0 0 0 0 0 0 196 
38644 8 0.00649509 -0.04968 0.0236379 0 0 0 0.01108 -2.06132 -6.51548 0.00474077 0.00197318 0.000770631 0 0 0 0 0 0 0 0 0 0 0 0 0 0 0 0 0 
37713 14 0.0282457 -0.0484614 0.0264352 0 0 0 -2.75615 -5.01087 -10.2279 -0.133827 -0.0555077 -0.0118445 0 0 0 0 0 0 0 0 0 0 0 0 0 1 0 0 10 
965 11 0.0444566 -0.052667 0.0156145 0 0 0 -0.00792999 -7.81573 -26.3206 -0.000192397 0.235521 -0.0702594 0 0 0 0 0 0 0 0 0 0 1 0 0 0 0 1 4075 
38693 16 0.0110946 -0.0416297 0.0248314 0 0 0 -3.39738 1.62007 -11.712 0 -0.000268494 0 0 0 0 0 0 0 0 0 0 0 0 0 0 0 0 0 0 
22977 16 0.0390853 -0.0389699 0.0221178 0 0 0 0.178884 -10.2713 -19.6849 0.0680124 10.8662 -3.88865 0 0 0 0 0 0 0 0 0 0 0 0 0 0 0 1 189 
16581 4 0.0409622 -0.051088 0.0207579 0 0 0 0.000312933 -10.3767 -25.5452 -1.9693e-05 0.296032 -0.120296 0 0 0 0 0 0 0 0 0 0 1 0 0 0 0 0 278 
38562 16 0.0212453 -0.0447132 0.0324631 0 0 0 -2.62654 -3.37578 -5.06688 0.340302 0.436792 0.670814 0 0 0 0 0 0 0 0 0 0 0 0 0 0 0 1 1 
1201 8 0.0368548 -0.046202 0.0268982 0 0 0 0.00674905 -13.4531 -23.1134 -0.0997527 0.46991 -0.453557 0 0 0 0 0 0 0 0 0 0 0 0 0 1 0 1 1952 
38312 14 0.0113636 -0.0393631 0.0350912 0 0 0 -3.73984 -11.4444 -4.57166 0 -0.000206096 0 0 0 0 0 0 0 0 0 0 0 0 0 0 0 0 0 1 
38489 16 0.0134845 -0.0252442 0.0341269 0 0 0 -4.32995 -10.5668 -4.00035 0 -0.000268494 0 0 0 0 0 0 0 0 0 0 0 0 0 0 0 0 0 1 
38300 8 0.0254633 -0.0394631 0.0387492 0 0 0 2.46447 -4.42586 -5.87938 0.0230328 -0.168352 0.017513 0 0 0 0 0 0 0 0 0 0 0 0 0 0 0 1 3 
35070 8 0.0191823 -0.0343159 0.0349945 0 0 0 -2.42157 -11.4851 -6.6584 -0.0604178 0.155859 -0.0866249 0 0 0 0 0 0 0 0 0 0 0 0 0 0 0 0 38 
38708 6 0.00621111 -0.0211718 0.0410289 0 0 0 0.437826 -6.97719 0.801528 0 -0.000206046 0 0 0 0 0 0 0 0 0 0 0 0 0 0 0 0 0 0 
38287 12 0.00653534 -0.0119542 0.0422949 0 0 0 -0.563356 -5.92535 -2.65503 0.0132181 -0.0446061 0.0639924 0 0 0 0 0 0 0 0 0 0 0 0 0 0 0 0 1 
38596 16 0.0149008 -0.0316592 0.0452171 0 0 0 -1.97579 -4.40469 -2.85791 0 -0.000268494 0 0 0 0 0 0 0 0 0 0 0 0 0 0 0 0 0 2 
37347 8 0.0238983 -0.0272589 0.0483605 0 0 0 -1.08331 -7.97617 -4.47377 -0.00262381 0.0212128 -0.0361166 0 0 0 0 0 0 0 0 0 0 0 0 0 0 0 0 17 
38426 4 0.00636468 -0.0231608 0.0507736 0 0 0 0.60314 -4.56692 -2.13814 0.0048783 -0.00789582 0.00542759 0 0 0 0 0 0 0 0 0 0 0 0 0 0 0 0 0 
18622 14 0.00068569 -0.00349188 0.0584709 0 0 0 -4.0194e-06 -1.94539e-07 6.6166e-07 2.905e-06 1.67158e-07 -5.50449e-07 0 0 0 0 0 0 0 0 0 0 0 0 0 0 0 0 50 
38456 8 0.0215403 -0.00680528 0.0550949 0 0 0 -0.316121 -9.64455 -1.16081 0.000226731 0.00962115 -0.0771223 0 0 0 0 0 0 0 0 0 0 0 0 0 0 0 0 4 
38560 16 0.0427563 0.0102777 -0.0553661 0 0 0 10.8017 19.3624 1.07277 0.669041 0.605672 0.373641 0 0 0 0 0 0 0 0 0 0 0 0 0 0 0 1 2 
38683 8 0.0153559 0.0223666 -0.0535954 0 0 0 6.61174 13.5127 0.0300143 0.00652483 0.0177252 0.0204702 0 0 0 0 0 0 0 1 0 0 0 0 0 0 0 0 1 
38587 8 0.0377391 0.0187695 -0.0554148 0 0 0 7.14279 12.0993 0.158954 0 -0.000268443 0 0 0 0 0 0 0 0 0 0 0 0 0 0 0 0 0 0 
37830 8 0.033537 0.0279124 -0.0554475 0 0 0 11.466 17.3486 0.210281 -2.75359 -3.90767 0.780553 0 0 0 0 0 0 0 1 0 0 0 0 0 0 0 0 11 
38539 16 0.0471797 0.0194304 -0.0537448 0 0 0 0.885724 0.661852 1.90924 0 -0.000268494 0 0 0 0 0 0 0 0 0 0 0 0 0 0 0 0 0 0 
26944 15 0.001 0.0271536 -0.0546495 0 0 0 3.31203e-14 -2.87547e-22 2.35207e-23 0 0 -3.82141e-23 0 0 0 0 0 0 0 0 0 0 0 0 0 0 0 0 41 
37121 8 0.0474652 0.028692 -0.055008 0 0 0 1.75373 0.74176 -0.689577 0 -0.000268443 0 0 0 0 0 0 0 0 0 0 0 0 0 0 0 0 0 19 
38573 8 0.0235997 0.0341314 -0.053292 0 0 0 6.08342 -3.35529 3.07255 -0.00991982 -0.0376062 -0.000718312 0 0 0 0 0 0 0 1 0 0 0 0 0 0 0 0 1 
38612 15 0.028075 0.0415492 -0.0555225 0 0 0 2.89329 -1.90292 0.138412 -0.0655724 -0.0546951 -0.000721725 0 0 0 0 0 0 0 1 0 0 0 0 0 0 1 0 2 
38635 12 0.0400374 0.0420767 -0.0555104 0 0 0 -0.819633 -0.00823249 0.277029 0.0313674 0.00552799 0.026934 0 0 0 0 0 0 0 0 0 0 0 3 0 0 0 0 3 
38673 8 0.00974152 0.0471758 -0.0548673 0 0 0 4.03905 -0.591784 0.804501 -0.124128 -0.327763 -0.00158672 0 0 0 0 0 0 0 1 0 0 0 0 0 0 0 0 1 
38670 15 0.0212475 0.0510241 -0.0553144 0 0 0 1.28012 -1.33154 0.316699 -0.0461396 -0.0941942 -0.0743829 0 0 0 0 0 0 0 0 0 0 0 0 0 0 2 0 2 
38491 8 0.0320105 0.0494796 -0.0544327 0 0 0 -0.0231241 -0.138614 -0.0820207 -0.0317465 -0.057154 0.0615501 0 0 0 0 0 0 0 0 0 0 0 0 0 0 1 0 4 
38617 8 0.0462476 0.0485804 -0.0554605 0 0 0 0.683356 -1.30234 -0.156881 -0.104893 -0.0582294 0.0325171 0 0 0 0 0 0 0 0 0 0 0 1 0 0 0 0 2 
38590 12 0.00982446 0.0559983 -0.0545401 0 0 0 -0.323609 0.461788 -0.799534 0.0589424 0.0309033 -0.00952279 0 0 0 0 0 0 0 1 0 0 0 1 0 0 0 0 3 
38662 8 0.0393595 0.054371 -0.0555676 0 0 0 0.603367 -0.48159 0.18067 -0.11056 -0.0643453 0.0178081 0 0 0 0 0 0 0 2 0 0 0 0 0 0 0 0 2 
36695 6 0.014939 0.0628225 -0.0558104 0 0 0 0.597827 -0.608328 0.180676 0.0265189 0.193594 -0.101987 0 0 0 0 0 2 0 0 0 0 0 1 0 0 0 0 39 
37006 8 0.0239598 0.0595344 -0.0551927 0 0 0 0.742378 -0.865406 0.575675 -0.17403 -0.1824 0.0691097 0 0 0 0 0 0 0 2 0 0 0 0 0 0 1 0 37 
38148 16 0.0315719 0.0642452 -0.0529914 0 0 0 -0.403264 -0.420529 1.09645 0.0739112 -0.0599723 0.036461 0 0 0 0 0 0 0 1 0 0 0 0 0 0 0 3 7 
38463 15 0.0404614 0.0631693 -0.054964 0 0 0 -0.369823 -0.324548 0.0856168 -0.0235745 -0.074294 0.0257694 0 0 0 0 0 0 0 1 0 0 0 0 0 0 3 1 6 
38245 12 0.00645046 0.0644249 -0.0554988 0 0 0 0.176637 -0.638906 0.155634 0.0467727 -0.0351174 -0.00210923 0 0 0 0 0 1 0 0 0 0 0 1 0 0 0 0 6 
38289 14 0.0238797 0.06849 -0.0555933 0 0 0 -0.41043 -0.411204 -0.410333 0.0476975 -0.14863 0.164564 0 0 0 0 0 0 0 1 0 0 0 0 0 2 0 1 14 
36794 14 0.00772934 0.0732556 -0.0552239 0 0 0 -1.10981 -0.414213 0.867122 -0.126461 0.0418532 -0.0156587 0 0 0 0 0 0 0 0 0 0 0 1 0 2 0 0 27 
37356 12 0.0159009 0.0708379 -0.0526928 0 0 0 -0.375326 -0.0881642 -1.49637 -0.132222 -0.0373755 -0.16998 0 0 0 0 0 1 0 0 0 0 0 1 0 2 0 0 22 
34979 16 0.0330628 0.0734056 -0.0552652 0 0 0 0.284054 -0.614564 0.0433013 -0.0410164 -0.034858 -0.0103554 0 0 0 0 0 0 0 0 0 0 0 0 0 0 0 4 113 
38285 16 0.0352265 0.0323942 -0.0474949 0 0 0 0.863581 -2.61939 1.41647 2.75359 3.90713 -0.780553 0 0 0 0 0 0 0 1 0 0 0 0 0 0 0 0 3 
2590 12 0.000846016 0.0414709 -0.0461721 0 0 0 0.00133408 0.0147927 0.00565789 -0.00297816 0.0192445 0.00477347 0 0 0 0 0 0 0 0 0 0 0 0 0 0 0 0 820 
38634 12 0.0326364 0.0413199 -0.0455862 0 0 0 -0.374663 -2.34175 1.76976 -0.000944399 -0.00284197 0.00204888 0 0 0 0 0 0 0 0 0 0 0 1 0 0 0 0 3 
37709 8 0.0384291 0.0475148 -0.04856 0 0 0 -1.20556 -1.34071 2.05471 -0.0132557 -0.0110568 -0.0704947 0 0 0 0 0 0 0 0 0 0 0 2 0 0 0 0 8 
38162 16 0.0154811 0.0518141 -0.0481227 0 0 0 1.07104 -2.32356 0.517996 -0.033508 -0.0726305 0.000527498 0 0 0 0 0 0 0 0 0 0 0 0 0 0 1 1 9 
28140 8 0.0322347 0.0561875 -0.048539 0 0 0 2.5065 -0.636126 1.32335 -0.0150522 -0.10382 0.0345599 0 0 0 0 0 0 0 1 0 0 0 0 0 0 0 1 262 
38480 14 0.0191298 0.0602581 -0.0475625 0 0 0 0.823625 -1.70136 0.719617 -0.0883406 -0.135557 -0.00375063 0 0 0 0 0 0 0 0 0 0 0 0 0 1 0 1 4 
38704 15 0.0432266 0.0603576 -0.0464809 0 0 0 -0.736268 -0.618919 -0.186574 -0.0151482 0.0891758 -0.00296573 0 0 0 0 0 0 0 0 0 0 0 0 0 0 2 0 2 
36812 15 0.00774055 0.0718937 -0.0455822 0 0 0 -0.953165 1.59795 0.768893 0.0239599 0.416102 -0.110359 0 0 0 0 0 0 0 0 0 0 0 0 0 0 1 0 28 
37625 12 0.0244014 0.0744767 -0.0470703 0 0 0 0.129383 0.0412433 -0.0895812 -0.0303008 -0.145631 0.112337 0 0 0 0 0 0 0 0 0 0 0 3 0 0 0 0 24 
37272 8 0.0325883 0.070816 -0.0464515 0 0 0 -0.0588643 -0.222338 0.226027 -0.0206789 -0.30201 -0.037744 0 0 0 0 0 0 0 3 0 0 0 1 0 0 0 1 22 
37829 8 0.0408323 0.0710269 -0.0508201 0 0 0 0.465821 -0.313528 -0.468304 0.0588964 0.00329931 -0.174894 0 0 0 0 0 0 0 2 0 0 0 0 0 0 1 1 26 
37704 14 0.0145324 0.0257611 -0.0453374 0 0 0 7.24197 11.0593 1.56694 -0.00652483 -0.0181998 -0.0204702 0 0 0 0 0 0 0 1 0 0 0 0 0 0 0 0 14 
38541 8 0.0399864 0.0230846 -0.0444159 0 0 0 14.2582 2.03705 0.275212 0.0354305 0.230724 0.050754 0 0 0 0 0 0 0 0 0 0 0 0 0 0 0 0 3 
38604 8 0.043322 0.0305592 -0.0409409 0 0 0 6.6769 4.4842 7.49297 -0.266987 -0.73315 0.159327 0 0 0 0 0 0 0 1 0 0 0 0 0 0 0 0 1 
38490 8 0.00868003 0.0387246 -0.0399302 0 0 0 7.07066 5.762 16.8057 -0.351821 -1.06533 -0.143746 0 0 0 0 0 0 0 1 0 0 0 0 0 0 0 0 2 
38705 4 0.0407767 0.0395291 -0.0429005 0 0 0 -0.0869047 -0.850232 3.18766 0 -0.000227392 0 0 0 0 0 0 0 0 0 0 0 0 0 0 0 0 0 0 
38600 12 0.0104424 0.0469831 -0.0415622 0 0 0 3.27294 5.40747 4.23498 0.528171 -0.250056 -0.160306 0 0 0 0 0 0 0 1 0 0 0 1 0 0 0 0 3 
38625 8 0.0275073 0.0489499 -0.0461306 0 0 0 1.06138 -0.809436 0.179984 -0.0102847 -0.118459 -0.0684238 0 0 0 0 0 0 0 1 0 0 0 0 0 0 0 0 2 
38586 8 0.03873 0.0511868 -0.0403688 0 0 0 -0.0373352 -2.02637 2.52824 0.00325068 -0.00810371 -0.00813113 0 0 0 0 0 0 0 0 0 0 0 0 0 0 0 0 0 
38717 16 0.00884338 0.0557957 -0.0408953 0 0 0 2.17439 4.20753 2.53999 0.25546 0.794295 0.151637 0 0 0 0 0 0 0 0 0 0 0 1 0 0 0 1 2 
38688 14 0.0248603 0.0563138 -0.0418307 0 0 0 1.31242 -1.17997 0.711686 -0.352142 -0.0830215 -0.0180177 0 0 0 0 0 0 0 1 0 0 0 0 0 2 0 0 3 
37805 7 0.00613703 0.0638354 -0.0430944 0 0 0 -0.262617 2.5913 2.84317 -0.022578 0.447647 -0.0343368 0 0 0 0 0 0 0 0 0 0 0 0 0 0 1 1 10 
37098 8 0.0264474 0.064642 -0.0446837 0 0 0 -0.246992 0.0580885 1.80856 -0.161208 -0.212774 0.0263067 0 0 0 0 0 0 0 1 0 0 0 0 0 1 0 0 16 
38024 12 0.0328869 0.0598063 -0.0403646 0 0 0 0.0625691 0.335184 1.57195 0.0410416 0.00121235 -0.090486 0 0 0 0 0 0 0 1 0 0 0 1 0 1 0 0 6 
37875 12 0.0184338 0.0686411 -0.0447177 0 0 0 -0.974064 -0.432309 -1.93181 -0.168953 -0.353577 0.110971 0 0 0 0 0 0 0 1 0 0 0 1 0 1 0 0 11 
38516 16 0.0389428 0.0666775 -0.0412421 0 0 0 -0.0564855 -0.519485 0.370854 0.231784 -0.0116911 0.00143392 0 0 0 0 0 0 0 1 0 0 0 1 0 0 1 2 7 
38700 14 0.0388015 0.000484655 -0.0480789 0 0 0 -0.204857 20.5674 0.440645 0.0588735 -0.00266052 0.108194 0 0 0 0 0 0 0 0 0 0 0 0 0 0 0 0 0 
38112 4 0.0412954 0.0732149 -0.0356645 0 0 0 0.449697 -1.02059 0.468679 0.0569501 0.0396232 -0.0168747 0 0 0 4 0 0 0 0 0 0 0 0 0 0 0 1 14 
38420 12 0.0311367 0.0124017 -0.0555109 0 0 0 -2.87698 28.3755 0.161696 -0.174047 0.254328 -0.150431 0 0 0 0 0 0 0 0 0 0 0 1 0 0 0 0 3 
38062 4 0.0146408 0.0727212 -0.0373287 0 0 0 -0.101067 0.0733488 -2.01279 0.0671887 0.327517 -0.340691 0 0 0 2 0 0 0 0 0 0 0 0 0 0 0 0 14 
38728 12 0.047491 0.0529907 -0.0436272 0 0 0 -0.255304 0.356819 0.215945 -0.0739716 0.42972 -0.218548 0 0 0 0 0 0 0 0 0 0 0 1 0 0 1 0 2 
37927 6 0.0291802 0.069063 -0.0368062 0 0 0 0.159541 -1.07596 2.84659 0.0970958 -0.00725411 -0.0619387 0 0 0 0 0 1 0 0 0 0 0 0 0 0 0 0 8 
32179 4 0.00706599 0.0693081 -0.0360836 0 0 0 -0.338096 -0.128771 1.77453 0 -0.000227392 0 0 0 0 0 0 0 0 0 0 0 0 0 0 0 0 0 129 
38609 12 0.0138152 0.0643574 -0.0389938 0 0 0 1.11333 0.585384 1.99255 -0.432522 -0.275242 0.373151 0 0 0 1 0 0 0 0 0 0 0 1 0 0 0 0 2 
38564 8 0.0357803 0.00488024 -0.0562891 0 0 0 -0.732222 29.4524 -0.434252 2.07974 1.41739 0.549366 0 0 0 0 0 0 0 0 0 0 0 1 0 0 0 1 3 
38701 14 0.0452495 0.000887475 -0.0555075 0 0 0 4.40366 16.3982 -0.00412874 -0.00156109 -0.000412083 0.0157479 0 0 0 0 0 0 0 0 0 0 0 0 0 0 0 0 0 
38413 14 0.0474949 0.0375732 -0.0533232 0 0 0 -0.180934 0.863908 1.06891 -0.0185391 0.00579385 -0.0151921 0 0 0 0 0 0 0 0 0 0 0 1 0 0 0 0 6 
36798 8 0.0331495 0.0534036 -0.033362 0 0 0 3.75184 2.19383 6.15223 0 -0.000268443 0 0 0 0 0 0 0 0 0 0 0 0 0 0 0 0 0 25 
2618 12 0.0134914 0.0511483 -0.0196375 0 0 0 -0.0447976 9.83942 25.6603 0.0150011 -0.335622 0.0577357 0 0 0 0 0 0 0 0 0 0 0 3 0 0 0 0 1646 
38615 16 0.0412437 0.048642 -0.0311959 0 0 0 3.87871 -0.446524 3.50015 -0.0254642 -0.273636 -0.00793865 0 0 0 0 0 0 0 0 0 0 0 0 0 0 0 2 2 
38623 16 0.00682159 0.0557679 -0.0296452 0 0 0 4.13849 7.47842 7.67922 1.85968 0.00642637 -0.0924223 0 0 0 0 0 0 0 0 0 0 0 0 0 0 0 3 4 
38624 16 0.0148899 0.0594141 -0.0317337 0 0 0 10.6233 -2.18817 -0.91801 0.0210262 0.109856 -1.17264 0 0 0 0 0 0 0 0 0 0 0 0 0 0 0 3 3 
38532 16 0.0349109 0.0619418 -0.0284908 0 0 0 5.80482 -1.42428 2.50026 -0.673171 0.205052 0.106451 0 0 0 0 0 0 0 0 0 0 0 0 0 0 0 4 9 
38602 14 0.019349 0.0665663 -0.0289383 0 0 0 12.0753 -0.667447 0.053759 -0.826879 -0.189214 0.241098 0 0 0 0 0 0 0 0 0 0 0 0 0 2 0 1 3 
38165 8 0.0426414 0.065544 -0.0318107 0 0 0 2.40139 -0.688697 -0.0299999 -0.366767 0.10071 -0.354091 0 0 0 0 0 0 0 3 0 0 0 0 0 0 0 1 5 
38493 12 0.0226418 0.0733819 -0.0331141 0 0 0 2.46456 4.59729 -0.293445 -0.0159427 -0.807267 0.0520735 0 0 0 0 0 0 0 0 0 0 0 3 0 1 0 0 5 
38455 8 0.035613 0.0711533 -0.0292416 0 0 0 6.52444 -0.680918 1.30222 2.10164 0.40166 -0.553143 0 0 0 0 0 0 0 2 0 0 0 0 0 0 0 1 6 
38607 8 0.0461113 0.0412255 -0.0197309 0 0 0 1.14391 4.48023 12.9651 0.149752 0.0439068 -0.0823986 0 0 0 0 0 0 0 1 0 0 0 0 0 0 0 0 3 
38626 8 0.00556247 0.0477925 -0.0190949 0 0 0 -1.51708 4.44502 11.1621 0.469919 -0.674725 0.0678831 0 0 0 0 0 0 0 3 0 0 0 1 0 0 0 0 7 
295 3 0.0149561 0.0531885 -0.0152713 0 0 0 -0.00798727 7.68092 26.5613 0.00253688 -0.237726 0.0718945 0 0 1 0 0 0 0 0 0 0 0 1 0 0 0 0 3394 
37224 8 0.000965182 0.0506439 -0.025997 0 0 0 0.472169 -0.101974 0.18781 0.0563561 0.376746 0.17009 0 0 0 0 0 0 0 0 0 0 0 0 0 0 0 1 4 
38053 12 0.0374037 0.0539451 -0.0246069 0 0 0 3.98852 -1.59616 4.73451 0.0183452 -0.0163429 -0.0104782 0 0 0 0 0 0 0 0 0 0 0 0 0 0 0 2 7 
38184 14 0.00639603 0.0618265 -0.0231914 0 0 0 0.20933 9.26041 7.79155 0.210477 0.13079 0.727243 0 0 0 0 0 0 0 0 0 0 0 0 0 1 0 1 8 
37526 4 0.00621431 0.068824 -0.0277079 0 0 0 0.163459 6.10438 0.633985 -0.0754708 0.948082 -0.962648 0 0 0 1 0 0 0 0 0 0 0 0 0 1 0 0 12 
38530 16 0.027855 0.0678302 -0.0263307 0 0 0 9.32509 5.36016 3.59142 -1.22272 -0.859883 0.53324 0 0 0 0 0 0 0 1 0 0 0 0 0 1 0 1 7 
37968 14 0.0474369 0.068446 0.00564561 0 0 0 5.04978 3.40622 -0.382269 0.0975871 -0.228933 -0.772038 0 0 0 0 0 0 0 0 0 0 0 0 0 2 0 0 14 
38523 14 0.015885 0.0743596 -0.0264801 0 0 0 -0.260272 -3.1907 -0.160766 -0.000898006 -0.498575 -0.15367 0 0 0 0 0 0 0 0 0 0 0 0 0 1 0 0 3 
38637 14 0.00575675 0.0426452 -0.0126967 0 0 0 -1.42325 3.0526 9.996 0.141156 -0.18391 0.184413 0 0 0 0 0 0 0 1 0 0 0 0 0 1 0 0 4 
38641 16 0.0185742 0.0438821 -0.00788014 0 0 0 -0.107279 3.97119 22.0665 -0.0908811 -0.298295 0.15761 0 0 0 0 0 0 0 0 0 0 0 0 0 0 0 0 0 
1434 12 0.0185484 0.0543209 -0.00655644 0 0 0 1.27788 3.26416 27.0106 -1.06753 -0.296855 0.187887 0 0 0 0 0 0 0 0 0 0 0 3 0 0 0 0 5488 
1068 8 0.0164265 0.053646 -0.0108972 0 0 0 0.0498585 5.44027 26.8429 -0.0682792 -0.357936 0.0802896 0 0 1 0 0 0 0 0 0 0 0 1 0 0 0 0 4406 
37345 15 0.0183545 0.0608032 -0.0173039 0 0 0 3.6738 2.25748 6.75558 -1.04957 -1.77898 0.0669438 0 0 0 0 0 0 0 0 0 0 0 0 0 0 2 0 22 
38096 14 0.0270758 0.0603769 -0.0177324 0 0 0 2.44339 -0.919208 1.95063 -0.294929 -0.0771995 -0.604756 0 0 0 0 0 0 0 0 0 0 0 0 0 0 1 0 8 
38614 16 0.0450606 0.061285 -0.0187185 0 0 0 5.24693 1.86542 4.24689 0 -0.000268494 0 0 0 0 0 0 0 0 0 0 0 0 0 0 0 0 0 0 
38338 14 0.0198427 0.0688226 -0.0205368 0 0 0 6.28294 0.798729 0.0610364 -0.54944 -0.374411 0.400213 0 0 0 0 0 0 0 0 0 0 0 0 0 2 1 0 12 
38565 12 0.0356103 0.0659774 -0.0202726 0 0 0 9.24602 -0.266028 1.69935 -0.282414 0.138864 0.0986558 0 0 0 0 0 0 0 0 0 0 0 2 0 0 0 1 5 
38134 16 0.00702796 0.0709891 -0.0192153 0 0 0 -1.18206 4.95401 0.355235 0.00130009 1.58837 0.0186735 0 0 0 1 0 0 0 0 0 0 0 0 0 0 0 1 10 
38322 14 0.0291539 0.071828 -0.0181563 0 0 0 11.1058 4.20564 4.28052 -0.110241 -0.16077 -0.479537 0 0 0 0 0 0 0 0 0 0 0 1 0 0 0 1 9 
37866 8 0.0381696 0.0745712 -0.021364 0 0 0 2.52112 0.703613 1.07627 0.294623 0.186027 -0.458981 0 0 0 0 0 0 0 2 0 0 0 0 0 0 0 0 33 
38726 8 0.0458213 0.0468154 -0.00915815 0 0 0 10.1264 -1.7575 8.39706 0 -0.000268443 0 0 0 0 0 0 0 0 0 0 0 0 0 0 0 0 0 0 
38627 12 0.00675774 0.0513827 -0.011126 0 0 0 0.118372 1.65868 9.9896 -0.75296 -0.648586 -1.07698 0 0 0 0 0 0 0 1 0 0 0 1 0 1 0 0 3 
1499 14 0.0209018 0.0539324 -0.00116278 0 0 0 0.0162268 0.67525 27.2025 -0.072487 -0.293401 -0.000966794 0 0 0 0 0 0 0 0 0 0 0 1 0 1 0 0 4937 
38669 12 0.0281367 0.0511262 -0.0165315 0 0 0 -6.28442 -4.7673 -4.70335 0 -0.000227443 0 0 0 0 0 0 0 0 0 0 0 0 0 0 0 0 0 0 
38518 8 0.01333 0.0609168 -0.00518405 0 0 0 -3.01523 9.08518 4.9816 -0.215706 -0.0917647 -1.09685 0 0 0 0 0 0 0 2 0 0 0 1 0 0 0 0 4 
38686 12 0.042003 0.0552513 -0.0110081 0 0 0 8.30106 -2.88208 6.7416 -0.629386 -0.20879 0.255348 0 0 0 0 0 0 0 0 0 0 0 0 0 0 0 0 0 
37972 4 0.0375107 0.0719368 0.00591307 0 0 0 3.29626 3.65506 0.301021 -0.231799 -0.147092 -0.0411583 0 0 0 2 0 0 0 0 0 0 0 0 0 0 0 0 28 
38665 14 0.0322688 0.0645291 -0.0121783 0 0 0 2.95228 0.946074 -1.11874 -0.570646 0.0903613 0.0154315 0 0 0 0 0 0 0 0 0 0 0 1 0 2 0 0 3 
38319 12 0.0391103 0.0719275 -0.0129239 0 0 0 0.652602 0.960603 0.0637603 -0.136083 -0.0315332 -0.223957 0 0 0 0 0 0 0 1 0 0 0 3 0 0 0 0 11 
38201 14 0.00600206 0.043762 -0.00405803 0 0 0 -1.47493 4.14111 11.6334 0.0311346 -0.12039 -0.00866734 0 0 0 0 0 0 0 0 0 0 0 0 0 1 0 0 5 
38428 16 0.013599 0.046718 -0.000933376 0 0 0 -5.08823 5.63101 22.6936 0.381522 0.387108 -0.67822 0 0 0 0 0 0 0 0 0 0 0 0 0 1 0 1 2 
38366 16 0.0351605 0.0474036 -0.00562016 0 0 0 9.59654 -2.49991 5.03063 0 -0.000268494 0 0 0 0 0 0 0 0 0 0 0 0 0 0 0 0 0 4 
38682 8 0.00607027 0.0593451 -0.00788411 0 0 0 2.42022 7.33312 -8.24222 0.10098 -1.47625 -1.90201 0 0 0 0 0 0 0 1 0 0 0 1 0 0 0 0 2 
38429 16 0.0299479 0.0552786 -0.00805345 0 0 0 3.9045 -5.79299 -1.4169 0 -0.000268494 0 0 0 0 0 0 0 0 0 0 0 0 0 0 0 0 0 4 
34546 12 0.0268395 0.0611413 -0.0337923 0 0 0 1.81898 -1.83232 4.82514 0 -0.000227443 0 0 0 0 0 0 0 0 0 0 0 0 0 0 0 0 0 98 
38613 15 0.0144115 0.0671742 -0.0134942 0 0 0 -2.92752 12.6847 -2.67944 0.291376 -0.531963 -1.2639 0 0 0 0 0 0 0 0 0 0 0 0 0 0 2 0 2 
37973 4 0.0402984 0.0639396 -0.010025 0 0 0 2.22572 1.57346 -4.11702 -0.584243 -0.213108 0.316911 0 0 0 3 0 0 0 0 0 0 0 1 0 1 0 0 9 
38674 12 0.00624003 0.0672286 -0.0109904 0 0 0 -3.49519 1.30599 -2.20851 0.252176 -0.142634 -1.07471 0 0 0 0 0 0 0 1 0 0 0 1 0 0 1 1 4 
38580 16 0.0222717 0.0707707 -0.0118572 0 0 0 1.61981 4.48551 -0.0779804 0.0923727 -0.941012 0.698238 0 0 0 0 0 0 0 0 0 0 0 0 0 1 1 1 5 
3709 16 0.00913672 0.0457229 -0.0276628 0 0 0 -0.0128313 13.8613 22.8695 0.00583887 -0.319534 0.192651 0 0 0 0 0 0 0 0 0 0 0 0 0 0 0 1 853 
38444 12 0.0218774 0.0725466 0.00500198 0 0 0 3.17874 1.31969 2.03382 0.783185 -0.0461317 -0.0350087 0 0 0 0 0 0 0 0 0 0 0 3 0 0 0 0 9 
37998 14 0.0298875 0.0748462 -0.00976467 0 0 0 3.1232 4.00829 2.97449 0.131571 -0.0548536 0.488133 0 0 0 0 0 0 0 0 0 0 0 0 0 2 0 1 16 
38689 16 0.0259822 0.0439833 0.00387196 0 0 0 7.38101 3.09208 19.0887 -2.63538 1.30731 -1.87749 0 0 0 0 0 0 0 0 0 0 0 0 0 0 0 0 0 
36348 8 0.0134022 0.0502931 0.00688539 0 0 0 5.9481 8.03605 24.2961 1.34866 -2.56954 -2.2429 0 0 0 0 0 0 0 4 0 0 0 0 0 0 0 1 41 
38529 12 0.00604185 0.0560882 0.00151453 0 0 0 -6.82608 1.90922 5.74499 0.980052 -0.239698 1.66697 0 0 0 0 0 0 0 0 0 0 0 1 0 0 0 0 2 
38233 15 0.0139857 0.0572201 0.00131441 0 0 0 -15.4823 -0.371314 2.81626 2.19938 -0.697713 -0.081111 0 0 0 0 0 0 0 2 0 0 0 1 0 1 1 0 13 
38512 14 0.014307 0.0685743 -0.00306516 0 0 0 3.15165 8.48519 3.03237 -0.653439 -0.0952769 -1.72291 0 0 0 0 0 0 0 1 0 0 0 0 0 3 0 0 7 
38561 16 0.0466914 0.0627682 -0.00139314 0 0 0 14.7882 3.31771 -2.66329 -0.0354516 -0.146372 -0.43012 0 0 0 0 0 0 0 0 0 0 0 0 0 1 0 1 2 
697 12 0.0250529 0.069188 -0.00284546 0 0 0 1.38313 0.61272 -0.693312 0 -0.000227443 0 0 0 0 0 0 0 0 0 0 0 0 0 0 0 0 0 7856 
38628 16 0.0351924 0.0693168 -0.00499942 0 0 0 1.42211 -1.67711 1.42007 -0.807233 -0.96855 0.24301 0 0 0 1 0 0 0 0 0 0 0 1 0 2 0 1 5 
36606 16 0.00670846 0.0726745 -0.00269608 0 0 0 -0.230766 2.90348 -1.48242 -0.511458 -0.358072 -0.369498 0 0 0 0 0 0 0 0 0 0 0 0 0 1 0 3 57 
38676 16 0.0303325 0.0405996 -0.0308352 0 0 0 4.65509 2.76203 13.8116 0 -0.000268494 0 0 0 0 0 0 0 0 0 0 0 0 0 0 0 0 0 0 
38620 14 0.0425032 0.0570979 -0.0345752 0 0 0 1.14323 -0.53189 1.71299 0.0841936 -0.230147 -0.119084 0 0 0 0 0 0 0 1 0 0 0 0 0 0 0 1 3 
38720 8 0.00660373 0.0389228 0.0087914 0 0 0 0.2658 -0.688349 9.09755 0 -0.000268443 0 0 0 0 0 0 0 0 0 0 0 0 0 0 0 0 0 0 
38666 14 0.017574 0.0400987 0.00869768 0 0 0 3.40184 -3.88867 14.1562 0 -0.000206096 0 0 0 0 0 0 0 0 0 0 0 0 0 0 0 0 0 0 
38243 8 0.00947974 0.0322098 -0.0341071 0 0 0 8.41344 1.52751 13.0352 0.0327914 -0.571625 0.347391 0 0 0 0 0 0 0 0 0 0 0 0 0 0 0 0 3 
38668 8 0.0190595 0.0513811 -0.033597 0 0 0 5.20146 -0.534421 7.87998 -0.238155 -2.054 1.46546 0 0 0 0 0 0 0 0 0 0 0 0 0 0 0 1 1 
38557 4 0.0341719 0.0523183 0.00433078 0 0 0 3.7331 4.68163 9.52975 0 -0.000227392 0 0 0 0 0 0 0 0 0 0 0 0 0 0 0 0 0 2 
38288 12 0.0063198 0.0643049 0.00502278 0 0 0 0.334521 4.95449 1.52739 0.264643 0.24145 -0.662513 0 0 0 0 0 0 0 0 0 0 0 1 0 0 0 0 5 
38571 16 0.037043 0.0601085 -0.0031685 0 0 0 10.5059 -4.36293 -2.45865 -0.541035 -0.702401 1.63833 0 0 0 1 0 0 0 0 0 0 0 0 0 0 0 1 2 
37371 14 0.0470664 0.072709 -0.0171918 0 0 0 0.0384328 -0.437281 -0.836254 0.775483 0.136395 -0.377389 0 0 0 0 0 0 0 0 0 0 0 0 0 3 0 0 10 
38042 8 0.00770124 0.074856 0.00575642 0 0 0 -3.83802 2.80228 -0.0766656 -0.318531 -0.4361 -0.228945 0 0 0 0 0 0 0 0 0 0 0 0 0 0 0 1 13 
34964 15 0.0111229 0.0494633 -0.0243754 0 0 0 0.148864 12.2273 24.673 0.0207502 -0.333891 0.125312 0 0 0 0 0 0 0 1 0 0 0 1 0 0 0 2 130 
38385 12 0.0187591 0.0592966 0.00603456 0 0 0 -2.31882 -1.2501 -1.17112 2.16228 -0.748951 -0.146984 0 0 0 0 0 0 0 0 0 0 0 1 0 0 1 0 5 
38551 12 0.0291252 0.0648837 0.00456558 0 0 0 3.74683 1.81918 -3.55631 0 -0.000227443 0 0 0 0 0 0 0 0 0 0 0 0 0 0 0 0 0 0 
38408 8 0.0386992 0.0628573 0.00549097 0 0 0 6.33394 -0.681413 -1.69182 -0.054264 -0.065804 -0.0806346 0 0 0 0 0 0 0 0 0 0 0 0 0 0 0 1 8 
38415 16 0.0148247 0.0672029 0.00548049 0 0 0 0.731895 7.01332 -1.57917 0.607846 -0.130827 0.547158 0 0 0 0 0 0 0 0 0 0 0 3 0 1 0 0 5 
23423 4 0.0117919 0.0369287 0.0154922 0 0 0 3.15853 -11.6897 4.55115 -0.158444 0.235169 -0.0175055 0 0 0 1 0 0 0 0 0 0 0 0 0 0 0 0 335 
38446 16 0.0246622 0.0355223 0.0173839 0 0 0 8.40397 -9.07305 19.7495 0.230579 -0.439998 0.22951 0 0 0 0 0 0 0 0 0 0 0 0 0 0 0 0 4 
38709 7 0.0079645 0.0439882 0.0176118 0 0 0 -0.403813 -13.4489 12.8749 0.140438 -0.0294554 0.322194 0 0 0 1 0 0 1 0 0 0 0 0 0 0 0 0 2 
38391 16 0.0207566 0.0439091 0.0187719 0 0 0 8.51255 -7.1434 17.8698 -0.194065 -0.328246 0.0959142 0 0 0 0 0 0 0 0 0 0 0 0 0 0 0 2 6 
38654 14 0.0393397 0.0514141 0.0193176 0 0 0 0.470777 -0.108321 10.9959 0 -0.000206096 0 0 0 0 0 0 0 0 0 0 0 0 0 0 0 0 0 0 
38655 15 0.0242606 0.0532569 0.0165861 0 0 0 13.8614 -4.8871 13.7586 0.722634 -2.27754 0.206748 0 0 0 0 0 0 0 0 0 0 0 0 0 0 1 0 1 
37784 12 0.0112511 0.0170205 0.0251168 0 0 0 0.0072127 -12.5457 8.50177 -0.000169715 -0.0989782 -0.144937 0 0 0 0 0 0 0 0 0 0 0 0 0 0 0 0 0 
38549 8 0.00649247 0.0356147 0.025458 0 0 0 -0.0967181 -0.945282 8.60686 0.0445391 -0.00264574 -0.0221423 0 0 0 0 0 0 0 0 0 0 0 0 0 0 0 0 0 
38383 8 0.0194779 0.0375416 0.0251917 0 0 0 4.26702 -5.81782 19.2118 0.115344 -0.124932 0.334547 0 0 0 0 0 0 0 1 0 0 0 0 0 0 0 1 4 
38372 12 0.0384787 0.0408328 0.0191751 0 0 0 0.957103 -3.36664 5.09774 0 -0.000227443 0 0 0 0 0 0 0 0 0 0 0 0 0 0 0 0 0 8 
38718 16 0.0071403 0.0497201 0.0242793 0 0 0 0.6197 -6.38341 11.5444 -0.0136359 0.228498 -0.213373 0 0 0 0 0 0 1 0 0 0 0 0 0 0 0 0 1 
38460 14 0.0437702 0.0237326 0.0315141 0 0 0 -0.572983 -12.117 10.0741 0 -0.000206096 0 0 0 0 0 0 0 0 0 0 0 0 0 0 0 0 0 4 
38595 16 0.0314642 0.0366676 0.0253108 0 0 0 0.481573 -2.02098 7.58039 0 -0.000268494 0 0 0 0 0 0 0 0 0 0 0 0 0 0 0 0 0 2 
38569 15 0.0265807 0.0319849 0.0319879 0 0 0 3.01082 -3.21534 9.08965 0 -0.000216769 0 0 0 0 0 0 0 0 0 0 0 0 0 0 0 0 0 0 
38621 14 0.0180902 0.0349193 0.0336004 0 0 0 1.35405 -8.08958 18.5286 -0.0407884 -0.0627002 0.0723913 0 0 0 0 0 0 0 1 0 0 0 0 0 0 0 0 1 
38648 16 0.0381028 0.0312237 0.0352587 0 0 0 -5.392 -15.0001 9.63262 -0.0444895 -0.13128 -0.14788 0 0 0 0 0 0 0 0 0 0 0 0 0 0 0 1 1 
38729 12 0.0261295 0.042793 0.0353711 0 0 0 -6.82578 -7.34717 8.92415 -0.0508399 0.0442375 0.0336044 0 0 0 0 0 0 0 0 0 0 0 0 0 0 0 0 0 
38714 8 0.00954113 0.030374 0.0365903 0 0 0 1.37331 -3.65586 -0.726687 0 -0.000268443 0 0 0 0 0 0 0 0 0 0 0 0 0 0 0 0 0 0 