ITEM: TIMESTEP
450000
ITEM: NUMBER OF ATOMS
449
ITEM: BOX BOUNDS ff ff ff
-0.01 0.45
-0.15 0.15
-0.08 0.1
ITEM: ATOMS id type x y z ix iy iz vx vy vz fx fy fz c_cc_1 c_cc_2 c_cc_3 c_cc_4 c_cc_5 c_cc_6 c_cc_7 c_cc_8 c_cc_9 c_cc_10 c_cc_11 c_cc_12 c_cc_13 c_cc_14 c_cc_15 c_cc_16 f_fppacc radius c_cc_17 
294 2 0.0180403 -0.00289507 -0.0607317 0 0 0 9.80362e-07 -3.61857e-13 -3.90507e-12 1.88535e-21 0 0 0 0 0 0 0 0 0 0 0 0 0 0 0 0 0 0 0 0.001 0 
79 5 0.0123943 -0.0129487 -0.0594663 0 0 0 -3.1678e-07 1.2004e-12 4.21896e-12 -1.62743e-20 0 0 0 0 0 0 0 0 0 0 0 0 0 0 0 0 0 0 0 0.001 0 
52 4 0.0163502 -0.0255618 -0.0551251 0 0 0 -9.65066e-08 2.099e-12 4.21537e-12 -3.16824e-19 0 0 0 0 0 0 0 0 0 0 0 0 0 0 0 0 0 0 0 0.001 0 
10 6 0.0111358 -0.0205598 -0.0523941 0 0 0 1.78208 -5.52801 1.18169 0 -2.0546e-05 0 0 0 0 0 0 0 0 0 0 0 0 0 0 0 0 0 0 0.001 0 
86 4 0.00422798 -0.032004 -0.0485799 0 0 0 0.500512 -2.3406 1.44071 0 -2.0546e-05 0 0 0 0 0 0 0 0 0 0 0 0 0 0 0 0 0 0 0.001 0 
353 3 0.00220987 -0.0226332 -0.0484943 0 0 0 0.419115 -5.58813 1.41098 0 -2.0546e-05 0 0 0 0 0 0 0 0 0 0 0 0 0 0 0 0 0 0 0.001 0 
261 1 0.0141167 -0.0272832 -0.0418279 0 0 0 -0.145244 -8.40836 3.55394 0 -2.0546e-05 0 0 0 0 0 0 0 0 0 0 0 0 0 0 0 0 0 0 0.001 0 
392 9 0.0182696 -0.0314582 -0.0296376 0 0 0 0.124327 -6.8572 0.855275 0 -2.0546e-05 0 0 0 0 0 0 0 0 0 0 0 0 0 0 0 0 0 0 0.001 0 
390 1 0.0104537 -0.0525405 -0.0207423 0 0 0 0.597305 -2.44694 7.74568 0 -2.0546e-05 0 0 0 0 0 0 0 0 0 0 0 0 0 0 0 0 0 0 0.001 0 
400 3 0.00232637 -0.0541881 -0.0116356 0 0 0 -3.4856 -4.14565 13.542 0 -2.0546e-05 0 0 0 0 0 0 0 0 0 0 0 0 0 0 0 0 0 0 0.001 0 
321 2 0.00533628 -0.0583772 -0.0008566 0 0 0 -0.272829 -2.95112 9.27025 0 -2.0546e-05 0 0 0 0 0 0 0 0 0 0 0 0 0 0 0 0 0 0 0.001 0 
380 1 0.00943079 -0.0500815 0.0305742 0 0 0 0.0234898 4.70746 6.77306 0 -2.0546e-05 0 0 0 0 0 0 0 0 0 0 0 0 0 0 0 0 0 0 0.001 0 
3 6 0.0139601 -0.042501 0.0435377 0 0 0 -9.62021e-07 6.87852e-12 -6.2706e-12 -1.03163e-17 0 0 0 0 0 0 0 0 0 0 0 0 0 0 0 0 0 0 0 0.001 0 
372 1 0.00358971 -0.0386498 0.0443936 0 0 0 0.464581 6.82284 4.55437 0 -2.0546e-05 0 0 0 0 0 0 0 0 0 0 0 0 0 0 0 0 0 0 0.001 0 
221 3 0.00631967 0.00813154 -0.058245 0 0 0 0.203652 -13.3247 0.270276 0.000283916 -0.00206044 -0.0315812 0 0 0 0 0 0 0 0 0 0 0 0 0 0 0 0 0 0.001 0 
410 1 0.0120938 0.0237046 -0.0560498 0 0 0 2.80185e-19 2.05972e-12 -4.13648e-12 1.17403e-30 0 0 0 0 0 0 0 0 0 0 0 0 0 0 0 0 0 0 0 0.001 0 
41 1 0.0171818 0.0293263 -0.0532505 0 0 0 3.29301e-19 -1.62023e-12 3.25386e-12 -1.15091e-30 0 0 0 0 0 0 0 0 0 0 0 0 0 0 0 0 0 0 0 0.001 0 
293 2 0.00872661 0.0230333 -0.0524194 0 0 0 2.3756 -14.6501 -2.99276 0 -2.0546e-05 0 0 0 0 0 0 0 0 0 0 0 0 0 0 0 0 0 0 0.001 0 
340 1 0.00305671 0.0312153 -0.0468572 0 0 0 0.897118 -1.57635 -14.9626 0 -2.0546e-05 0 0 0 0 0 0 0 0 0 0 0 0 0 0 0 0 0 0 0.001 0 
236 10 0.00511284 0.0171222 -0.0442952 0 0 0 -3.66631 -4.84099 -12.9477 0 -2.0546e-05 0 0 0 0 0 0 0 0 0 0 0 0 0 0 0 0 0 0 0.001 0 
411 4 0.0156836 0.0277076 -0.0354336 0 0 0 0.564192 -0.957903 -2.23878 0 -2.0546e-05 0 0 0 0 0 0 0 0 0 0 0 0 0 0 0 0 0 0 0.001 0 
89 9 0.00981859 0.0527576 -0.0355 0 0 0 9.92297e-303 -8.98145e-20 6.08169e-12 1.68045e-307 0 -4.44089e-16 0 0 0 0 0 0 0 0 0 0 0 0 0 0 0 0 0 0.001 0 
67 5 0.007394 0.0557136 -0.0355 0 0 0 6.4986e-181 1.14575e-19 -2.02913e-12 1.69649e-181 0 -4.44089e-16 0 0 0 0 0 0 0 0 0 0 0 0 0 0 0 0 0 0.001 0 
320 2 0.00552256 0.0625743 -0.0355 0 0 0 5.16418e-53 -1.76294e-19 -1.0131e-12 -4.306e-53 0 -4.44089e-16 0 0 0 0 0 0 0 0 0 0 0 0 0 0 0 0 0 0.001 0 
323 3 0.00396959 0.0673944 -0.0355 0 0 0 3.94369e-303 1.35138e-19 -4.06075e-12 -1.83929e-307 0 0 0 0 0 0 0 0 0 0 0 0 0 0 0 0 0 0 0 0.001 0 
428 7 0.00683202 0.100491 -0.0332624 0 0 0 1.77371 -2.88055 0.676587 0 -2.0546e-05 0 0 0 0 0 0 0 0 0 0 0 0 0 0 0 0 0 0 0.001 0 
357 6 0.0119461 0.0674011 -0.0323651 0 0 0 7.24265 -0.747993 3.91985 0 -2.0546e-05 0 0 0 0 0 0 0 0 0 0 0 0 0 0 0 0 0 0 0.001 0 
58 7 0.00799179 0.07775 -0.0313693 0 0 0 -0.0209105 1.40058 0.462492 0 -2.0546e-05 0 0 0 0 0 0 0 0 0 0 0 0 0 0 0 0 0 0 0.001 0 
351 7 0.00640647 0.0397899 -0.0305849 0 0 0 -0.467244 -13.4353 6.09814 0 -2.0546e-05 0 0 0 0 0 0 0 0 0 0 0 0 0 0 0 0 0 0 0.001 0 
290 4 0.00496096 0.0616181 -0.0309951 0 0 0 1.19025 0.915811 -3.46948 0 -2.0546e-05 0 0 0 0 0 0 0 0 0 0 0 0 0 0 0 0 0 0 0.001 0 
289 4 0.00198228 0.0988169 -0.0312497 0 0 0 -2.6715 5.94578 2.45314 0.119212 0.059376 0.00499176 0 0 0 0 0 0 0 0 0 0 0 0 0 0 0 0 0 0.001 0 
243 5 0.0105361 0.0477935 -0.0297063 0 0 0 -1.12291 -7.98352 3.84047 0 -2.0546e-05 0 0 0 0 0 0 0 0 0 0 0 0 0 0 0 0 0 0 0.001 0 
389 4 0.0187316 0.0656411 -0.0289003 0 0 0 -2.142 -0.798364 1.42811 0 -2.0546e-05 0 0 0 0 0 0 0 0 0 0 0 0 0 0 0 0 0 0 0.001 0 
416 5 0.0109143 0.0927903 -0.029229 0 0 0 -12.5984 14.5819 -20.9982 0 -2.0546e-05 0 0 0 0 0 0 0 0 0 0 0 0 0 0 0 0 0 0 0.001 0 
408 5 0.00219482 0.105643 -0.0286207 0 0 0 -2.87778 -3.00396 -0.104866 0 -2.0546e-05 0 0 0 0 0 0 0 0 0 0 0 0 0 0 0 0 0 0 0.001 0 
201 2 0.0133356 0.0300272 -0.0273706 0 0 0 -9.44181 -13.5148 3.78132 0 -2.0546e-05 0 0 0 0 0 0 0 0 0 0 0 0 0 0 0 0 0 0 0.001 0 
252 5 0.00219578 0.0966791 -0.0272012 0 0 0 0.866388 1.9697 0.565418 0 -2.0546e-05 0 0 0 0 0 0 0 0 0 0 0 0 0 0 0 0 0 0 0.001 0 
83 2 0.00617318 0.0782529 -0.0250944 0 0 0 1.47458 -4.29032 -3.46294 0 -2.0546e-05 0 0 0 0 0 0 0 0 0 0 0 0 0 0 0 0 0 0 0.001 0 
418 6 0.0160458 0.108229 -0.0256316 0 0 0 -2.84593 -2.26131 3.89633 0 -2.0546e-05 0 0 0 0 0 0 0 0 0 0 0 0 0 0 0 0 0 0 0.001 0 
195 3 0.0160441 0.0312216 -0.0243968 0 0 0 0.680394 -2.3117 0.476379 0 -2.0546e-05 0 0 0 0 0 0 0 0 0 0 0 0 0 0 0 0 0 0 0.001 0 
270 6 0.00867703 0.0353496 -0.0249342 0 0 0 3.907 0.575635 1.52054 0 -2.0546e-05 0 0 0 0 0 0 0 0 0 0 0 0 0 0 0 0 0 0 0.001 0 
415 4 0.00302111 0.0652459 -0.0246888 0 0 0 -7.4404 -0.261205 4.24823 0 -2.0546e-05 0 0 0 0 0 0 0 0 0 0 0 0 0 0 0 0 0 0 0.001 0 
21 1 0.00444299 0.0678699 -0.0245952 0 0 0 1.71144 0.135154 1.88441 0 -2.0546e-05 0 0 0 0 0 0 0 0 0 0 0 0 0 0 0 0 0 0 0.001 0 
433 3 0.0112902 0.0701715 -0.0239863 0 0 0 7.75439 4.20713 -23.5702 0 -2.0546e-05 0 0 0 0 0 0 0 0 0 0 0 0 0 0 0 0 0 0 0.001 0 
373 7 0.016806 0.0467551 -0.0237332 0 0 0 1.59284 -1.56231 0.375743 0 -2.0546e-05 0 0 0 0 0 0 0 0 0 0 0 0 0 0 0 0 0 0 0.001 0 
291 6 0.010932 0.0811813 -0.0222534 0 0 0 0.274999 -0.886538 1.96586 0 -2.0546e-05 0 0 0 0 0 0 0 0 0 0 0 0 0 0 0 0 0 0 0.001 0 
37 5 0.0138472 0.0720471 -0.0209655 0 0 0 0.0361883 6.44737 -15.2334 0 -2.0546e-05 0 0 0 0 0 0 0 0 0 0 0 0 0 0 0 0 0 0 0.001 0 
186 3 0.0049944 0.0764887 -0.0201508 0 0 0 1.00282 -2.00962 0.246877 0 -2.0546e-05 0 0 0 0 0 0 0 0 0 0 0 0 0 0 0 0 0 0 0.001 0 
394 1 0.0125544 0.108952 -0.0200874 0 0 0 -0.848849 -1.49524 3.89195 0 -2.0546e-05 0 0 0 0 0 0 0 0 0 0 0 0 0 0 0 0 0 0 0.001 0 
271 2 0.00287183 0.055465 -0.019233 0 0 0 -1.36129 -2.53007 -2.96302 0 -2.0546e-05 0 0 0 0 0 0 0 0 0 0 0 0 0 0 0 0 0 0 0.001 0 
417 2 0.0177507 0.0883038 -0.0195729 0 0 0 0.801631 4.94896 6.22088 0 -2.0546e-05 0 0 0 0 0 0 0 0 0 0 0 0 0 0 0 0 0 0 0.001 0 
324 12 0.00268539 0.101026 -0.0199413 0 0 0 0.158553 0.452919 4.47614 0 -2.0546e-05 0 0 0 0 0 0 0 0 0 0 0 0 0 0 0 0 0 0 0.001 0 
46 4 0.00257389 0.105789 -0.0179236 0 0 0 -0.921056 -1.5668 -2.05208 0 -2.0546e-05 0 0 0 0 0 0 0 0 0 0 0 0 0 0 0 0 0 0 0.001 0 
302 3 0.00570257 0.0976665 -0.0168195 0 0 0 -3.21513 -0.891478 -1.07657 0 -2.0546e-05 0 0 0 0 0 0 0 0 0 0 0 0 0 0 0 0 0 0 0.001 0 
258 2 0.00647414 0.0837879 -0.0142304 0 0 0 4.50938 -6.48818 4.56467 0 -2.0546e-05 0 0 0 0 0 0 0 0 0 0 0 0 0 0 0 0 0 0 0.001 0 
412 7 0.0101605 0.0316034 -0.0129354 0 0 0 0 -1.1962 -0.0001 0 -2.0546e-05 0 0 0 0 0 0 0 0 0 0 0 0 0 0 0 0 0 0 0.001 0 
22 3 0.013209 0.0591484 -0.0130258 0 0 0 2.59871 -5.5397 7.01539 0 -2.0546e-05 0 0 0 0 0 0 0 0 0 0 0 0 0 0 0 0 0 0 0.001 0 
1 1 0.00221987 0.0960037 -0.012572 0 0 0 0.136248 2.38551 -2.52821 0 -2.0546e-05 0 0 0 0 0 0 0 0 0 0 0 0 0 0 0 0 0 0 0.001 0 
216 5 0.0128584 0.10606 -0.0129708 0 0 0 -1.69279 -3.18535 2.06891 0 -2.0546e-05 0 0 0 0 0 0 0 0 0 0 0 0 0 0 0 0 0 0 0.001 0 
193 9 0.0164061 0.082921 -0.0115507 0 0 0 1.53827 12.5167 -13.8017 0 -2.0546e-05 0 0 0 0 0 0 0 0 0 0 0 0 0 0 0 0 0 0 0.001 0 
137 4 0.00812599 0.0846893 -0.0120691 0 0 0 -5.37662 22.4143 -29.0622 0 -2.0546e-05 0 0 0 0 0 0 0 0 0 0 0 0 0 0 0 0 0 0 0.001 0 
145 5 0.00252095 0.10539 -0.0112957 0 0 0 -1.32009 -2.1416 0.947823 0 -2.0546e-05 0 0 0 0 0 0 0 0 0 0 0 0 0 0 0 0 0 0 0.001 0 
429 2 0.00211895 0.107913 -0.0115912 0 0 0 -1.32289 -1.53737 -2.58109 0 -2.0546e-05 0 0 0 0 0 0 0 0 0 0 0 0 0 0 0 0 0 0 0.001 0 
439 8 0.0171456 0.108457 -0.0118617 0 0 0 -13.4564 -4.29071 13.277 0 -2.0546e-05 0 0 0 0 0 0 0 0 0 0 0 0 0 0 0 0 0 0 0.001 0 
420 1 0.00989456 0.0304481 -0.0108141 0 0 0 0 -1.14715 -0.0001 0 -2.0546e-05 0 0 0 0 0 0 0 0 0 0 0 0 0 0 0 0 0 0 0.001 0 
142 2 0.0175739 0.0344251 -0.0107604 0 0 0 1.32635 -4.24131 -4.30145 0 -2.0546e-05 0 0 0 0 0 0 0 0 0 0 0 0 0 0 0 0 0 0 0.001 0 
430 5 0.015284 0.0350574 -0.0101111 0 0 0 -0.0440362 -1.10438 -0.106999 0 -2.0546e-05 0 0 0 0 0 0 0 0 0 0 0 0 0 0 0 0 0 0 0.001 0 
85 1 0.00308733 0.0884702 -0.0101255 0 0 0 0.98959 -1.09186 0.340942 0 -2.0546e-05 0 0 0 0 0 0 0 0 0 0 0 0 0 0 0 0 0 0 0.001 0 
16 6 0.0129933 0.0359755 -0.00955012 0 0 0 0.2336 -3.6933 -4.36968 0 -2.0546e-05 0 0 0 0 0 0 0 0 0 0 0 0 0 0 0 0 0 0 0.001 0 
391 3 0.0124613 0.0633362 -0.00815406 0 0 0 -4.66298 -4.30584 -1.58616 0 -2.0546e-05 0 0 0 0 0 0 0 0 0 0 0 0 0 0 0 0 0 0 0.001 0 
383 7 0.0052227 0.0566051 -0.00685169 0 0 0 -1.46752 -5.81303 1.91404 0 -2.0546e-05 0 0 0 0 0 0 0 0 0 0 0 0 0 0 0 0 0 0 0.001 0 
329 1 0.00449433 0.0936995 -0.00697214 0 0 0 1.77463 -4.64892 7.00345 0 -2.0546e-05 0 0 0 0 0 0 0 0 0 0 0 0 0 0 0 0 0 0 0.001 0 
368 6 0.00624788 0.0536712 -0.00529575 0 0 0 -2.0773 -0.198961 3.54214 0 -2.0546e-05 0 0 0 0 0 0 0 0 0 0 0 0 0 0 0 0 0 0 0.001 0 
387 4 0.00330599 0.0581049 -0.00602344 0 0 0 0.609706 -6.03818 3.2775 0 -2.0546e-05 0 0 0 0 0 0 0 0 0 0 0 0 0 0 0 0 0 0 0.001 0 
449 6 0.012065 0.0596571 -0.00418803 0 0 0 9.72666 -1.04358 11.5003 0 -2.0546e-05 0 0 0 0 0 0 0 0 0 0 0 0 0 0 0 0 0 0 0.001 0 
313 3 0.0059409 0.0919772 -0.00499544 0 0 0 1.75302 -5.01635 7.22707 0 -2.0546e-05 0 0 0 0 0 0 0 0 0 0 0 0 0 0 0 0 0 0 0.001 0 
414 4 0.0147222 0.0830019 -0.00292424 0 0 0 6.54928 24.3862 -25.4198 0 -2.0546e-05 0 0 0 0 0 0 0 0 0 0 0 0 0 0 0 0 0 0 0.001 0 
2 6 0.0127302 0.0956517 -0.00305047 0 0 0 0.562578 -0.35695 0.322549 0 -2.0546e-05 0 0 0 0 0 0 0 0 0 0 0 0 0 0 0 0 0 0 0.001 0 
435 3 0.00806593 0.0963182 -0.0031754 0 0 0 4.2098 -4.97323 13.7157 0 -2.0546e-05 0 0 0 0 0 0 0 0 0 0 0 0 0 0 0 0 0 0 0.001 0 
440 5 0.0113112 0.04702 -0.00228144 0 0 0 0 -1.04905 -0.0001 0 -2.0546e-05 0 0 0 0 0 0 0 0 0 0 0 0 0 0 0 0 0 0 0.001 0 
288 3 0.0165647 0.0811584 -0.00210656 0 0 0 -0.190984 -0.424851 -0.781911 0 -2.0546e-05 0 0 0 0 0 0 0 0 0 0 0 0 0 0 0 0 0 0 0.001 0 
24 1 0.0106997 0.0823428 -0.00146361 0 0 0 -0.7964 -0.502829 1.12919 0 -2.0546e-05 0 0 0 0 0 0 0 0 0 0 0 0 0 0 0 0 0 0 0.001 0 
45 4 0.0142724 0.0598006 -0.000473289 0 0 0 -2.77665 3.55195 -18.8557 0 -2.0546e-05 0 0 0 0 0 0 0 0 0 0 0 0 0 0 0 0 0 0 0.001 0 
341 5 0.00329483 0.0758378 -0.00108385 0 0 0 0.572023 5.00577 -6.44099 0 -2.0546e-05 0 0 0 0 0 0 0 0 0 0 0 0 0 0 0 0 0 0 0.001 0 
220 8 0.0116694 0.105886 -0.000149587 0 0 0 0.476972 -2.86411 3.52787 0 -2.0546e-05 0 0 0 0 0 0 0 0 0 0 0 0 0 0 0 0 0 0 0.001 0 
205 2 0.00837033 0.0390157 0.00247718 0 0 0 3.82457 -1.61141 -7.21549 0 -2.0546e-05 0 0 0 0 0 0 0 0 0 0 0 0 0 0 0 0 0 0 0.001 0 
309 7 0.0157189 0.0700814 0.00175566 0 0 0 -0.624471 15.9131 -17.8442 0 -2.0546e-05 0 0 0 0 0 0 0 0 0 0 0 0 0 0 0 0 0 0 0.001 0 
177 9 0.0141123 0.0892611 0.00149159 0 0 0 0.0695209 0.847434 1.43249 0 -2.0546e-05 0 0 0 0 0 0 0 0 0 0 0 0 0 0 0 0 0 0 0.001 0 
264 1 0.0111999 0.102285 0.00194138 0 0 0 -0.490145 0.10632 -1.18637 0 -2.0546e-05 0 0 0 0 0 0 0 0 0 0 0 0 0 0 0 0 0 0 0.001 0 
441 7 0.0165033 0.0426887 0.00336205 0 0 0 0 -1.04905 -0.0001 0 -2.0546e-05 0 0 0 0 0 0 0 0 0 0 0 0 0 0 0 0 0 0 0.001 0 
97 3 0.0173852 0.0719208 0.00348976 0 0 0 4.72332 4.59294 -7.76293 0 -2.0546e-05 0 0 0 0 0 0 0 0 0 0 0 0 0 0 0 0 0 0 0.001 0 
131 4 0.013348 0.107574 0.00368753 0 0 0 2.94564 0.959881 8.36743 0 -2.0546e-05 0 0 0 0 0 0 0 0 0 0 0 0 0 0 0 0 0 0 0.001 0 
276 2 0.0163865 0.0705893 0.00514864 0 0 0 -3.86201 32.0774 -32.6687 0 -2.0546e-05 0 0 0 0 0 0 0 0 0 0 0 0 0 0 0 0 0 0 0.001 0 
377 5 0.0147114 0.0819693 0.00581445 0 0 0 1.97566 -0.838186 2.57146 0 -2.0546e-05 0 0 0 0 0 0 0 0 0 0 0 0 0 0 0 0 0 0 0.001 0 
319 8 0.0177987 0.0466583 0.00690016 0 0 0 4.4442 -9.29494 0.934923 0 -2.0546e-05 0 0 0 0 0 0 0 0 0 0 0 0 0 0 0 0 0 0 0.001 0 
162 6 0.0146955 0.0836382 0.00844797 0 0 0 2.61522 4.68455 -2.85652 0 -2.0546e-05 0 0 0 0 0 0 0 0 0 0 0 0 0 0 0 0 0 0 0.001 0 
344 4 0.00335339 0.078626 0.00942483 0 0 0 1.09373 -1.56039 -1.8523 0 -2.0546e-05 0 0 0 0 0 0 0 0 0 0 0 0 0 0 0 0 0 0 0.001 0 
194 2 0.0132595 0.0856479 0.00950928 0 0 0 1.82778 1.06452 -0.341545 0 -2.0546e-05 0 0 0 0 0 0 0 0 0 0 0 0 0 0 0 0 0 0 0.001 0 
328 4 0.0131126 0.100782 0.00912909 0 0 0 -1.9749 1.48844 0.00372966 0 -2.0546e-05 0 0 0 0 0 0 0 0 0 0 0 0 0 0 0 0 0 0 0.001 0 
103 7 0.00616545 0.108027 0.0107553 0 0 0 -0.821085 -0.367744 -0.72819 0 -2.0546e-05 0 0 0 0 0 0 0 0 0 0 0 0 0 0 0 0 0 0 0.001 0 
127 6 0.00265957 0.0610605 0.0123601 0 0 0 3.48266 8.00762 -17.3846 0 -2.0546e-05 0 0 0 0 0 0 0 0 0 0 0 0 0 0 0 0 0 0 0.001 0 
34 1 0.00322108 0.076152 0.01188 0 0 0 -1.98223 -2.98523 3.88851 0 -2.0546e-05 0 0 0 0 0 0 0 0 0 0 0 0 0 0 0 0 0 0 0.001 0 
90 2 0.0119075 0.083128 0.0112927 0 0 0 2.71209 -1.2096 -4.72426 0 -2.0546e-05 0 0 0 0 0 0 0 0 0 0 0 0 0 0 0 0 0 0 0.001 0 
148 9 0.017984 0.10168 0.0116687 0 0 0 0.807493 2.36146 -0.54148 0 -2.0546e-05 0 0 0 0 0 0 0 0 0 0 0 0 0 0 0 0 0 0 0.001 0 
240 6 0.0005 0.0342606 0.0125045 0 0 0 -6.38611e-14 -1.90449e-19 3.10057e-303 -4.44089e-16 0 1.81117e-307 0 0 0 0 0 0 0 0 0 0 0 0 0 0 0 0 0 0.001 0 
260 6 0.00781779 0.061642 0.0137257 0 0 0 3.86875 4.37884 -3.00625 0 -2.0546e-05 0 0 0 0 0 0 0 0 0 0 0 0 0 0 0 0 0 0 0.001 0 
360 1 0.00985362 0.0576965 0.0139396 0 0 0 -1.35985 8.14947 -17.2466 0 -2.0546e-05 0 0 0 0 0 0 0 0 0 0 0 0 0 0 0 0 0 0 0.001 0 
171 4 0.00339541 0.103366 0.0139991 0 0 0 1.01415 -1.42577 3.02685 0 -2.0546e-05 0 0 0 0 0 0 0 0 0 0 0 0 0 0 0 0 0 0 0.001 0 
442 4 0.0152156 0.0431656 0.0155035 0 0 0 0 -1.04905 -0.0001 0 -2.0546e-05 0 0 0 0 0 0 0 0 0 0 0 0 0 0 0 0 0 0 0.001 0 
61 1 0.0135111 0.0748466 0.0163164 0 0 0 -0.182554 8.59876 -3.39065 0 -2.0546e-05 0 0 0 0 0 0 0 0 0 0 0 0 0 0 0 0 0 0 0.001 0 
180 6 0.00241419 0.0828863 0.016883 0 0 0 1.7184 -3.2756 4.08245 0 -2.0546e-05 0 0 0 0 0 0 0 0 0 0 0 0 0 0 0 0 0 0 0.001 0 
263 3 0.014554 0.107149 0.0170168 0 0 0 0.673959 -0.607038 -1.99751 0 -2.0546e-05 0 0 0 0 0 0 0 0 0 0 0 0 0 0 0 0 0 0 0.001 0 
422 1 0.01311 0.0369222 0.0183639 0 0 0 0 -1.14715 -0.0001 0 -2.0546e-05 0 0 0 0 0 0 0 0 0 0 0 0 0 0 0 0 0 0 0.001 0 
23 1 0.0133499 0.0838842 0.0182095 0 0 0 2.00238 -0.0427772 -2.82601 0 -2.0546e-05 0 0 0 0 0 0 0 0 0 0 0 0 0 0 0 0 0 0 0.001 0 
215 2 0.00937106 0.0698316 0.0194755 0 0 0 1.28333 -0.786566 4.95258 0 -2.0546e-05 0 0 0 0 0 0 0 0 0 0 0 0 0 0 0 0 0 0 0.001 0 
147 8 0.0120673 0.0849743 0.0194024 0 0 0 -0.945003 -3.46562 -4.62122 0 -2.0546e-05 0 0 0 0 0 0 0 0 0 0 0 0 0 0 0 0 0 0 0.001 0 
203 2 0.0111996 0.0985028 0.0199938 0 0 0 -1.17577 -0.666248 0.813014 0 -2.0546e-05 0 0 0 0 0 0 0 0 0 0 0 0 0 0 0 0 0 0 0.001 0 
192 5 0.0187288 0.0624378 0.0201038 0 0 0 -1.32639 -1.82015 -0.913356 0 -2.0546e-05 0 0 0 0 0 0 0 0 0 0 0 0 0 0 0 0 0 0 0.001 0 
275 2 0.0101205 0.0848076 0.0201701 0 0 0 -2.53029 -1.31496 -0.68921 0 -2.0546e-05 0 0 0 0 0 0 0 0 0 0 0 0 0 0 0 0 0 0 0.001 0 
233 3 0.00619804 0.0847162 0.0221995 0 0 0 0.0268188 -1.77049 3.68622 0 -2.0546e-05 0 0 0 0 0 0 0 0 0 0 0 0 0 0 0 0 0 0 0.001 0 
36 3 0.0132021 0.102503 0.0227068 0 0 0 -0.307961 0.0519864 -0.049268 0 -2.0546e-05 0 0 0 0 0 0 0 0 0 0 0 0 0 0 0 0 0 0 0.001 0 
169 5 0.0186049 0.104448 0.02337 0 0 0 -1.93867 -0.496765 0.101493 0 -2.0546e-05 0 0 0 0 0 0 0 0 0 0 0 0 0 0 0 0 0 0 0.001 0 
298 8 0.00451646 0.0347027 0.0245948 0 0 0 -3.5513 -2.30271 -3.81607 0 -2.0546e-05 0 0 0 0 0 0 0 0 0 0 0 0 0 0 0 0 0 0 0.001 0 
184 1 0.00873573 0.0570414 0.0240896 0 0 0 -6.66329 1.09881 -11.789 0 -2.0546e-05 0 0 0 0 0 0 0 0 0 0 0 0 0 0 0 0 0 0 0.001 0 
212 10 0.0181124 0.0676134 0.0249036 0 0 0 -0.293136 -1.54406 -1.0813 0 -2.0546e-05 0 0 0 0 0 0 0 0 0 0 0 0 0 0 0 0 0 0 0.001 0 
371 2 0.00584536 0.0699246 0.0246635 0 0 0 0.428823 -1.03776 0.650445 0 -2.0546e-05 0 0 0 0 0 0 0 0 0 0 0 0 0 0 0 0 0 0 0.001 0 
247 5 0.0065319 0.0741068 0.0256364 0 0 0 0.759235 0.499151 0.414275 0 -2.0546e-05 0 0 0 0 0 0 0 0 0 0 0 0 0 0 0 0 0 0 0.001 0 
226 7 0.00889822 0.100604 0.0261345 0 0 0 0.434569 -0.737171 4.00918 0 -2.0546e-05 0 0 0 0 0 0 0 0 0 0 0 0 0 0 0 0 0 0 0.001 0 
314 4 0.0124439 0.107016 0.0260838 0 0 0 3.47472 -1.54112 -2.92953 0 -2.0546e-05 0 0 0 0 0 0 0 0 0 0 0 0 0 0 0 0 0 0 0.001 0 
14 3 0.00685625 0.0497038 0.0267646 0 0 0 1.16138 -1.29388 5.48277 0 -2.0546e-05 0 0 0 0 0 0 0 0 0 0 0 0 0 0 0 0 0 0 0.001 0 
239 5 0.0151364 0.0499154 0.0263937 0 0 0 1.26736 -7.33626 -1.73312 0 -2.0546e-05 0 0 0 0 0 0 0 0 0 0 0 0 0 0 0 0 0 0 0.001 0 
363 1 0.0103863 0.0270683 0.0276086 0 0 0 1.7779 -4.11219 4.23111 0 -2.0546e-05 0 0 0 0 0 0 0 0 0 0 0 0 0 0 0 0 0 0 0.001 0 
214 4 0.00428268 0.0451163 0.0282604 0 0 0 0.825052 1.99837 -3.90098 0 -2.0546e-05 0 0 0 0 0 0 0 0 0 0 0 0 0 0 0 0 0 0 0.001 0 
208 3 0.0143505 0.0968005 0.0287354 0 0 0 -0.556951 -0.838047 1.17992 0 -2.0546e-05 0 0 0 0 0 0 0 0 0 0 0 0 0 0 0 0 0 0 0.001 0 
204 1 0.00408234 0.021325 0.0296024 0 0 0 0.142753 -2.8277 3.21269 0 -2.0546e-05 0 0 0 0 0 0 0 0 0 0 0 0 0 0 0 0 0 0 0.001 0 
91 1 0.00491701 0.0492505 0.0299609 0 0 0 -4.42075 16.4146 -27.4872 0 -2.0546e-05 0 0 0 0 0 0 0 0 0 0 0 0 0 0 0 0 0 0 0.001 0 
114 4 0.0115661 0.0966049 0.0288592 0 0 0 0.374529 0.564813 -0.358277 0 -2.0546e-05 0 0 0 0 0 0 0 0 0 0 0 0 0 0 0 0 0 0 0.001 0 
123 1 0.00454337 0.102267 0.0296969 0 0 0 1.10424 1.81817 4.90555 0 -2.0546e-05 0 0 0 0 0 0 0 0 0 0 0 0 0 0 0 0 0 0 0.001 0 
173 2 0.0123867 0.0440936 0.0300839 0 0 0 1.85907 4.67012 -1.22146 0 -2.0546e-05 0 0 0 0 0 0 0 0 0 0 0 0 0 0 0 0 0 0 0.001 0 
135 3 0.0057682 0.0715578 0.0312316 0 0 0 -0.984084 0.388405 -2.17696 0 -2.0546e-05 0 0 0 0 0 0 0 0 0 0 0 0 0 0 0 0 0 0 0.001 0 
299 4 0.0105081 0.072014 0.0303415 0 0 0 -2.64665 -0.696685 0.897155 0 -2.0546e-05 0 0 0 0 0 0 0 0 0 0 0 0 0 0 0 0 0 0 0.001 0 
141 1 0.00196772 0.0915346 0.0309421 0 0 0 0.791582 -1.53096 -0.655564 0.0321663 0.00892124 0.0100348 0 0 0 0 0 0 0 0 0 0 0 0 0 0 0 0 0 0.001 0 
57 3 0.0124016 0.0997809 0.0312393 0 0 0 0.525947 -0.678829 -0.519683 0 -2.0546e-05 0 0 0 0 0 0 0 0 0 0 0 0 0 0 0 0 0 0 0.001 0 
262 1 0.00632517 0.104679 0.0307471 0 0 0 0.0433245 0.338219 -0.559589 0 -2.0546e-05 0 0 0 0 0 0 0 0 0 0 0 0 0 0 0 0 0 0 0.001 0 
28 1 0.00900908 0.0409452 0.0317075 0 0 0 -1.36597 -3.32636 -0.792003 0 -2.0546e-05 0 0 0 0 0 0 0 0 0 0 0 0 0 0 0 0 0 0 0.001 0 
250 1 0.00262215 0.0546927 0.0324143 0 0 0 1.49882 0.795892 0.548913 0 -2.0546e-05 0 0 0 0 0 0 0 0 0 0 0 0 0 0 0 0 0 0 0.001 0 
51 2 0.00248955 0.085588 0.0324138 0 0 0 0.545164 -1.36685 0.374444 0 -2.0546e-05 0 0 0 0 0 0 0 0 0 0 0 0 0 0 0 0 0 0 0.001 0 
136 3 0.00480187 0.102667 0.0334645 0 0 0 1.57378 -2.78067 -0.410032 0 -2.0546e-05 0 0 0 0 0 0 0 0 0 0 0 0 0 0 0 0 0 0 0.001 0 
378 3 0.0143506 0.0417376 0.0415635 0 0 0 7.2495 30.5407 -31.026 0.0539706 -0.372126 -0.258929 0 0 0 0 0 0 0 0 0 0 0 0 0 0 0 0 0 0.001 0 
119 10 0.00466895 0.0328599 0.0485532 0 0 0 3.92012 15.0842 -7.92169 0 -2.0546e-05 0 0 0 0 0 0 0 0 0 0 0 0 0 0 0 0 0 0 0.001 0 
374 2 0.0256711 -0.00711926 -0.0576719 0 0 0 5.02117 -12.3246 0.45173 0 -2.0546e-05 0 0 0 0 0 0 0 0 0 0 0 0 0 0 0 0 0 0 0.001 0 
8 5 0.0332264 -0.0191315 -0.0553794 0 0 0 -0.527055 -13.0406 4.46683 0 -2.0546e-05 0 0 0 0 0 0 0 0 0 0 0 0 0 0 0 0 0 0 0.001 0 
15 5 0.0449918 -0.0332343 -0.0330423 0 0 0 3.29224 -70.7555 71.1093 1.32767 -0.82098 1.26068 0 0 0 0 0 0 0 0 0 0 0 0 0 0 0 0 0 0.001 0 
35 2 0.0376075 -0.0388073 -0.0313413 0 0 0 5.40802 -68.4233 82.87 0.046591 0.279529 0.307848 0 0 0 0 0 0 0 0 0 0 0 0 0 0 0 0 0 0.001 0 
29 4 0.0356237 -0.0340815 -0.0243368 0 0 0 -0.0116773 -48.652 68.1982 3.75453e-08 0.285815 0.203702 0 0 0 0 0 0 0 0 0 0 0 0 0 0 0 0 0 0.001 0 
48 9 0.0298062 -0.0543662 -0.0222968 0 0 0 0.220586 -3.41746 10.5686 -0.00585082 -0.0114993 -0.00329976 0 0 0 0 0 0 0 0 0 0 0 0 0 0 0 0 0 0.001 0 
154 4 0.0208963 -0.0577115 -0.00979349 0 0 0 1.42557 -2.83041 9.8537 0 -2.0546e-05 0 0 0 0 0 0 0 0 0 0 0 0 0 0 0 0 0 0 0.001 0 
334 4 0.0248427 -0.0585244 0.00421794 0 0 0 3.24991 -0.641885 7.72699 0 -2.0546e-05 0 0 0 0 0 0 0 0 0 0 0 0 0 0 0 0 0 0 0.001 0 
94 8 0.0250462 -0.0536911 0.0286659 0 0 0 -1.77758e-06 -1.33408e-12 8.26025e-13 4.78503e-19 0 0 0 0 0 0 0 0 0 0 0 0 0 0 0 0 0 0 0 0.001 0 
44 3 0.0464958 -0.0323765 0.0491721 0 0 0 -13.1154 37.3278 26.7187 -0.00624189 0.00139557 0.0334343 0 0 0 0 0 0 0 0 0 0 0 0 0 0 0 0 0 0.001 0 
438 6 0.0459622 -0.0303785 0.0502531 0 0 0 -9.40486 42.3035 27.9303 0 -2.0546e-05 0 0 0 0 0 0 0 0 0 0 0 0 0 0 0 0 0 0 0.001 0 
198 10 0.0317366 -0.0200186 0.0547359 0 0 0 -9.695 49.266 12.4599 0.118749 0.0399195 -0.116788 0 0 0 0 0 0 0 0 0 1 0 0 0 0 0 0 1 0.001 0 
446 5 0.0301163 -0.0197114 0.0556979 0 0 0 -7.17573 45.6777 13.5395 0.393222 -0.00908187 -1.11664 0 0 0 0 0 0 0 0 0 1 0 0 0 0 0 0 1 0.001 0 
26 2 0.0189995 0.0115647 -0.0598601 0 0 0 4.33124e-06 4.99758e-13 -1.75646e-12 1.02105e-17 0 0 0 0 0 0 0 0 0 0 0 0 0 0 0 0 0 0 0 0.001 0 
437 3 0.0352873 0.000687209 -0.0584907 0 0 0 -13.7581 -27.7744 -40.7166 0 -2.0546e-05 0 0 0 0 0 0 0 0 0 0 0 0 0 0 0 0 0 0 0.001 0 
401 12 0.0230649 0.00171282 -0.0555413 0 0 0 0.16832 -8.31193 -0.688952 0 -2.0546e-05 0 0 0 0 0 0 0 0 0 0 0 0 0 0 0 0 0 0 0.001 0 
156 4 0.0391303 0.0433581 -0.0425975 0 0 0 -1.18637e-06 -2.61614e-13 2.38494e-13 -1.03558e-17 0 0 0 0 0 0 0 0 0 0 0 0 0 0 0 0 0 0 0 0.001 0 
111 1 0.0301851 0.0301296 -0.0405551 0 0 0 41.4968 -45.7498 -75.3975 0 -2.0546e-05 0 0 0 0 0 0 0 0 0 0 0 0 0 0 0 0 0 0 0.001 0 
301 2 0.0317186 0.0352586 -0.0382541 0 0 0 35.7172 -68.3355 -75.0113 0 -2.0546e-05 0 0 0 0 0 0 0 0 0 0 0 0 0 0 0 0 0 0 0.001 0 
116 3 0.0308513 0.0476879 -0.0378479 0 0 0 -4.36657e-06 -2.11868e-13 1.93144e-13 -2.01973e-18 0 0 0 0 0 0 0 0 0 0 0 0 0 0 0 0 0 0 0 0.001 0 
206 2 0.0422901 0.0446312 -0.0364786 0 0 0 38.1585 -16.3007 -84.9682 0 -2.0546e-05 0 0 0 0 0 0 0 0 0 0 0 0 0 0 0 0 0 0 0.001 0 
7 4 0.0391127 0.0400692 -0.0355138 0 0 0 46.3472 -49.4412 -87.0025 0 -2.0546e-05 0 0 0 0 0 0 0 0 0 0 0 0 0 0 0 0 0 0 0.001 0 
287 4 0.0375214 0.0511181 -0.0355 0 0 0 -4.95099e-17 1.76087e-16 2.41474e-13 -8.67362e-19 0 4.44089e-16 0 0 0 1 0 0 0 0 0 0 0 0 0 0 0 0 2 0.001 0 
218 8 0.0434822 0.0510915 -0.0354959 0 0 0 -1.58294e-14 -2.77996e-14 9.14271e-14 1.84575e-15 2.76862e-15 4.44089e-16 0 0 0 0 0 0 0 1 0 0 0 0 0 0 0 0 7 0.001 0 
38 6 0.0273746 0.0513544 -0.0355 0 0 0 -3.16358e-303 4.49447e-20 -5.07127e-12 -1.84626e-307 0 -4.44089e-16 0 0 0 0 0 0 0 0 0 0 0 0 0 0 0 0 0 0.001 0 
176 8 0.0327988 0.0512816 -0.0355 0 0 0 -1.89966e-201 -6.74392e-20 6.08169e-12 -9.36022e-203 0 4.44089e-16 0 0 0 0 0 0 0 0 0 0 0 0 0 0 0 0 0 0.001 0 
87 4 0.0349592 0.0513006 -0.0355006 0 0 0 -3.60579e-16 1.08933e-15 -3.54885e-12 0 0 0 0 0 0 1 0 0 0 0 0 0 0 0 0 0 0 0 5 0.001 0 
444 2 0.0400572 0.0516014 -0.0355 0 0 0 7.54285e-15 -3.58559e-14 9.70245e-14 -8.53484e-16 3.24393e-15 0 0 1 0 0 0 0 0 0 0 0 0 0 0 0 0 0 1 0.001 0 
348 7 0.0419322 0.0520496 -0.0355041 0 0 0 8.31315e-15 6.37292e-14 9.69917e-14 -1.05471e-15 -6.03684e-15 0 0 1 0 0 0 0 0 1 0 0 0 0 0 0 0 0 4 0.001 0 
82 3 0.0342284 0.0529649 -0.0354994 0 0 0 4.40282e-16 -7.35388e-16 -3.54921e-12 0 0 0 0 0 0 1 0 0 0 0 0 0 0 0 0 0 0 0 5 0.001 0 
31 2 0.0381809 0.0529728 -0.0355 0 0 0 1.3702e-17 -4.74945e-17 2.41466e-13 5.42101e-19 8.67362e-19 0 0 1 0 1 0 0 0 0 0 0 0 0 0 0 0 0 4 0.001 0 
125 1 0.0447612 0.0526408 -0.0355 0 0 0 -3.91748e-50 -1.08658e-20 -1.01312e-12 -2.06336e-51 0 -4.44089e-16 0 0 0 0 0 0 0 0 0 0 0 0 0 0 0 0 4 0.001 0 
227 7 0.031751 0.054675 -0.0355 0 0 0 -7.82887e-30 9.02297e-20 -3.03947e-12 -1.24744e-30 0 4.44089e-16 0 0 0 0 0 0 0 0 0 0 0 0 0 0 0 0 0 0.001 0 
166 4 0.0362715 0.053772 -0.0355 0 0 0 6.3602e-116 -5.62089e-20 6.08169e-12 -1.57663e-116 0 4.44089e-16 0 0 0 0 0 0 0 0 0 0 0 0 0 0 0 0 0 0.001 0 
65 1 0.0389432 0.0547956 -0.0355001 0 0 0 1.17592e-16 9.48568e-17 2.41461e-13 -1.73472e-18 1.73472e-18 4.44089e-16 1 1 0 0 0 0 0 0 0 0 0 0 0 0 0 0 10 0.001 0 
6 4 0.0408721 0.0544179 -0.0354999 0 0 0 -1.77182e-16 -3.79052e-17 2.41606e-13 0 -4.33681e-19 0 1 0 0 0 0 0 0 0 0 0 0 0 0 0 0 0 8 0.001 0 
107 1 0.0436967 0.0554644 -0.0355 0 0 0 -2.0257e-302 -8.91458e-20 -1.01318e-12 1.80194e-307 0 -4.44089e-16 0 0 0 0 0 0 0 0 0 0 0 0 0 0 0 0 0 0.001 0 
286 3 0.0473354 0.0553516 -0.0354999 0 0 0 1.28715e-15 -1.12731e-15 -4.55565e-12 1.38778e-17 0 0 0 0 1 0 0 0 0 0 0 0 0 0 0 0 0 0 4 0.001 0 
210 5 0.0416361 0.0577949 -0.0355 0 0 0 -9.81724e-303 1.01078e-19 -6.08173e-12 -1.79863e-307 1.69407e-21 -4.44089e-16 0 0 0 0 0 0 0 0 0 0 0 0 0 0 0 0 0 0.001 0 
18 9 0.0457445 0.0622966 -0.0355 0 0 0 1.72673e-46 -1.34554e-19 -4.05556e-12 -8.61514e-47 0 0 0 0 0 0 0 0 0 0 0 0 0 0 0 0 0 0 0 0.001 0 
222 3 0.0434695 0.0635438 -0.0355 0 0 0 9.47949e-45 -1.12155e-19 5.07134e-12 -3.32934e-45 0 -4.44089e-16 0 0 0 0 0 0 0 0 0 0 0 0 0 0 0 0 0 0.001 0 
200 6 0.0438056 0.0659364 -0.0355 0 0 0 1.78696e-302 -7.84866e-20 6.08173e-12 -1.84741e-307 1.69407e-21 -4.44089e-16 0 0 0 0 0 0 0 0 0 0 0 0 0 0 0 0 0 0.001 0 
325 1 0.0460339 0.0659413 -0.0355 0 0 0 1.20021e-306 1.01174e-19 6.08168e-12 -1.81038e-307 -1.69407e-21 -4.44089e-16 0 0 0 0 0 0 0 0 0 0 0 0 0 0 0 0 0 0.001 0 
245 3 0.0368783 0.0679794 -0.0355 0 0 0 -3.37924e-120 1.23718e-19 6.08167e-12 6.75859e-122 0 4.44089e-16 0 0 0 0 0 0 0 0 0 0 0 0 0 0 0 0 0 0.001 0 
315 4 0.0346838 0.0689692 -0.0355 0 0 0 4.74828e-142 5.68916e-20 -2.02907e-12 -8.10805e-143 0 -4.44089e-16 0 0 0 0 0 0 0 0 0 0 0 0 0 0 0 0 0 0.001 0 
431 6 0.0454843 0.0441057 -0.0345711 0 0 0 49.9916 -28.2788 -90.4974 0 -2.0546e-05 0 0 0 0 0 0 0 0 0 0 0 0 0 0 0 0 0 0 0.001 0 
308 4 0.0316726 0.10807 -0.0342123 0 0 0 -0.320261 19.4504 2.03242 0.125279 -0.0361898 0.954095 0 0 0 0 0 0 0 0 0 0 0 0 0 0 0 0 0 0.001 0 
165 2 0.0284009 0.0302884 -0.0333134 0 0 0 -6.1164 -62.191 -56.0753 -2.66363 1.2418 2.217 0 0 0 0 0 0 0 0 0 0 0 0 0 0 0 0 0 0.001 0 
117 5 0.0316194 0.0351208 -0.0332783 0 0 0 -0.019058 -66.6049 -70.2229 -1.23225e-05 -0.294094 0.279152 0 0 0 0 0 0 0 0 0 0 0 0 0 0 0 0 0 0.001 0 
365 3 0.0421257 0.0383261 -0.0333885 0 0 0 38.5335 -27.3518 -82.7392 0 -2.0546e-05 0 0 0 0 0 0 0 0 0 0 0 0 0 0 0 0 0 0 0.001 0 
246 4 0.042546 0.0757623 -0.0332108 0 0 0 0.905167 0.192211 0.227129 0 -2.0546e-05 0 0 0 0 0 0 0 0 0 0 0 0 0 0 0 0 0 0 0.001 0 
384 3 0.0351143 0.0796704 -0.0334119 0 0 0 3.91609 -1.33807 0.309815 0 -2.0546e-05 0 0 0 0 0 0 0 0 0 0 0 0 0 0 0 0 0 0 0.001 0 
232 8 0.0329723 0.0897432 -0.0325752 0 0 0 4.86682 9.79371 -13.96 0 -2.0546e-05 0 0 0 0 0 0 0 0 0 0 0 0 0 0 0 0 0 0 0.001 0 
356 5 0.0319742 0.0643246 -0.0316911 0 0 0 -1.5337 -2.92294 -0.577361 0 -2.0546e-05 0 0 0 0 0 0 0 0 0 0 0 0 0 0 0 0 0 0 0.001 0 
330 1 0.0470075 0.0778854 -0.0323715 0 0 0 2.81137 14.6237 35.7593 0 -2.0546e-05 0 0 0 0 0 0 0 0 0 0 0 0 0 0 0 0 0 0 0.001 0 
121 5 0.0247322 0.10267 -0.031958 0 0 0 -0.625011 -3.79798 2.16689 0 -2.0546e-05 0 0 0 0 0 0 0 0 0 0 0 0 0 0 0 0 0 0 0.001 0 
425 4 0.0220511 0.0939185 -0.0303777 0 0 0 5.63413 4.74793 -9.0905 0 -2.0546e-05 0 0 0 0 0 0 0 0 0 0 0 0 0 0 0 0 0 0 0.001 0 
217 7 0.0430074 0.103289 -0.0304132 0 0 0 -0.158477 -2.46504 1.38936 0 -2.0546e-05 0 0 0 0 0 0 0 0 0 0 0 0 0 0 0 0 0 0 0.001 0 
55 2 0.0233117 0.0150337 -0.0293298 0 0 0 0.930104 -2.66212 0.0288416 0 -2.0546e-05 0 0 0 0 0 0 0 0 0 0 0 0 0 0 0 0 0 0 0.001 0 
282 9 0.0453447 0.0839312 -0.0290346 0 0 0 -0.707898 -0.755795 -1.98307 0 -2.0546e-05 0 0 0 0 0 0 0 0 0 0 0 0 0 0 0 0 0 0 0.001 0 
253 1 0.0469823 0.0896109 -0.029184 0 0 0 -2.02408 -2.94035 2.30775 0 -2.0546e-05 0 0 0 0 0 0 0 0 0 0 0 0 0 0 0 0 0 0 0.001 0 
188 5 0.0449542 0.106745 -0.0289812 0 0 0 2.69199 -2.3012 3.07813 0 -2.0546e-05 0 0 0 0 0 0 0 0 0 0 0 0 0 0 0 0 0 0 0.001 0 
434 3 0.0291001 0.0254969 -0.0279265 0 0 0 -12.9535 -33.9356 -68.7126 0 -2.0546e-05 0 0 0 0 0 0 0 0 0 0 0 0 0 0 0 0 0 0 0.001 0 
237 12 0.0440601 0.0908856 -0.0281469 0 0 0 -0.787567 -1.62244 0.784953 0 -2.0546e-05 0 0 0 0 0 0 0 0 0 0 0 0 0 0 0 0 0 0 0.001 0 
300 1 0.0199676 0.103132 -0.0277604 0 0 0 5.98776 -2.54019 1.33534 0 -2.0546e-05 0 0 0 0 0 0 0 0 0 0 0 0 0 0 0 0 0 0 0.001 0 
436 5 0.0310234 0.102535 -0.0286863 0 0 0 6.13674 8.81272 -4.06042 0 -2.0546e-05 0 0 0 0 0 0 0 0 0 0 0 0 0 0 0 0 0 0 0.001 0 
292 1 0.0271539 0.107207 -0.0284875 0 0 0 -0.81957 -0.94446 3.68345 0 -2.0546e-05 0 0 0 0 0 0 0 0 0 0 0 0 0 0 0 0 0 0 0.001 0 
223 3 0.0423377 0.109079 -0.0283663 0 0 0 4.3842 -4.14426 -4.40527 -0.000271338 -0.0363154 0.0181454 0 0 0 0 0 0 0 0 0 0 0 0 0 0 0 0 0 0.001 0 
427 5 0.0394679 0.0800194 -0.0263605 0 0 0 -0.301324 -1.20679 -4.47631 0 -2.0546e-05 0 0 0 0 0 0 0 0 0 0 0 0 0 0 0 0 0 0 0.001 0 
80 6 0.0287681 0.108894 -0.0267367 0 0 0 10.3672 -1.64527 -8.15367 0 -2.0546e-05 0 0 0 0 0 0 0 0 0 0 0 0 0 0 0 0 0 0 0.001 0 
285 3 0.0365713 0.0347299 -0.026128 0 0 0 -0.0197213 -52.3002 -69.4453 5.3698e-08 -0.290831 0.21926 0 0 0 0 0 0 0 0 0 0 0 0 0 0 0 0 0 0.001 0 
190 8 0.0351045 0.0990638 -0.0252441 0 0 0 0.705771 -0.154997 -1.35436 0 -2.0546e-05 0 0 0 0 0 0 0 0 0 0 0 0 0 0 0 0 0 0 0.001 0 
274 1 0.0371081 0.104248 -0.025488 0 0 0 8.82743 -6.86098 8.34969 0 -2.0546e-05 0 0 0 0 0 0 0 0 0 0 0 0 0 0 0 0 0 0 0.001 0 
179 16 0.0252164 0.0832805 -0.0240211 0 0 0 3.90105 1.72983 4.02569 0 -2.0546e-05 0 0 0 0 0 0 0 0 0 0 0 0 0 0 0 0 0 0 0.001 0 
346 5 0.0207885 0.0982177 -0.0240384 0 0 0 2.2446 0.300286 3.15921 0 -2.0546e-05 0 0 0 0 0 0 0 0 0 0 0 0 0 0 0 0 0 0 0.001 0 