ITEM: TIMESTEP
400000
ITEM: NUMBER OF ATOMS
399
ITEM: BOX BOUNDS ff ff ff
-0.01 0.45
-0.15 0.15
-0.08 0.1
ITEM: ATOMS id type x y z ix iy iz vx vy vz fx fy fz c_cc_1 c_cc_2 c_cc_3 c_cc_4 c_cc_5 c_cc_6 c_cc_7 c_cc_8 c_cc_9 c_cc_10 c_cc_11 c_cc_12 c_cc_13 c_cc_14 c_cc_15 c_cc_16 f_fppacc radius c_cc_17 
79 5 0.016401 -0.00338066 -0.0606867 0 0 0 2.49405e-07 -4.17854e-13 -4.50938e-12 2.77911e-21 0 0 0 0 0 0 0 0 0 0 0 0 0 0 0 0 0 0 0 0.001 0 
381 6 0.00627695 -0.0136955 -0.0570834 0 0 0 3.37365 -16.9318 5.98834 0 -2.0546e-05 0 0 0 0 0 0 0 0 0 0 0 0 0 0 0 0 0 0 0.001 0 
52 4 0.0163502 -0.0255618 -0.0551251 0 0 0 -9.65066e-08 2.099e-12 4.21537e-12 -3.20784e-19 0 0 0 0 0 0 0 0 0 0 0 0 0 0 0 0 0 0 0 0.001 0 
291 6 0.0137128 -0.0352295 -0.0465447 0 0 0 0.873531 -15.6242 10.9867 0 -2.0546e-05 0 0 0 0 0 0 0 0 0 0 0 0 0 0 0 0 0 0 0.001 0 
341 5 0.0116818 -0.0504168 -0.0285581 0 0 0 0.00495065 -5.16949 7.50905 0 -2.0546e-05 0 0 0 0 0 0 0 0 0 0 0 0 0 0 0 0 0 0 0.001 0 
292 1 0.00207484 -0.0581022 -0.00772127 0 0 0 -0.393581 -2.2471 16.8087 0 -2.0546e-05 0 0 0 0 0 0 0 0 0 0 0 0 0 0 0 0 0 0 0.001 0 
158 7 0.0178947 -0.0553492 0.0173218 0 0 0 2.25517 1.87966 6.34786 0 -2.0546e-05 0 0 0 0 0 0 0 0 0 0 0 0 0 0 0 0 0 0 0.001 0 
3 6 0.0139601 -0.042501 0.0435377 0 0 0 -9.62021e-07 6.87852e-12 -6.2706e-12 1.03023e-17 0 0 0 0 0 0 0 0 0 0 0 0 0 0 0 0 0 0 0 0.001 0 
24 1 0.0157512 -0.00714115 0.0453996 0 0 0 0.777783 -3.2706 0.86741 0 -2.0546e-05 0 0 0 0 0 0 0 0 0 0 0 0 0 0 0 0 0 0 0.001 0 
384 3 0.00974519 -0.0166969 0.0546308 0 0 0 7.29274 -6.83777 -6.66753 0 -2.0546e-05 0 0 0 0 0 0 0 0 0 0 0 0 0 0 0 0 0 0 0.001 0 
330 1 0.0069726 -0.0145534 0.05686 0 0 0 -2.48943 14.5281 3.75385 0 -2.0546e-05 0 0 0 0 0 0 0 0 0 0 0 0 0 0 0 0 0 0 0.001 0 
356 5 0.00245842 -0.00912681 0.0576709 0 0 0 4.40767 41.7076 6.5841 0 -2.0546e-05 0 0 0 0 0 0 0 0 0 0 0 0 0 0 0 0 0 0 0.001 0 
304 4 0.0144759 0.00935774 -0.0552183 0 0 0 2.08993 -20.6261 -1.93578 0 -2.0546e-05 0 0 0 0 0 0 0 0 0 0 0 0 0 0 0 0 0 0 0.001 0 
331 5 0.0179884 0.0110711 -0.055311 0 0 0 0.574095 -3.64496 -1.2374 0 -2.0546e-05 0 0 0 0 0 0 0 0 0 0 0 0 0 0 0 0 0 0 0.001 0 
86 4 0.0177192 0.0211132 -0.0545286 0 0 0 -0.00316844 -0.672343 0.480594 0 -2.0546e-05 0 0 0 0 0 0 0 0 0 0 0 0 0 0 0 0 0 0 0.001 0 
41 1 0.0171818 0.0293263 -0.0532505 0 0 0 3.29301e-19 -1.62023e-12 3.25386e-12 -1.18513e-30 0 0 0 0 0 0 0 0 0 0 0 0 0 0 0 0 0 0 0 0.001 0 
324 12 0.00439773 0.0343963 -0.0386554 0 0 0 0.50866 2.66718 -19.5535 0 -2.0546e-05 0 0 0 0 0 0 0 0 0 0 0 0 0 0 0 0 0 0 0.001 0 
89 9 0.00981859 0.0527576 -0.0355 0 0 0 9.92297e-303 -8.98145e-20 6.08169e-12 1.68045e-307 0 -4.44089e-16 0 0 0 0 0 0 0 0 0 0 0 0 0 0 0 0 0 0.001 0 
67 5 0.00739403 0.0557137 -0.0355 0 0 0 1.34074e-302 -7.97717e-23 -6.08165e-12 1.84707e-307 -1.69407e-21 -4.44089e-16 0 0 0 0 0 0 0 0 0 0 0 0 0 0 0 0 0 0.001 0 
323 3 0.00396959 0.0673944 -0.0355 0 0 0 3.94369e-303 1.35138e-19 -4.06075e-12 -1.83929e-307 0 0 0 0 0 0 0 0 0 0 0 0 0 0 0 0 0 0 0 0.001 0 
266 4 0.0133308 0.0986946 -0.0340484 0 0 0 1.85658 1.6379 0.936541 -0.011624 -0.000801938 0.076 0 0 0 0 0 0 0 0 0 0 0 0 0 0 0 0 0 0.001 0 
93 7 0.00404182 0.053072 -0.0336911 0 0 0 1.01957 0.965259 0.83237 0 -2.0546e-05 0 0 0 0 0 0 0 0 0 0 0 0 0 0 0 0 0 0 0.001 0 
355 8 0.00381934 0.0724824 -0.0336151 0 0 0 4.77636 7.41529 3.39296 0 -2.0546e-05 0 0 0 0 0 0 0 0 0 0 0 0 0 0 0 0 0 0 0.001 0 
58 7 0.00777904 0.0515516 -0.0321925 0 0 0 1.33907 0.300857 0.681567 0 -2.0546e-05 0 0 0 0 0 0 0 0 0 0 0 0 0 0 0 0 0 0 0.001 0 
311 5 0.00227091 0.066743 -0.0314988 0 0 0 -1.12182 -1.07058 -5.88406 0 -2.0546e-05 0 0 0 0 0 0 0 0 0 0 0 0 0 0 0 0 0 0 0.001 0 
80 6 0.0171046 0.0805151 -0.0323392 0 0 0 1.2232 -1.35406 -3.14482 0 -2.0546e-05 0 0 0 0 0 0 0 0 0 0 0 0 0 0 0 0 0 0 0.001 0 
173 2 0.00215685 0.0430807 -0.0302375 0 0 0 0.565696 8.6739 -21.0743 0 -2.0546e-05 0 0 0 0 0 0 0 0 0 0 0 0 0 0 0 0 0 0 0.001 0 
55 2 0.00663239 0.0787857 -0.0295926 0 0 0 -2.33148 -2.55063 -0.202113 0 -2.0546e-05 0 0 0 0 0 0 0 0 0 0 0 0 0 0 0 0 0 0 0.001 0 
34 1 0.0133583 0.108034 -0.0293083 0 0 0 1.0839 -0.301411 -0.583066 0 -2.0546e-05 0 0 0 0 0 0 0 0 0 0 0 0 0 0 0 0 0 0 0.001 0 
120 1 0.00713363 0.0753873 -0.028069 0 0 0 2.13391 3.04833 -6.99889 0 -2.0546e-05 0 0 0 0 0 0 0 0 0 0 0 0 0 0 0 0 0 0 0.001 0 
143 10 0.0164803 0.0864465 -0.027771 0 0 0 1.40586 -1.73764 -0.766488 0 -2.0546e-05 0 0 0 0 0 0 0 0 0 0 0 0 0 0 0 0 0 0 0.001 0 
168 4 0.00383647 0.0928412 -0.0279305 0 0 0 0.479507 4.5765 -1.97972 0 -2.0546e-05 0 0 0 0 0 0 0 0 0 0 0 0 0 0 0 0 0 0 0.001 0 
195 3 0.00593516 0.0949783 -0.0272739 0 0 0 2.42157 -4.09281 1.4179 0 -2.0546e-05 0 0 0 0 0 0 0 0 0 0 0 0 0 0 0 0 0 0 0.001 0 
214 4 0.0122754 0.0550928 -0.0256002 0 0 0 0.501509 7.86062 -11.5702 0 -2.0546e-05 0 0 0 0 0 0 0 0 0 0 0 0 0 0 0 0 0 0 0.001 0 
294 2 0.0022056 0.0658105 -0.0256522 0 0 0 -0.257427 -3.0956 -6.26754 0 -2.0546e-05 0 0 0 0 0 0 0 0 0 0 0 0 0 0 0 0 0 0 0.001 0 
146 6 0.00720142 0.0861693 -0.0259255 0 0 0 0.984589 -1.67423 -2.0782 0 -2.0546e-05 0 0 0 0 0 0 0 0 0 0 0 0 0 0 0 0 0 0 0.001 0 
39 4 0.0117342 0.0685281 -0.0240719 0 0 0 2.87277 0.388915 1.34197 0 -2.0546e-05 0 0 0 0 0 0 0 0 0 0 0 0 0 0 0 0 0 0 0.001 0 
386 4 0.00453156 0.072539 -0.0239349 0 0 0 4.25254 -1.94165 1.2139 0 -2.0546e-05 0 0 0 0 0 0 0 0 0 0 0 0 0 0 0 0 0 0 0.001 0 
221 3 0.00917113 0.0954902 -0.0248504 0 0 0 -3.16125 -3.29399 -3.16916 0 -2.0546e-05 0 0 0 0 0 0 0 0 0 0 0 0 0 0 0 0 0 0 0.001 0 
124 1 0.00471299 0.0819508 -0.0227673 0 0 0 0.589878 -1.05689 -3.44237 0 -2.0546e-05 0 0 0 0 0 0 0 0 0 0 0 0 0 0 0 0 0 0 0.001 0 
172 7 0.016528 0.0880662 -0.0233742 0 0 0 10.6189 -6.59924 10.4091 0 -2.0546e-05 0 0 0 0 0 0 0 0 0 0 0 0 0 0 0 0 0 0 0.001 0 
198 10 0.0136872 0.0916004 -0.0203135 0 0 0 4.54911 -7.3052 -4.38049 0 -2.0546e-05 0 0 0 0 0 0 0 0 0 0 0 0 0 0 0 0 0 0 0.001 0 
51 2 0.0125385 0.107579 -0.0208456 0 0 0 -6.20196 12.8245 -1.49841 0 -2.0546e-05 0 0 0 0 0 0 0 0 0 0 0 0 0 0 0 0 0 0 0.001 0 
378 3 0.013065 0.100886 -0.0193702 0 0 0 -3.36904 13.1012 -1.72484 0 -2.0546e-05 0 0 0 0 0 0 0 0 0 0 0 0 0 0 0 0 0 0 0.001 0 
370 2 0.0171785 0.0260639 -0.0184418 0 0 0 0 -1.14715 -0.0001 0 -2.0546e-05 0 0 0 0 0 0 0 0 0 0 0 0 0 0 0 0 0 0 0.001 0 
377 5 0.0168308 0.0687921 -0.018425 0 0 0 1.73307 -0.662412 1.29747 0 -2.0546e-05 0 0 0 0 0 0 0 0 0 0 0 0 0 0 0 0 0 0 0.001 0 
37 5 0.00365343 0.0401917 -0.0173039 0 0 0 -14.4012 -6.74604 6.96568 0 -2.0546e-05 0 0 0 0 0 0 0 0 0 0 0 0 0 0 0 0 0 0 0.001 0 
319 8 0.00584559 0.0535313 -0.0151798 0 0 0 1.58892 -1.8265 1.82493 0 -2.0546e-05 0 0 0 0 0 0 0 0 0 0 0 0 0 0 0 0 0 0 0.001 0 
253 1 0.0039973 0.0400149 -0.0141009 0 0 0 -0.165403 -1.70606 -5.9271 0 -2.0546e-05 0 0 0 0 0 0 0 0 0 0 0 0 0 0 0 0 0 0 0.001 0 
299 4 0.0159383 0.0988377 -0.0142108 0 0 0 0.790589 -1.04908 1.40309 0 -2.0546e-05 0 0 0 0 0 0 0 0 0 0 0 0 0 0 0 0 0 0 0.001 0 
260 6 0.00556545 0.0991094 -0.0132438 0 0 0 1.71063 4.34326 2.64476 0 -2.0546e-05 0 0 0 0 0 0 0 0 0 0 0 0 0 0 0 0 0 0 0.001 0 
360 1 0.0117189 0.033837 -0.0120807 0 0 0 0 -1.1962 -0.0001 0 -2.0546e-05 0 0 0 0 0 0 0 0 0 0 0 0 0 0 0 0 0 0 0.001 0 
101 1 0.00915741 0.0396543 -0.012126 0 0 0 1.26807 -1.94239 -2.63288 0 -2.0546e-05 0 0 0 0 0 0 0 0 0 0 0 0 0 0 0 0 0 0 0.001 0 
349 4 0.0181537 0.0756541 -0.0121001 0 0 0 2.35871 1.61101 5.43845 0 -2.0546e-05 0 0 0 0 0 0 0 0 0 0 0 0 0 0 0 0 0 0 0.001 0 
236 10 0.00371476 0.0766478 -0.0123251 0 0 0 1.14902 -4.65172 -1.85928 0 -2.0546e-05 0 0 0 0 0 0 0 0 0 0 0 0 0 0 0 0 0 0 0.001 0 
303 2 0.0141186 0.0876505 -0.0117561 0 0 0 1.42474 -1.7396 1.63891 0 -2.0546e-05 0 0 0 0 0 0 0 0 0 0 0 0 0 0 0 0 0 0 0.001 0 
177 9 0.016771 0.0724793 -0.0100988 0 0 0 -1.16813 -1.06603 0.967867 0 -2.0546e-05 0 0 0 0 0 0 0 0 0 0 0 0 0 0 0 0 0 0 0.001 0 
277 3 0.00969469 0.100348 -0.0108232 0 0 0 -0.561855 20.0061 -7.64046 0 -2.0546e-05 0 0 0 0 0 0 0 0 0 0 0 0 0 0 0 0 0 0 0.001 0 
361 6 0.0168443 0.0343902 -0.00662419 0 0 0 0.874831 3.32921 -16.3287 0 -2.0546e-05 0 0 0 0 0 0 0 0 0 0 0 0 0 0 0 0 0 0 0.001 0 
332 6 0.0165472 0.0642288 -0.00719193 0 0 0 0.853513 1.1176 -0.381906 0 -2.0546e-05 0 0 0 0 0 0 0 0 0 0 0 0 0 0 0 0 0 0 0.001 0 
321 2 0.00894258 0.0658914 -0.00730159 0 0 0 -1.33535 -4.05001 2.08926 0 -2.0546e-05 0 0 0 0 0 0 0 0 0 0 0 0 0 0 0 0 0 0 0.001 0 
257 7 0.0142833 0.0664136 -0.00507714 0 0 0 1.25033 -2.29283 2.47991 0 -2.0546e-05 0 0 0 0 0 0 0 0 0 0 0 0 0 0 0 0 0 0 0.001 0 
169 5 0.00403411 0.0787547 -0.00450472 0 0 0 5.10575 2.75761 2.37087 0 -2.0546e-05 0 0 0 0 0 0 0 0 0 0 0 0 0 0 0 0 0 0 0.001 0 
347 5 0.00396489 0.1032 -0.00425816 0 0 0 -1.97267 -0.956913 1.90213 0 -2.0546e-05 0 0 0 0 0 0 0 0 0 0 0 0 0 0 0 0 0 0 0.001 0 
390 1 0.00836967 0.0379547 -0.00306178 0 0 0 0 -1.04905 -0.0001 0 -2.0546e-05 0 0 0 0 0 0 0 0 0 0 0 0 0 0 0 0 0 0 0.001 0 
392 9 0.0141669 0.0443627 -0.00302883 0 0 0 0 -1.04905 -0.0001 0 -2.0546e-05 0 0 0 0 0 0 0 0 0 0 0 0 0 0 0 0 0 0 0.001 0 
83 2 0.00471224 0.0783354 -0.00264076 0 0 0 -0.105555 -4.49056 2.64533 0 -2.0546e-05 0 0 0 0 0 0 0 0 0 0 0 0 0 0 0 0 0 0 0.001 0 
226 7 0.0105016 0.0434454 -0.00192849 0 0 0 -0.583616 -1.26688 -1.9235 0 -2.0546e-05 0 0 0 0 0 0 0 0 0 0 0 0 0 0 0 0 0 0 0.001 0 
275 2 0.0108384 0.107361 -0.00223775 0 0 0 -0.820736 -0.158 2.36309 0 -2.0546e-05 0 0 0 0 0 0 0 0 0 0 0 0 0 0 0 0 0 0 0.001 0 
380 1 0.00901269 0.032823 -0.000592311 0 0 0 -0.00750431 2.16429 -7.85074 0 -2.0546e-05 0 0 0 0 0 0 0 0 0 0 0 0 0 0 0 0 0 0 0.001 0 
238 5 0.00818961 0.0516718 -0.000993132 0 0 0 0.77309 -2.15261 8.25657 0 -2.0546e-05 0 0 0 0 0 0 0 0 0 0 0 0 0 0 0 0 0 0 0.001 0 
102 6 0.00355514 0.053317 0.00184031 0 0 0 2.39523 2.80206 -15.8833 0 -2.0546e-05 0 0 0 0 0 0 0 0 0 0 0 0 0 0 0 0 0 0 0.001 0 
371 2 0.0155735 0.0365454 0.00340499 0 0 0 -0.874377 3.99972 2.22649 0 -2.0546e-05 0 0 0 0 0 0 0 0 0 0 0 0 0 0 0 0 0 0 0.001 0 
391 3 0.0179609 0.0401907 0.00371117 0 0 0 0.750351 -1.70338 -0.535979 0 -2.0546e-05 0 0 0 0 0 0 0 0 0 0 0 0 0 0 0 0 0 0 0.001 0 
372 1 0.0101484 0.0343394 0.00610648 0 0 0 -0.0271623 7.86777 -10.099 0 -2.0546e-05 0 0 0 0 0 0 0 0 0 0 0 0 0 0 0 0 0 0 0.001 0 
164 1 0.0110773 0.0668088 0.00666616 0 0 0 3.14671 -2.23951 0.263377 0 -2.0546e-05 0 0 0 0 0 0 0 0 0 0 0 0 0 0 0 0 0 0 0.001 0 
265 2 0.0125613 0.0857022 0.00771407 0 0 0 -1.53232 -1.31029 0.988478 0 -2.0546e-05 0 0 0 0 0 0 0 0 0 0 0 0 0 0 0 0 0 0 0.001 0 
190 8 0.0174603 0.0998731 0.0086149 0 0 0 0.705771 0.0902533 -1.35436 0 -2.0546e-05 0 0 0 0 0 0 0 0 0 0 0 0 0 0 0 0 0 0 0.001 0 
333 3 0.00236109 0.0876599 0.00948971 0 0 0 1.06582 -2.21699 1.68257 0 -2.0546e-05 0 0 0 0 0 0 0 0 0 0 0 0 0 0 0 0 0 0 0.001 0 
136 3 0.0058541 0.0966297 0.00966136 0 0 0 0.945533 -2.50999 1.31714 0 -2.0546e-05 0 0 0 0 0 0 0 0 0 0 0 0 0 0 0 0 0 0 0.001 0 
32 2 0.00568156 0.0441988 0.0114604 0 0 0 0.243919 7.57261 -4.28776 0 -2.0546e-05 0 0 0 0 0 0 0 0 0 0 0 0 0 0 0 0 0 0 0.001 0 
21 1 0.00889738 0.101017 0.011579 0 0 0 2.79663 -1.48583 11.707 0 -2.0546e-05 0 0 0 0 0 0 0 0 0 0 0 0 0 0 0 0 0 0 0.001 0 
131 4 0.0126376 0.106655 0.0123877 0 0 0 0.733369 -0.0703497 -0.223794 0 -2.0546e-05 0 0 0 0 0 0 0 0 0 0 0 0 0 0 0 0 0 0 0.001 0 
240 6 0.0005 0.0342606 0.0125045 0 0 0 -6.38611e-14 -1.90449e-19 3.10057e-303 -4.44089e-16 0 1.81117e-307 0 0 0 0 0 0 0 0 0 0 0 0 0 0 0 0 0 0.001 0 
72 8 0.00884671 0.0572906 0.0128263 0 0 0 10.1303 8.95643 -23.7995 0 -2.0546e-05 0 0 0 0 0 0 0 0 0 0 0 0 0 0 0 0 0 0 0.001 0 
46 4 0.0114332 0.0953958 0.0133689 0 0 0 -0.145568 -0.660995 -0.805458 0 -2.0546e-05 0 0 0 0 0 0 0 0 0 0 0 0 0 0 0 0 0 0 0.001 0 
206 2 0.00330511 0.101865 0.0125754 0 0 0 1.40835 -1.15761 1.50866 0 -2.0546e-05 0 0 0 0 0 0 0 0 0 0 0 0 0 0 0 0 0 0 0.001 0 
383 7 0.0143523 0.0405774 0.0145003 0 0 0 0 -1.0981 -0.0001 0 -2.0546e-05 0 0 0 0 0 0 0 0 0 0 0 0 0 0 0 0 0 0 0.001 0 
268 5 0.00350865 0.0581731 0.0148426 0 0 0 2.15174 6.77164 -1.791 0 -2.0546e-05 0 0 0 0 0 0 0 0 0 0 0 0 0 0 0 0 0 0 0.001 0 
142 2 0.0173443 0.0772868 0.0149358 0 0 0 -2.7491 7.65795 -0.749007 0 -2.0546e-05 0 0 0 0 0 0 0 0 0 0 0 0 0 0 0 0 0 0 0.001 0 
373 7 0.00783175 0.0381821 0.0158156 0 0 0 0 -1.14715 -0.0001 0 -2.0546e-05 0 0 0 0 0 0 0 0 0 0 0 0 0 0 0 0 0 0 0.001 0 
170 16 0.0113143 0.106527 0.0151485 0 0 0 0.634998 -0.624636 1.15381 0 -2.0546e-05 0 0 0 0 0 0 0 0 0 0 0 0 0 0 0 0 0 0 0.001 0 
262 1 0.014426 0.108304 0.0151568 0 0 0 -0.823594 0.379107 2.99609 0 -2.0546e-05 0 0 0 0 0 0 0 0 0 0 0 0 0 0 0 0 0 0 0.001 0 
393 1 0.0112271 0.0414807 0.0163252 0 0 0 0 -1.04905 -0.0001 0 -2.0546e-05 0 0 0 0 0 0 0 0 0 0 0 0 0 0 0 0 0 0 0.001 0 
10 6 0.00729599 0.0512614 0.0171109 0 0 0 -1.73858 -1.61445 -2.46782 0 -2.0546e-05 0 0 0 0 0 0 0 0 0 0 0 0 0 0 0 0 0 0 0.001 0 
382 1 0.0036516 0.073312 0.0163336 0 0 0 -1.99447 3.50424 -0.515328 0 -2.0546e-05 0 0 0 0 0 0 0 0 0 0 0 0 0 0 0 0 0 0 0.001 0 
259 4 0.0147093 0.0562098 0.0180306 0 0 0 1.27582 -2.79118 1.82191 0 -2.0546e-05 0 0 0 0 0 0 0 0 0 0 0 0 0 0 0 0 0 0 0.001 0 
313 3 0.0133292 0.0768506 0.0193239 0 0 0 1.02591 -1.13048 1.12664 0 -2.0546e-05 0 0 0 0 0 0 0 0 0 0 0 0 0 0 0 0 0 0 0.001 0 
307 4 0.0043287 0.0975837 0.0192541 0 0 0 0.843454 3.62155 -5.19934 0 -2.0546e-05 0 0 0 0 0 0 0 0 0 0 0 0 0 0 0 0 0 0 0.001 0 
272 3 0.0147895 0.0845834 0.0209073 0 0 0 -0.0255606 0.94762 -4.28792 0 -2.0546e-05 0 0 0 0 0 0 0 0 0 0 0 0 0 0 0 0 0 0 0.001 0 
252 5 0.0059106 0.0885783 0.022474 0 0 0 1.14655 -0.522984 -2.86321 0 -2.0546e-05 0 0 0 0 0 0 0 0 0 0 0 0 0 0 0 0 0 0 0.001 0 
76 7 0.0068325 0.104662 0.0215573 0 0 0 -0.00493882 -0.671415 -1.32109 0 -2.0546e-05 0 0 0 0 0 0 0 0 0 0 0 0 0 0 0 0 0 0 0.001 0 
1 1 0.0129092 0.0373912 0.0236157 0 0 0 -1.39939 -3.57376 0.763387 0 -2.0546e-05 0 0 0 0 0 0 0 0 0 0 0 0 0 0 0 0 0 0 0.001 0 
47 7 0.0120269 0.0559301 0.0230088 0 0 0 -2.40385 9.91487 -13.1462 0 -2.0546e-05 0 0 0 0 0 0 0 0 0 0 0 0 0 0 0 0 0 0 0.001 0 
389 4 0.0109951 0.0605038 0.0226902 0 0 0 3.61675 -3.40881 2.29453 0 -2.0546e-05 0 0 0 0 0 0 0 0 0 0 0 0 0 0 0 0 0 0 0.001 0 
135 3 0.0163213 0.09328 0.0247493 0 0 0 -1.21103 -0.794927 1.40326 0 -2.0546e-05 0 0 0 0 0 0 0 0 0 0 0 0 0 0 0 0 0 0 0.001 0 
56 3 0.011533 0.0896507 0.0257684 0 0 0 0.890947 0.215306 0.259376 0 -2.0546e-05 0 0 0 0 0 0 0 0 0 0 0 0 0 0 0 0 0 0 0.001 0 
129 2 0.00678906 0.0983118 0.0274535 0 0 0 0.718859 -0.429408 1.10233 0 -2.0546e-05 0 0 0 0 0 0 0 0 0 0 0 0 0 0 0 0 0 0 0.001 0 
36 3 0.0170632 0.10207 0.0277982 0 0 0 0.191747 -0.214855 -0.551976 0 -2.0546e-05 0 0 0 0 0 0 0 0 0 0 0 0 0 0 0 0 0 0 0.001 0 
228 2 0.00255131 0.0894093 0.0292015 0 0 0 0.800745 -1.99623 4.13504 0 -2.0546e-05 0 0 0 0 0 0 0 0 0 0 0 0 0 0 0 0 0 0 0.001 0 
309 7 0.00207437 0.0764961 0.030188 0 0 0 1.16218 -2.27848 -1.86581 0 -2.0546e-05 0 0 0 0 0 0 0 0 0 0 0 0 0 0 0 0 0 0 0.001 0 
203 2 0.00368313 0.103068 0.0309246 0 0 0 0.429585 1.11322 -0.550198 0 -2.0546e-05 0 0 0 0 0 0 0 0 0 0 0 0 0 0 0 0 0 0 0.001 0 
126 6 0.0181049 0.0507796 0.0319397 0 0 0 0.589753 -1.81686 -0.0761175 0 -2.0546e-05 0 0 0 0 0 0 0 0 0 0 0 0 0 0 0 0 0 0 0.001 0 
365 3 0.00582582 0.0841873 0.0313786 0 0 0 2.01632 -5.68613 -2.09244 0 -2.0546e-05 0 0 0 0 0 0 0 0 0 0 0 0 0 0 0 0 0 0 0.001 0 
103 7 0.0101373 0.0877355 0.0313051 0 0 0 -0.0743098 1.06941 -0.833971 0 -2.0546e-05 0 0 0 0 0 0 0 0 0 0 0 0 0 0 0 0 0 0 0.001 0 
4 2 0.00863156 0.0793883 0.0335386 0 0 0 2.11822 -1.32379 -1.80814 0 -2.0546e-05 0 0 0 0 0 0 0 0 0 0 0 0 0 0 0 0 0 0 0.001 0 
399 3 0.0107629 0.0788324 0.0329194 0 0 0 1.2921 -3.12529 -9.48291 0 -2.0546e-05 0 0 0 0 0 0 0 0 0 0 0 0 0 0 0 0 0 0 0.001 0 
78 1 0.011121 0.0898499 0.0327218 0 0 0 1.02894 -1.53155 -0.752383 0 -2.0546e-05 0 0 0 0 0 0 0 0 0 0 0 0 0 0 0 0 0 0 0.001 0 
201 2 0.00830085 0.026898 0.0395823 0 0 0 0.536152 -5.86316 3.96256 0 -2.0546e-05 0 0 0 0 0 0 0 0 0 0 0 0 0 0 0 0 0 0 0.001 0 
310 2 0.0105899 0.0355534 0.0417552 0 0 0 0.396196 3.13395 -3.83276 0 -2.0546e-05 0 0 0 0 0 0 0 0 0 0 0 0 0 0 0 0 0 0 0.001 0 
362 1 0.00550764 0.0259341 0.0429435 0 0 0 1.16939 2.42932 -0.423663 0 -2.0546e-05 0 0 0 0 0 0 0 0 0 0 0 0 0 0 0 0 0 0 0.001 0 
70 8 0.00311641 0.0391785 0.0434175 0 0 0 3.35442 4.48635 -5.44532 0 -2.0546e-05 0 0 0 0 0 0 0 0 0 0 0 0 0 0 0 0 0 0 0.001 0 
44 3 0.00687032 0.0353802 0.0464759 0 0 0 4.97212 11.279 -7.36283 0 -2.0546e-05 0 0 0 0 0 0 0 0 0 0 0 0 0 0 0 0 0 0 0.001 0 
320 2 0.00809622 0.0326105 0.0488734 0 0 0 0.00325143 12.6288 -7.14677 0 -2.0546e-05 0 0 0 0 0 0 0 0 0 0 0 0 0 0 0 0 0 0 0.001 0 
351 7 0.0120875 0.00462526 0.0503961 0 0 0 0.722578 17.2808 23.0629 0 -2.0546e-05 0 0 0 0 0 0 0 0 0 0 0 0 0 0 0 0 0 0 0.001 0 
340 1 0.0110496 0.00367134 0.0562855 0 0 0 0.176526 -2.89143 0.331837 0 -2.0546e-05 0 0 0 0 0 0 0 0 0 0 0 0 0 0 0 0 0 0 0.001 0 
15 5 0.0447079 -0.0416765 -0.0235675 0 0 0 0.0386062 -46.9665 83.4245 0.00114538 0.354103 0.197785 0 0 0 0 0 0 0 0 0 0 0 0 0 0 0 0 0 0.001 0 
35 2 0.038112 -0.0452326 -0.0200742 0 0 0 1.37283 -41.3472 92.0392 -0.781207 1.0037 -0.764565 0 0 0 0 0 0 0 0 0 0 0 0 0 0 0 0 0 0.001 0 
29 4 0.0359217 -0.0400358 -0.0152583 0 0 0 -0.0121633 -30.4857 80.1006 3.93915e-08 0.335646 0.127569 0 0 0 0 0 0 0 0 0 0 0 0 0 0 0 0 0 0.001 0 
213 3 0.0330259 -0.053075 0.0247849 0 0 0 3.51317 2.22416 4.92456 0 -2.0546e-05 0 0 0 0 0 0 0 0 0 0 0 0 0 0 0 0 0 0 0.001 0 
94 8 0.0250462 -0.0536911 0.0286659 0 0 0 -1.77758e-06 -1.33408e-12 8.26025e-13 2.42564e-19 0 0 0 0 0 0 0 0 0 0 0 0 0 0 0 0 0 0 0 0.001 0 
191 1 0.0403827 -0.0409306 0.0419991 0 0 0 24.9108 35.2831 33.9965 0 -2.0546e-05 0 0 0 0 0 0 0 0 0 0 0 0 0 0 0 0 0 0 0.001 0 
350 3 0.0188363 -0.0176615 0.0558055 0 0 0 0.333245 -3.08276 2.30098 0 -2.0546e-05 0 0 0 0 0 0 0 0 0 0 0 0 0 0 0 0 0 0 0.001 0 
322 3 0.0359231 -0.00775731 0.0583467 0 0 0 14.4085 28.2135 3.88724 0.0186747 0.00130073 -0.26655 0 0 0 0 0 0 0 0 0 0 0 0 0 0 0 0 0 0.001 0 
26 2 0.0189994 0.0115647 -0.0598601 0 0 0 4.33124e-06 4.99758e-13 -1.75646e-12 -1.02563e-17 0 0 0 0 0 0 0 0 0 0 0 0 0 0 0 0 0 0 0 0.001 0 
161 1 0.0417126 0.0329555 -0.0439331 0 0 0 47.5592 -74.2364 -69.1672 0 -2.0546e-05 0 0 0 0 0 0 0 0 0 0 0 0 0 0 0 0 0 0 0.001 0 
344 4 0.0418948 0.0350687 -0.0441979 0 0 0 21.4131 -57.104 -33.5498 0 -2.0546e-05 0 0 0 0 0 0 0 0 0 0 0 0 0 0 0 0 0 0 0.001 0 
156 4 0.0391303 0.0433581 -0.0425975 0 0 0 -1.18637e-06 -2.61614e-13 2.38494e-13 -1.02803e-17 0 0 0 0 0 0 0 0 0 0 0 0 0 0 0 0 0 0 0 0.001 0 
117 5 0.0320478 0.0261735 -0.0421549 0 0 0 -0.0200555 -84.3527 -52.3156 5.94217e-08 -0.219007 0.353516 0 0 0 0 0 0 0 0 0 0 0 0 0 0 0 0 0 0.001 0 
165 2 0.0277531 0.0203097 -0.0409211 0 0 0 -10.318 -72.8618 -35.1603 0.209108 -0.471756 0.233201 0 0 0 0 0 0 0 0 0 0 0 0 0 0 0 0 0 0.001 0 
116 3 0.0308611 0.0477792 -0.0377477 0 0 0 -4.40135e-06 -1.24681e-12 1.13662e-12 -4.14617e-17 0 0 0 0 0 0 0 0 0 0 0 0 0 0 0 0 0 0 0 0.001 0 
287 4 0.0375219 0.051118 -0.0355 0 0 0 -7.27263e-06 -0.00163606 0.000665248 2.33282e-05 0.000391992 0.000105186 0 0 0 1 0 0 0 0 0 0 0 0 0 0 0 0 1 0.001 0 
218 8 0.0434811 0.0510914 -0.0354998 0 0 0 -1.44293e-07 9.15856e-07 -3.42049e-12 -2.67955e-08 1.02235e-07 1.17106e-11 0 0 0 0 0 0 0 2 0 0 0 0 0 0 0 0 6 0.001 0 
38 6 0.0273746 0.0513544 -0.0355 0 0 0 1.59289e-62 4.49447e-20 -5.07127e-12 9.83728e-64 0 -4.44089e-16 0 0 0 0 0 0 0 0 0 0 0 0 0 0 0 0 0 0.001 0 
176 8 0.0327989 0.0512816 -0.0355 0 0 0 1.28136e-103 -1.72452e-19 -2.02909e-12 1.0479e-104 0 -4.44089e-16 0 0 0 0 0 0 0 0 0 0 0 0 0 0 0 0 0 0.001 0 
87 4 0.0349592 0.0513006 -0.0355006 0 0 0 8.27773e-16 1.65641e-15 -5.07228e-12 0 0 0 0 0 0 1 0 0 0 0 0 0 0 0 0 0 0 0 4 0.001 0 
348 7 0.0419251 0.0520473 -0.0355002 0 0 0 -4.27348e-07 -5.21592e-07 -1.13398e-10 -4.05315e-08 -5.08198e-08 -4.24971e-11 0 0 0 0 0 0 0 1 0 0 0 0 0 0 0 0 2 0.001 0 
82 3 0.0342283 0.0529648 -0.0354994 0 0 0 -8.34875e-16 -1.65304e-15 -5.0721e-12 -6.93889e-18 -2.77556e-17 0 0 0 0 1 0 0 0 0 0 0 0 0 0 0 0 0 4 0.001 0 
31 2 0.0381807 0.0529729 -0.0355001 0 0 0 -0.00513652 0.000192431 0.00483541 0.00136735 -2.87315e-05 0.000701041 0 1 0 1 0 0 0 0 0 0 0 0 0 0 0 0 2 0.001 0 
125 1 0.0447148 0.0526333 -0.0355 0 0 0 5.71641e-07 -3.94264e-07 1.16631e-10 6.7327e-08 -5.14155e-08 3.07034e-11 0 0 0 0 0 0 0 1 0 0 0 0 0 0 0 0 4 0.001 0 
227 7 0.031751 0.054675 -0.0355 0 0 0 -6.38664e-303 1.91332e-19 -3.03945e-12 1.81256e-307 0 4.44089e-16 0 0 0 0 0 0 0 0 0 0 0 0 0 0 0 0 0 0.001 0 
166 4 0.0362715 0.0537717 -0.0355 0 0 0 -1.90448e-302 1.9855e-19 -3.03944e-12 1.84969e-307 0 4.44089e-16 0 0 0 0 0 0 0 0 0 0 0 0 0 0 0 0 0 0.001 0 
65 1 0.0389429 0.054796 -0.0355001 0 0 0 -0.000113689 -0.00135667 0.000347763 -5.14009e-05 7.87124e-05 -4.23805e-05 1 1 0 0 0 0 0 0 0 0 0 0 0 0 0 0 8 0.001 0 
6 4 0.040872 0.0544176 -0.0354999 0 0 0 -1.67964e-05 -0.000410378 8.83029e-05 5.3779e-05 0.000375221 -1.38057e-05 1 0 0 0 0 0 0 0 0 0 0 0 0 0 0 0 7 0.001 0 
107 1 0.0436967 0.0554644 -0.0355 0 0 0 -1.71453e-106 -8.91458e-20 -1.01318e-12 8.34576e-108 0 -4.44089e-16 0 0 0 0 0 0 0 0 0 0 0 0 0 0 0 0 0 0.001 0 
286 3 0.0473343 0.0553503 -0.0355008 0 0 0 8.79903e-17 4.01476e-16 3.17727e-12 -1.38778e-17 0 0 0 0 1 0 0 0 0 0 0 0 0 0 0 0 0 0 3 0.001 0 
210 5 0.0416361 0.0577949 -0.0355 0 0 0 -9.61514e-303 7.79654e-20 -2.61018e-15 -1.70014e-307 0 0 0 0 0 0 0 0 0 0 0 0 0 0 0 0 0 0 0 0.001 0 
18 9 0.0457437 0.0622971 -0.0355 0 0 0 -9.65493e-135 1.45989e-19 -6.08168e-12 2.04344e-135 0 4.44089e-16 0 0 0 0 0 0 0 0 0 0 0 0 0 0 0 0 0 0.001 0 
222 3 0.0434692 0.063545 -0.0355 0 0 0 3.28569e-140 6.716e-20 -6.0817e-12 1.11067e-140 0 4.44089e-16 0 0 0 0 0 0 0 0 0 0 0 0 0 0 0 0 0 0.001 0 
200 6 0.0438056 0.0659364 -0.0355 0 0 0 -2.67006e-203 -7.84866e-20 6.08173e-12 -4.49015e-204 1.69407e-21 -4.44089e-16 0 0 0 0 0 0 0 0 0 0 0 0 0 0 0 0 0 0.001 0 
325 1 0.0460339 0.0659413 -0.0355 0 0 0 -1.94176e-200 1.01174e-19 6.08168e-12 -1.87218e-200 -1.69407e-21 -4.44089e-16 0 0 0 0 0 0 0 0 0 0 0 0 0 0 0 0 0 0.001 0 
245 3 0.0368783 0.0679794 -0.0355 0 0 0 -8.56628e-47 4.47138e-20 5.0713e-12 1.07797e-47 0 -4.44089e-16 0 0 0 0 0 0 0 0 0 0 0 0 0 0 0 0 0 0.001 0 
315 4 0.0346838 0.0689692 -0.0355 0 0 0 8.78733e-92 -1.22852e-19 -3.03942e-12 -1.42556e-92 0 4.44089e-16 0 0 0 0 0 0 0 0 0 0 0 0 0 0 0 0 0 0.001 0 
285 3 0.0370725 0.0276452 -0.0349698 0 0 0 -0.0204009 -69.9796 -55.2644 5.45952e-08 -0.231382 0.293297 0 0 0 0 0 0 0 0 0 0 0 0 0 0 0 0 0 0.001 0 
104 7 0.0288485 0.0746546 -0.0337981 0 0 0 0.756838 -2.9631 0.668953 0 -2.0546e-05 0 0 0 0 0 0 0 0 0 0 0 0 0 0 0 0 0 0 0.001 0 
246 4 0.0222031 0.085783 -0.0322869 0 0 0 0.758448 -1.40204 0.822638 0 -2.0546e-05 0 0 0 0 0 0 0 0 0 0 0 0 0 0 0 0 0 0 0.001 0 
217 7 0.0213862 0.0889571 -0.031504 0 0 0 -0.4964 -0.727861 0.861503 0 -2.0546e-05 0 0 0 0 0 0 0 0 0 0 0 0 0 0 0 0 0 0 0.001 0 
229 6 0.0252138 0.0972971 -0.0319426 0 0 0 -0.107485 1.81269 0.666456 0 -2.0546e-05 0 0 0 0 0 0 0 0 0 0 0 0 0 0 0 0 0 0 0.001 0 
273 11 0.0357224 0.10895 -0.0313761 0 0 0 0.981142 0.685845 0.145809 0 -2.0546e-05 0 0 0 0 0 0 0 0 0 0 0 0 0 0 0 0 0 0 0.001 0 
97 3 0.0260923 0.0503523 -0.031197 0 0 0 -0.122248 -0.378589 0.666557 0 -2.0546e-05 0 0 0 0 0 0 0 0 0 0 0 0 0 0 0 0 0 0 0.001 0 
312 1 0.0374542 0.0866784 -0.0307885 0 0 0 2.05431 1.63472 1.20838 0 -2.0546e-05 0 0 0 0 0 0 0 0 0 0 0 0 0 0 0 0 0 0 0.001 0 
211 7 0.0372507 0.103632 -0.0309448 0 0 0 1.95578 -1.4161 -0.169487 0 -2.0546e-05 0 0 0 0 0 0 0 0 0 0 0 0 0 0 0 0 0 0 0.001 0 
113 1 0.0243933 0.0897061 -0.029429 0 0 0 2.75054 0.681801 -5.06326 0 -2.0546e-05 0 0 0 0 0 0 0 0 0 0 0 0 0 0 0 0 0 0 0.001 0 
85 1 0.0218016 0.103429 -0.0287885 0 0 0 -1.46164 -0.586657 -0.769025 0 -2.0546e-05 0 0 0 0 0 0 0 0 0 0 0 0 0 0 0 0 0 0 0.001 0 
314 4 0.0327462 0.102548 -0.0291665 0 0 0 -1.88279 0.160777 2.1283 0 -2.0546e-05 0 0 0 0 0 0 0 0 0 0 0 0 0 0 0 0 0 0 0.001 0 
48 9 0.0328523 0.059937 -0.0272123 0 0 0 -4.38541 -7.20438 -2.84315 0 -2.0546e-05 0 0 0 0 0 0 0 0 0 0 0 0 0 0 0 0 0 0 0.001 0 
247 5 0.0316576 0.0795771 -0.026331 0 0 0 -0.0465601 6.69607 8.35407 0 -2.0546e-05 0 0 0 0 0 0 0 0 0 0 0 0 0 0 0 0 0 0 0.001 0 
189 1 0.0210676 0.0992195 -0.0267382 0 0 0 8.43205 -4.23168 -7.57465 0 -2.0546e-05 0 0 0 0 0 0 0 0 0 0 0 0 0 0 0 0 0 0 0.001 0 
267 4 0.0275278 0.108993 -0.0274759 0 0 0 2.88227 -0.870394 2.40447 0 -2.0546e-05 0 0 0 0 0 0 0 0 0 0 0 0 0 0 0 0 0 0 0.001 0 
27 5 0.0382642 0.0578776 -0.0257458 0 0 0 -4.44081 4.42156 7.79288 0 -2.0546e-05 0 0 0 0 0 0 0 0 0 0 0 0 0 0 0 0 0 0 0.001 0 
385 3 0.045998 0.0759873 -0.0255957 0 0 0 13.1479 5.67767 -23.37 0 -2.0546e-05 0 0 0 0 0 0 0 0 0 0 0 0 0 0 0 0 0 0 0.001 0 
375 3 0.0395361 0.104239 -0.0257075 0 0 0 7.4486 1.61377 2.9833 0 -2.0546e-05 0 0 0 0 0 0 0 0 0 0 0 0 0 0 0 0 0 0 0.001 0 
154 4 0.0354636 0.0878734 -0.0246339 0 0 0 -2.11351 -4.77936 2.11106 0 -2.0546e-05 0 0 0 0 0 0 0 0 0 0 0 0 0 0 0 0 0 0 0.001 0 
197 6 0.0420194 0.0867073 -0.0235871 0 0 0 -0.383082 -1.70145 0.63834 0 -2.0546e-05 0 0 0 0 0 0 0 0 0 0 0 0 0 0 0 0 0 0 0.001 0 
14 3 0.0291424 0.0751169 -0.0217058 0 0 0 -1.75546 -0.834232 1.22519 0 -2.0546e-05 0 0 0 0 0 0 0 0 0 0 0 0 0 0 0 0 0 0 0.001 0 
342 9 0.0459322 0.087635 -0.0224995 0 0 0 -4.87101 18.2064 -43.5688 0 -2.0546e-05 0 0 0 0 0 0 0 0 0 0 0 0 0 0 0 0 0 0 0.001 0 
290 4 0.0443234 0.0906766 -0.0204554 0 0 0 -12.4536 36.0433 -25.5252 0 -2.0546e-05 0 0 0 0 0 0 0 0 0 0 0 0 0 0 0 0 0 0 0.001 0 
208 3 0.0214881 0.101894 -0.0211614 0 0 0 0.320574 0.243305 4.23282 0 -2.0546e-05 0 0 0 0 0 0 0 0 0 0 0 0 0 0 0 0 0 0 0.001 0 
237 12 0.0414899 0.0865051 -0.0193851 0 0 0 -0.301993 -0.750149 -1.64795 0 -2.0546e-05 0 0 0 0 0 0 0 0 0 0 0 0 0 0 0 0 0 0 0.001 0 
61 1 0.034362 0.0973149 -0.0193731 0 0 0 3.51299 2.98291 2.59573 0 -2.0546e-05 0 0 0 0 0 0 0 0 0 0 0 0 0 0 0 0 0 0 0.001 0 
306 9 0.0412843 0.103221 -0.0194989 0 0 0 -0.800025 0.516902 -0.850988 0 -2.0546e-05 0 0 0 0 0 0 0 0 0 0 0 0 0 0 0 0 0 0 0.001 0 
90 2 0.0244039 0.0517342 -0.0184043 0 0 0 2.59243 -3.0987 2.29381 0 -2.0546e-05 0 0 0 0 0 0 0 0 0 0 0 0 0 0 0 0 0 0 0.001 0 
19 2 0.0393601 0.0762751 -0.0186227 0 0 0 -9.0948 18.3814 -34.7846 0 -2.0546e-05 0 0 0 0 0 0 0 0 0 0 0 0 0 0 0 0 0 0 0.001 0 
316 7 0.0470059 0.0790527 -0.0186798 0 0 0 -2.06016 -6.16271 4.22848 0 -2.0546e-05 0 0 0 0 0 0 0 0 0 0 0 0 0 0 0 0 0 0 0.001 0 
199 2 0.0407695 0.108189 -0.0184562 0 0 0 1.54112 -0.543615 1.31936 0 -2.0546e-05 0 0 0 0 0 0 0 0 0 0 0 0 0 0 0 0 0 0 0.001 0 
274 1 0.0461681 0.102564 -0.0165041 0 0 0 -2.27037 -2.70379 2.81208 0 -2.0546e-05 0 0 0 0 0 0 0 0 0 0 0 0 0 0 0 0 0 0 0.001 0 
171 4 0.0194394 0.0896886 -0.0134136 0 0 0 -4.39569 1.58465 0.10019 0 -2.0546e-05 0 0 0 0 0 0 0 0 0 0 0 0 0 0 0 0 0 0 0.001 0 
183 9 0.0459575 0.108801 -0.0129582 0 0 0 0.695116 -0.311082 1.74505 0 -2.0546e-05 0 0 0 0 0 0 0 0 0 0 0 0 0 0 0 0 0 0 0.001 0 
153 4 0.0445431 0.0544107 -0.0108471 0 0 0 -4.53072 1.25896 19.6485 0 -2.0546e-05 0 0 0 0 0 0 0 0 0 0 0 0 0 0 0 0 0 0 0.001 0 
144 3 0.0312245 0.0652581 -0.0112068 0 0 0 0.889855 0.776034 -4.94147 0 -2.0546e-05 0 0 0 0 0 0 0 0 0 0 0 0 0 0 0 0 0 0 0.001 0 
212 10 0.0366884 0.0804324 -0.011217 0 0 0 -2.57308 0.926998 2.09972 0 -2.0546e-05 0 0 0 0 0 0 0 0 0 0 0 0 0 0 0 0 0 0 0.001 0 
216 5 0.0306894 0.0949367 -0.0109838 0 0 0 -2.61699 0.811254 -1.32606 0 -2.0546e-05 0 0 0 0 0 0 0 0 0 0 0 0 0 0 0 0 0 0 0.001 0 
157 5 0.0188878 0.101762 -0.0101484 0 0 0 2.48223 2.59706 -1.81363 0 -2.0546e-05 0 0 0 0 0 0 0 0 0 0 0 0 0 0 0 0 0 0 0.001 0 
193 9 0.041478 0.103745 -0.0111401 0 0 0 1.36348 -2.60816 4.03339 0 -2.0546e-05 0 0 0 0 0 0 0 0 0 0 0 0 0 0 0 0 0 0 0.001 0 
379 6 0.0463411 0.0775042 -0.00876173 0 0 0 0.369337 2.53492 -1.38768 0 -2.0546e-05 0 0 0 0 0 0 0 0 0 0 0 0 0 0 0 0 0 0 0.001 0 
7 4 0.0315286 0.0927197 -0.00921105 0 0 0 -0.363816 1.53248 -1.38774 0 -2.0546e-05 0 0 0 0 0 0 0 0 0 0 0 0 0 0 0 0 0 0 0.001 0 
302 3 0.0320132 0.068871 -0.0086508 0 0 0 -4.82072 -0.794666 -2.42654 0 -2.0546e-05 0 0 0 0 0 0 0 0 0 0 0 0 0 0 0 0 0 0 0.001 0 
255 4 0.0343124 0.0968354 -0.00816758 0 0 0 0.116067 -0.509374 -0.29758 0 -2.0546e-05 0 0 0 0 0 0 0 0 0 0 0 0 0 0 0 0 0 0 0.001 0 
122 11 0.036339 0.104705 -0.0084167 0 0 0 0.407076 -1.59128 1.14606 0 -2.0546e-05 0 0 0 0 0 0 0 0 0 0 0 0 0 0 0 0 0 0 0.001 0 
2 6 0.0263406 0.0969588 -0.00677992 0 0 0 -1.99608 1.33829 -0.425543 0 -2.0546e-05 0 0 0 0 0 0 0 0 0 0 0 0 0 0 0 0 0 0 0.001 0 
54 5 0.0436362 0.0810873 -0.00407438 0 0 0 -1.51732 -2.15764 1.97574 0 -2.0546e-05 0 0 0 0 0 0 0 0 0 0 0 0 0 0 0 0 0 0 0.001 0 
30 7 0.0422677 0.0979192 -0.00418573 0 0 0 1.81985 -0.383311 -2.29963 0 -2.0546e-05 0 0 0 0 0 0 0 0 0 0 0 0 0 0 0 0 0 0 0.001 0 
149 3 0.0474253 0.0982081 -0.00402683 0 0 0 -1.02456 -1.38005 2.07262 0 -2.0546e-05 0 0 0 0 0 0 0 0 0 0 0 0 0 0 0 0 0 0 0.001 0 
182 9 0.0245599 0.0596772 -0.00345982 0 0 0 -0.00563839 -1.13268 2.45863 0 -2.0546e-05 0 0 0 0 0 0 0 0 0 0 0 0 0 0 0 0 0 0 0.001 0 
57 3 0.0334191 0.0744492 -0.00351979 0 0 0 -2.04377 1.91391 1.70998 0 -2.0546e-05 0 0 0 0 0 0 0 0 0 0 0 0 0 0 0 0 0 0 0.001 0 
263 3 0.0328753 0.0768305 -0.00292152 0 0 0 7.12186 9.6766 -9.25596 0 -2.0546e-05 0 0 0 0 0 0 0 0 0 0 0 0 0 0 0 0 0 0 0.001 0 
147 8 0.0218574 0.0612959 -0.00236132 0 0 0 1.22984 -0.90721 1.94341 0 -2.0546e-05 0 0 0 0 0 0 0 0 0 0 0 0 0 0 0 0 0 0 0.001 0 
184 1 0.0467887 0.074358 -0.00168456 0 0 0 5.47832 -5.71726 4.65159 0 -2.0546e-05 0 0 0 0 0 0 0 0 0 0 0 0 0 0 0 0 0 0 0.001 0 
326 2 0.0265237 0.0681572 -0.0001461 0 0 0 -1.85938 22.6987 -32.8111 0 -2.0546e-05 0 0 0 0 0 0 0 0 0 0 0 0 0 0 0 0 0 0 0.001 0 
181 4 0.031597 0.0903429 -0.00123355 0 0 0 0.0466418 -0.261641 -1.88107 0 -2.0546e-05 0 0 0 0 0 0 0 0 0 0 0 0 0 0 0 0 0 0 0.001 0 
352 3 0.0436395 0.0771867 0.000287075 0 0 0 -0.645577 -6.15542 3.64023 0 -2.0546e-05 0 0 0 0 0 0 0 0 0 0 0 0 0 0 0 0 0 0 0.001 0 
300 1 0.0372488 0.0852306 0.000156445 0 0 0 -2.25962 -3.14738 0.896967 0 -2.0546e-05 0 0 0 0 0 0 0 0 0 0 0 0 0 0 0 0 0 0 0.001 0 
397 12 0.0448889 0.0604045 0.00149074 0 0 0 2.78264 -2.80551 12.2973 0 -2.0546e-05 0 0 0 0 0 0 0 0 0 0 0 0 0 0 0 0 0 0 0.001 0 
232 8 0.0265854 0.0698926 0.00231772 0 0 0 0.372119 -2.19699 -1.75783 0 -2.0546e-05 0 0 0 0 0 0 0 0 0 0 0 0 0 0 0 0 0 0 0.001 0 
301 2 0.0200458 0.0694442 0.00314835 0 0 0 3.55432 0.421743 -2.76101 0 -2.0546e-05 0 0 0 0 0 0 0 0 0 0 0 0 0 0 0 0 0 0 0.001 0 
138 6 0.0232517 0.0727466 0.00312442 0 0 0 -11.7866 25.2302 -31.2104 0 -2.0546e-05 0 0 0 0 0 0 0 0 0 0 0 0 0 0 0 0 0 0 0.001 0 