ITEM: TIMESTEP
500000
ITEM: NUMBER OF ATOMS
499
ITEM: BOX BOUNDS ff ff ff
-0.01 0.45
-0.15 0.15
-0.08 0.1
ITEM: ATOMS id type x y z ix iy iz vx vy vz fx fy fz c_cc_1 c_cc_2 c_cc_3 c_cc_4 c_cc_5 c_cc_6 c_cc_7 c_cc_8 c_cc_9 c_cc_10 c_cc_11 c_cc_12 c_cc_13 c_cc_14 c_cc_15 c_cc_16 f_fppacc radius c_cc_17 
294 2 0.0180403 -0.00289507 -0.0607317 0 0 0 9.80362e-07 -3.61857e-13 -3.90507e-12 7.21295e-21 0 0 0 0 0 0 0 0 0 0 0 0 0 0 0 0 0 0 0 0.001 0 
79 5 0.0123943 -0.0129487 -0.0594663 0 0 0 -3.1678e-07 1.2004e-12 4.21896e-12 1.03752e-20 0 0 0 0 0 0 0 0 0 0 0 0 0 0 0 0 0 0 0 0.001 0 
147 8 0.0115913 -0.00127763 -0.0588916 0 0 0 1.26233 -3.017 0.235629 0.00761767 0.0083744 0.0194234 0 0 0 0 0 0 0 0 0 0 0 0 0 0 0 0 0 0.001 0 
52 4 0.0163502 -0.0255618 -0.0551251 0 0 0 -9.65066e-08 2.099e-12 4.21537e-12 -3.19522e-19 0 0 0 0 0 0 0 0 0 0 0 0 0 0 0 0 0 0 0 0.001 0 
355 8 0.00865046 -0.0183902 -0.0536092 0 0 0 3.11544 -10.0414 3.93353 0 -2.0546e-05 0 0 0 0 0 0 0 0 0 0 0 0 0 0 0 0 0 0 0.001 0 
389 4 0.0182138 -0.0374853 -0.0447931 0 0 0 0.643233 -10.7732 10.5943 0 -2.0546e-05 0 0 0 0 0 0 0 0 0 0 0 0 0 0 0 0 0 0 0.001 0 
54 5 0.00792626 -0.0500748 -0.0305492 0 0 0 4.88066 -5.07233 9.13765 0 -2.0546e-05 0 0 0 0 0 0 0 0 0 0 0 0 0 0 0 0 0 0 0.001 0 
452 8 0.00693725 -0.0509308 -0.0289014 0 0 0 2.80028 -4.49884 8.23072 0 -2.0546e-05 0 0 0 0 0 0 0 0 0 0 0 0 0 0 0 0 0 0 0.001 0 
441 7 0.0165033 -0.0574209 -0.0127686 0 0 0 -1.07771e-12 -3.1355 18.5839 1.36816e-15 0.091375 0.0138512 0 0 0 0 0 0 0 0 0 0 0 0 0 0 0 0 0 0.001 0 
450 1 0.0173239 -0.0560296 -0.00185478 0 0 0 -1.06377 2.62778 18.6149 0 -2.0546e-05 0 0 0 0 0 0 0 0 0 0 0 0 0 0 0 0 0 0 0.001 0 
295 2 0.0169174 -0.0387895 -0.00167555 0 0 0 3.31265 4.31402 -0.525536 0 -2.0546e-05 0 0 0 0 0 0 0 0 0 0 0 0 0 0 0 0 0 0 0.001 0 
32 2 0.0142726 -0.0575857 0.0112518 0 0 0 3.02373 5.03739 20.7965 0 -2.0546e-05 0 0 0 0 0 0 0 0 0 0 0 0 0 0 0 0 0 0 0.001 0 
270 6 0.0065845 -0.0543264 0.0142779 0 0 0 -2.7922 6.33578 8.62974 0 -2.0546e-05 0 0 0 0 0 0 0 0 0 0 0 0 0 0 0 0 0 0 0.001 0 
140 8 0.00323235 -0.0558744 0.0183339 0 0 0 -8.52884 8.40278 13.9549 0 -2.0546e-05 0 0 0 0 0 0 0 0 0 0 0 0 0 0 0 0 0 0 0.001 0 
423 1 0.00708052 -0.0551634 0.0175857 0 0 0 8.64345 10.8515 23.4618 0 -2.0546e-05 0 0 0 0 0 0 0 0 0 0 0 0 0 0 0 0 0 0 0.001 0 
86 4 0.0183088 -0.0507386 0.0256625 0 0 0 0.48704 1.78847 2.416 0 -2.0546e-05 0 0 0 0 0 0 0 0 0 0 0 0 0 0 0 0 0 0 0.001 0 
110 5 0.00258113 -0.0484053 0.0322625 0 0 0 0.030472 2.32842 10.2653 0 -2.0546e-05 0 0 0 0 0 0 0 0 0 0 0 0 0 0 0 0 0 0 0.001 0 
204 1 0.00462038 -0.0483037 0.0333542 0 0 0 0.46679 -1.67252 -2.52057 0 -2.0546e-05 0 0 0 0 0 0 0 0 0 0 0 0 0 0 0 0 0 0 0.001 0 
430 5 0.015605 -0.0479247 0.0336862 0 0 0 0.0478703 5.02828 7.24017 0 -2.0546e-05 0 0 0 0 0 0 0 0 0 0 0 0 0 0 0 0 0 0 0.001 0 
3 6 0.0139601 -0.042501 0.0435377 0 0 0 -9.62021e-07 6.87852e-12 -6.2706e-12 1.04597e-17 0 0 0 0 0 0 0 0 0 0 0 0 0 0 0 0 0 0 0 0.001 0 
495 6 0.0150805 -0.0357216 0.0467374 0 0 0 -31.0223 49.8801 33.0488 -0.0135152 0.106835 -9.92241e-06 0 0 0 0 0 0 0 0 0 0 0 0 0 0 0 0 0 0.001 0 
426 4 0.00733466 0.00811701 -0.0564106 0 0 0 3.14078 -20.0605 -5.42676 0 -2.0546e-05 0 0 0 0 0 0 0 0 0 0 0 0 0 0 0 0 0 0 0.001 0 
410 1 0.011784 0.0249371 -0.0554361 0 0 0 4.76015e-07 2.11148e-12 -4.24042e-12 -1.29465e-18 0 0 0 0 0 0 0 0 0 0 0 0 0 0 0 0 0 0 0 0.001 0 
41 1 0.0171715 0.0293155 -0.0532559 0 0 0 3.18011e-08 -1.00554e-13 2.01942e-13 -8.03993e-20 0 0 0 0 0 0 0 0 0 0 0 0 0 0 0 0 0 0 0 0.001 0 
89 9 0.00981826 0.052758 -0.0355 0 0 0 1.14785e-37 6.78855e-20 -4.06089e-12 1.21691e-38 0 0 0 0 0 0 0 0 0 0 0 0 0 0 0 0 0 0 0 0.001 0 
67 5 0.007394 0.0557136 -0.0355 0 0 0 -1.609e-302 1.14575e-19 -2.02913e-12 1.85378e-307 0 -4.44089e-16 0 0 0 0 0 0 0 0 0 0 0 0 0 0 0 0 0 0.001 0 
320 2 0.00552258 0.0625745 -0.0355 0 0 0 1.92727e-282 1.12987e-20 -3.03951e-12 -2.07071e-283 0 4.44089e-16 0 0 0 0 0 0 0 0 0 0 0 0 0 0 0 0 0 0.001 0 
323 3 0.00396962 0.0673942 -0.0355 0 0 0 -2.19579e-64 -1.57342e-19 -4.06086e-12 8.49581e-67 0 0 0 0 0 0 0 0 0 0 0 0 0 0 0 0 0 0 0 0.001 0 
149 3 0.00385845 0.0729773 -0.0355 0 0 0 -2.49365e-299 -2.23535e-20 -4.05559e-12 5.2648e-300 0 0 0 0 0 0 0 0 0 0 0 0 0 0 0 0 0 0 0 0.001 0 
175 3 0.0137244 0.10208 -0.0333498 0 0 0 3.89484 -0.37295 -0.365955 0 -2.0546e-05 0 0 0 0 0 0 0 0 0 0 0 0 0 0 0 0 0 0 0.001 0 
387 4 0.0109127 0.102981 -0.033271 0 0 0 0.305539 -0.612816 2.09365 0 -2.0546e-05 0 0 0 0 0 0 0 0 0 0 0 0 0 0 0 0 0 0 0.001 0 
121 5 0.00929218 0.0612136 -0.0316138 0 0 0 0.629304 1.69765 1.39984 0 -2.0546e-05 0 0 0 0 0 0 0 0 0 0 0 0 0 0 0 0 0 0 0.001 0 
469 8 0.0146331 0.0701727 -0.031427 0 0 0 0.950237 0.27363 1.59885 0 -2.0546e-05 0 0 0 0 0 0 0 0 0 0 0 0 0 0 0 0 0 0 0.001 0 
422 1 0.00482685 0.0712757 -0.0323664 0 0 0 -0.134244 -4.50056 1.14127 0 -2.0546e-05 0 0 0 0 0 0 0 0 0 0 0 0 0 0 0 0 0 0 0.001 0 
201 2 0.00792618 0.0924237 -0.0315704 0 0 0 -1.22141 0.988046 4.76728 0 -2.0546e-05 0 0 0 0 0 0 0 0 0 0 0 0 0 0 0 0 0 0 0.001 0 
298 8 0.00423234 0.0626198 -0.0310212 0 0 0 -1.23729 1.36938 1.07343 0 -2.0546e-05 0 0 0 0 0 0 0 0 0 0 0 0 0 0 0 0 0 0 0.001 0 
118 9 0.00536245 0.0771954 -0.0297159 0 0 0 -4.16268 4.96327 -10.4887 0 -2.0546e-05 0 0 0 0 0 0 0 0 0 0 0 0 0 0 0 0 0 0 0.001 0 
250 1 0.00293471 0.0913849 -0.0290238 0 0 0 -1.13517 -0.855604 -4.87633 0 -2.0546e-05 0 0 0 0 0 0 0 0 0 0 0 0 0 0 0 0 0 0 0.001 0 
464 4 0.00818088 0.0372663 -0.0285399 0 0 0 -0.651098 -6.57795 2.32091 0 -2.0546e-05 0 0 0 0 0 0 0 0 0 0 0 0 0 0 0 0 0 0 0.001 0 
138 6 0.0179221 0.0459762 -0.0285706 0 0 0 -0.49605 -1.34164 0.561177 0 -2.0546e-05 0 0 0 0 0 0 0 0 0 0 0 0 0 0 0 0 0 0 0.001 0 
436 5 0.00696221 0.0611868 -0.028072 0 0 0 1.60987 2.71014 2.17023 0 -2.0546e-05 0 0 0 0 0 0 0 0 0 0 0 0 0 0 0 0 0 0 0.001 0 
382 1 0.0164916 0.105632 -0.0282999 0 0 0 3.06323 3.92033 16.3636 0 -2.0546e-05 0 0 0 0 0 0 0 0 0 0 0 0 0 0 0 0 0 0 0.001 0 
34 1 0.013919 0.0840171 -0.0268622 0 0 0 -5.08366 -8.8812 3.96106 0 -2.0546e-05 0 0 0 0 0 0 0 0 0 0 0 0 0 0 0 0 0 0 0.001 0 
408 5 0.00282359 0.0946233 -0.0263875 0 0 0 -0.200206 0.1978 0.688499 0 -2.0546e-05 0 0 0 0 0 0 0 0 0 0 0 0 0 0 0 0 0 0 0.001 0 
272 3 0.00715228 0.0708056 -0.025902 0 0 0 0.986382 -0.101719 1.0677 0 -2.0546e-05 0 0 0 0 0 0 0 0 0 0 0 0 0 0 0 0 0 0 0.001 0 
261 1 0.0167014 0.0779216 -0.0258835 0 0 0 0.778436 0.883914 -5.26606 0 -2.0546e-05 0 0 0 0 0 0 0 0 0 0 0 0 0 0 0 0 0 0 0.001 0 
428 7 0.0182305 0.0841463 -0.026148 0 0 0 1.85908 9.40724 -3.72058 0 -2.0546e-05 0 0 0 0 0 0 0 0 0 0 0 0 0 0 0 0 0 0 0.001 0 
48 9 0.0116249 0.086056 -0.0257776 0 0 0 2.4536 5.07493 -7.77998 0 -2.0546e-05 0 0 0 0 0 0 0 0 0 0 0 0 0 0 0 0 0 0 0.001 0 
1 1 0.0029894 0.0971843 -0.0256671 0 0 0 0.128725 -0.651995 0.548312 0 -2.0546e-05 0 0 0 0 0 0 0 0 0 0 0 0 0 0 0 0 0 0 0.001 0 
128 11 0.0169903 0.0964953 -0.0253079 0 0 0 -1.62853 13.6444 -16.6347 0 -2.0546e-05 0 0 0 0 0 0 0 0 0 0 0 0 0 0 0 0 0 0 0.001 0 
58 7 0.0104258 0.102239 -0.0254819 0 0 0 0.972841 -0.37168 0.838073 0 -2.0546e-05 0 0 0 0 0 0 0 0 0 0 0 0 0 0 0 0 0 0 0.001 0 
345 4 0.00252697 0.0893453 -0.024922 0 0 0 0.400461 5.46951 -18.9469 0 -2.0546e-05 0 0 0 0 0 0 0 0 0 0 0 0 0 0 0 0 0 0 0.001 0 
421 6 0.00354522 0.0918891 -0.0239807 0 0 0 1.27088 1.26949 -1.41001 0 -2.0546e-05 0 0 0 0 0 0 0 0 0 0 0 0 0 0 0 0 0 0 0.001 0 
253 1 0.0116948 0.0382752 -0.0225676 0 0 0 -1.08297 -2.30902 -6.18063 0 -2.0546e-05 0 0 0 0 0 0 0 0 0 0 0 0 0 0 0 0 0 0 0.001 0 
288 3 0.00381866 0.0746646 -0.0229838 0 0 0 3.62755 4.75978 -5.22576 0 -2.0546e-05 0 0 0 0 0 0 0 0 0 0 0 0 0 0 0 0 0 0 0.001 0 
407 5 0.00770438 0.0904546 -0.0232758 0 0 0 -3.94844 -2.31555 1.22318 0 -2.0546e-05 0 0 0 0 0 0 0 0 0 0 0 0 0 0 0 0 0 0 0.001 0 
308 4 0.0156956 0.0687675 -0.0215153 0 0 0 3.63198 0.417319 3.19298 0 -2.0546e-05 0 0 0 0 0 0 0 0 0 0 0 0 0 0 0 0 0 0 0.001 0 
372 1 0.0169 0.0741239 -0.0220526 0 0 0 -0.118511 0.624388 -2.78466 0 -2.0546e-05 0 0 0 0 0 0 0 0 0 0 0 0 0 0 0 0 0 0 0.001 0 
490 4 0.00835809 0.0467825 -0.0195352 0 0 0 0 -1.04905 -0.0001 0 -2.0546e-05 0 0 0 0 0 0 0 0 0 0 0 0 0 0 0 0 0 0 0.001 0 
236 10 0.00202634 0.0745828 -0.0189548 0 0 0 1.04974 4.13651 -3.46651 0 -2.0546e-05 0 0 0 0 0 0 0 0 0 0 0 0 0 0 0 0 0 0 0.001 0 
391 3 0.00517516 0.0866781 -0.0194692 0 0 0 10.0344 -3.68585 -4.77303 0 -2.0546e-05 0 0 0 0 0 0 0 0 0 0 0 0 0 0 0 0 0 0 0.001 0 
454 1 0.0123548 0.0775997 -0.0170804 0 0 0 -0.981051 6.23282 -10.2487 0 -2.0546e-05 0 0 0 0 0 0 0 0 0 0 0 0 0 0 0 0 0 0 0.001 0 
425 4 0.00732047 0.0951464 -0.0166657 0 0 0 -0.530586 -0.0833031 -3.32136 0 -2.0546e-05 0 0 0 0 0 0 0 0 0 0 0 0 0 0 0 0 0 0 0.001 0 
49 4 0.00559725 0.0989466 -0.0164724 0 0 0 -2.25441 -2.78345 -2.21342 0 -2.0546e-05 0 0 0 0 0 0 0 0 0 0 0 0 0 0 0 0 0 0 0.001 0 
453 9 0.0184366 0.0524962 -0.0155478 0 0 0 -0.909491 9.76057 -16.7453 0 -2.0546e-05 0 0 0 0 0 0 0 0 0 0 0 0 0 0 0 0 0 0 0.001 0 
312 1 0.00585162 0.0588419 -0.0152552 0 0 0 -3.46803 3.60323 -10.5488 0 -2.0546e-05 0 0 0 0 0 0 0 0 0 0 0 0 0 0 0 0 0 0 0.001 0 
157 5 0.0187036 0.0835264 -0.0156082 0 0 0 -41.2141 14.5676 30.9639 0 -2.0546e-05 0 0 0 0 0 0 0 0 0 0 0 0 0 0 0 0 0 0 0.001 0 
440 5 0.00227485 0.0882332 -0.0160666 0 0 0 4.81246 -10.9583 15.4239 0 -2.0546e-05 0 0 0 0 0 0 0 0 0 0 0 0 0 0 0 0 0 0 0.001 0 
473 5 0.0107411 0.106047 -0.0155251 0 0 0 -6.4112 12.4722 -10.352 0 -2.0546e-05 0 0 0 0 0 0 0 0 0 0 0 0 0 0 0 0 0 0 0.001 0 
379 6 0.00731841 0.069799 -0.0146275 0 0 0 -0.85566 -3.02009 -2.10588 0 -2.0546e-05 0 0 0 0 0 0 0 0 0 0 0 0 0 0 0 0 0 0 0.001 0 
72 8 0.00230471 0.0751778 -0.0149439 0 0 0 1.01901 -1.08502 2.06141 0 -2.0546e-05 0 0 0 0 0 0 0 0 0 0 0 0 0 0 0 0 0 0 0.001 0 
368 6 0.00205035 0.0956016 -0.014538 0 0 0 0.826153 16.6388 -1.84691 0 -2.0546e-05 0 0 0 0 0 0 0 0 0 0 0 0 0 0 0 0 0 0 0.001 0 
122 11 0.0168071 0.0355941 -0.0117581 0 0 0 5.28461 -2.87329 -8.35369 0 -2.0546e-05 0 0 0 0 0 0 0 0 0 0 0 0 0 0 0 0 0 0 0.001 0 
188 5 0.0103529 0.0803514 -0.0113862 0 0 0 6.99633 11.4753 -12.1314 0 -2.0546e-05 0 0 0 0 0 0 0 0 0 0 0 0 0 0 0 0 0 0 0.001 0 
202 3 0.00933807 0.0440028 -0.0108273 0 0 0 -2.4479 -2.68341 2.16091 0 -2.0546e-05 0 0 0 0 0 0 0 0 0 0 0 0 0 0 0 0 0 0 0.001 0 
393 1 0.0131974 0.0781619 -0.00882166 0 0 0 0.878925 -1.09873 -0.972679 0 -2.0546e-05 0 0 0 0 0 0 0 0 0 0 0 0 0 0 0 0 0 0 0.001 0 
483 2 0.00285818 0.0377009 -0.00732944 0 0 0 2.28519 6.80005 0.363003 0 -2.0546e-05 0 0 0 0 0 0 0 0 0 0 0 0 0 0 0 0 0 0 0.001 0 
361 6 0.0102075 0.10714 -0.00630993 0 0 0 -0.112614 -1.26958 8.54059 0 -2.0546e-05 0 0 0 0 0 0 0 0 0 0 0 0 0 0 0 0 0 0 0.001 0 
480 4 0.012001 0.0351654 -0.00615933 0 0 0 0 -1.0981 -0.0001 0 -2.0546e-05 0 0 0 0 0 0 0 0 0 0 0 0 0 0 0 0 0 0 0.001 0 
265 2 0.00559482 0.107841 -0.00591482 0 0 0 1.44337 6.34351 -3.71993 0 -2.0546e-05 0 0 0 0 0 0 0 0 0 0 0 0 0 0 0 0 0 0 0.001 0 
481 5 0.00204317 0.0341874 -0.00455146 0 0 0 1.55076 -1.83972 -0.0884568 0 -2.0546e-05 0 0 0 0 0 0 0 0 0 0 0 0 0 0 0 0 0 0 0.001 0 
378 3 0.00569266 0.0382161 -0.00283935 0 0 0 1.3045 0.414674 -2.84749 0 -2.0546e-05 0 0 0 0 0 0 0 0 0 0 0 0 0 0 0 0 0 0 0.001 0 
85 1 0.0140889 0.0563152 -0.00354632 0 0 0 9.49989 -0.515507 1.85072 0 -2.0546e-05 0 0 0 0 0 0 0 0 0 0 0 0 0 0 0 0 0 0 0.001 0 
120 1 0.00453296 0.0735037 -0.00209166 0 0 0 5.87827 -2.86365 13.4842 0 -2.0546e-05 0 0 0 0 0 0 0 0 0 0 0 0 0 0 0 0 0 0 0.001 0 
266 4 0.0112856 0.0834167 -0.0013045 0 0 0 1.3795 0.608032 -0.109583 0 -2.0546e-05 0 0 0 0 0 0 0 0 0 0 0 0 0 0 0 0 0 0 0.001 0 
321 2 0.00898469 0.0357431 -0.00110627 0 0 0 1.44649 1.42807 -9.15351 0 -2.0546e-05 0 0 0 0 0 0 0 0 0 0 0 0 0 0 0 0 0 0 0.001 0 
306 9 0.00794262 0.0545538 -0.000816931 0 0 0 -3.46591 -8.37724 11.96 0 -2.0546e-05 0 0 0 0 0 0 0 0 0 0 0 0 0 0 0 0 0 0 0.001 0 
127 6 0.00842847 0.0318343 0.001155 0 0 0 0.274575 14.3421 -20.7843 0.0394673 -0.13571 -0.31105 0 0 0 0 0 0 0 0 0 0 0 0 0 0 0 0 0 0.001 0 
376 5 0.0162335 0.0562389 0.000505935 0 0 0 1.7419 -2.5301 1.32921 0 -2.0546e-05 0 0 0 0 0 0 0 0 0 0 0 0 0 0 0 0 0 0 0.001 0 
360 1 0.00224581 0.0851212 0.000382571 0 0 0 0.308367 0.262207 0.407116 0 -2.0546e-05 0 0 0 0 0 0 0 0 0 0 0 0 0 0 0 0 0 0 0.001 0 
237 12 0.0127438 0.0891358 0.000893437 0 0 0 -3.47748 2.49525 6.23038 0 -2.0546e-05 0 0 0 0 0 0 0 0 0 0 0 0 0 0 0 0 0 0 0.001 0 
491 7 0.015214 0.0395804 0.00165224 0 0 0 0 -1.04905 -0.0001 0 -2.0546e-05 0 0 0 0 0 0 0 0 0 0 0 0 0 0 0 0 0 0 0.001 0 
442 4 0.0183149 0.0646319 0.00186839 0 0 0 0.354688 2.35165 0.281964 0 -2.0546e-05 0 0 0 0 0 0 0 0 0 0 0 0 0 0 0 0 0 0 0.001 0 
113 1 0.013881 0.104456 0.00237824 0 0 0 -0.555892 -0.715034 2.62919 0 -2.0546e-05 0 0 0 0 0 0 0 0 0 0 0 0 0 0 0 0 0 0 0.001 0 
293 2 0.00321698 0.0610129 0.00318607 0 0 0 1.36696 -6.52965 -3.99936 0 -2.0546e-05 0 0 0 0 0 0 0 0 0 0 0 0 0 0 0 0 0 0 0.001 0 
330 1 0.00637507 0.0842237 0.00343679 0 0 0 -3.36608 -4.03681 3.28073 0 -2.0546e-05 0 0 0 0 0 0 0 0 0 0 0 0 0 0 0 0 0 0 0.001 0 
275 2 0.00657968 0.0866873 0.00250863 0 0 0 -2.50655 -1.02868 3.02036 0 -2.0546e-05 0 0 0 0 0 0 0 0 0 0 0 0 0 0 0 0 0 0 0.001 0 
307 4 0.00846458 0.0889339 0.00409832 0 0 0 -1.34803 0.947034 -0.180408 0 -2.0546e-05 0 0 0 0 0 0 0 0 0 0 0 0 0 0 0 0 0 0 0.001 0 
471 4 0.00619919 0.106567 0.00615366 0 0 0 0.624414 -1.9449 3.19568 0 -2.0546e-05 0 0 0 0 0 0 0 0 0 0 0 0 0 0 0 0 0 0 0.001 0 
194 2 0.0181769 0.0751463 0.0069547 0 0 0 -0.532471 -1.82961 -1.86795 0 -2.0546e-05 0 0 0 0 0 0 0 0 0 0 0 0 0 0 0 0 0 0 0.001 0 
211 7 0.0129393 0.0983762 0.00740977 0 0 0 -2.99236 -0.870904 -0.246562 0 -2.0546e-05 0 0 0 0 0 0 0 0 0 0 0 0 0 0 0 0 0 0 0.001 0 
300 1 0.00489716 0.104305 0.00682436 0 0 0 0.986937 -3.31414 4.23284 0 -2.0546e-05 0 0 0 0 0 0 0 0 0 0 0 0 0 0 0 0 0 0 0.001 0 
124 1 0.00623484 0.100265 0.00781434 0 0 0 1.33103 -2.57913 0.707312 0 -2.0546e-05 0 0 0 0 0 0 0 0 0 0 0 0 0 0 0 0 0 0 0.001 0 
363 1 0.00792363 0.10569 0.00810871 0 0 0 1.03571 0.611783 -1.43333 0 -2.0546e-05 0 0 0 0 0 0 0 0 0 0 0 0 0 0 0 0 0 0 0.001 0 
8 5 0.00265518 0.0530136 0.00980426 0 0 0 3.33995 -3.53921 -6.50396 0 -2.0546e-05 0 0 0 0 0 0 0 0 0 0 0 0 0 0 0 0 0 0 0.001 0 
462 1 0.00234395 0.0653885 0.00975835 0 0 0 1.32336 -0.255252 12.2005 0 -2.0546e-05 0 0 0 0 0 0 0 0 0 0 0 0 0 0 0 0 0 0 0.001 0 
254 2 0.0158766 0.0949775 0.00923487 0 0 0 -1.93932 -2.31763 4.89846 0 -2.0546e-05 0 0 0 0 0 0 0 0 0 0 0 0 0 0 0 0 0 0 0.001 0 
429 2 0.012525 0.108802 0.00935628 0 0 0 1.27151 1.68017 5.43974 0 -2.0546e-05 0 0 0 0 0 0 0 0 0 0 0 0 0 0 0 0 0 0 0.001 0 
83 2 0.0127733 0.0942758 0.0110243 0 0 0 1.64711 -2.75088 6.38807 0 -2.0546e-05 0 0 0 0 0 0 0 0 0 0 0 0 0 0 0 0 0 0 0.001 0 
141 1 0.00773665 0.0992594 0.0117839 0 0 0 0.236319 -2.06999 0.320298 0 -2.0546e-05 0 0 0 0 0 0 0 0 0 0 0 0 0 0 0 0 0 0 0.001 0 
458 8 0.00743958 0.107488 0.0122746 0 0 0 -0.14794 -1.63152 1.58732 0 -2.0546e-05 0 0 0 0 0 0 0 0 0 0 0 0 0 0 0 0 0 0 0.001 0 
240 6 0.0005 0.0342606 0.0125045 0 0 0 3.05074e-14 -1.68092e-19 -1.57115e-61 4.44089e-16 0 1.07465e-62 0 0 0 0 0 0 0 0 0 0 0 0 0 0 0 0 0 0.001 0 
158 7 0.0171041 0.0623884 0.0128806 0 0 0 -12.5195 12.7778 -21.9403 0 -2.0546e-05 0 0 0 0 0 0 0 0 0 0 0 0 0 0 0 0 0 0 0.001 0 
417 2 0.00219259 0.103761 0.0126174 0 0 0 -0.150871 -0.882282 -0.136105 0 -2.0546e-05 0 0 0 0 0 0 0 0 0 0 0 0 0 0 0 0 0 0 0.001 0 
80 6 0.00555492 0.0380903 0.0140295 0 0 0 -1.48976 -3.2932 2.01943 0 -2.0546e-05 0 0 0 0 0 0 0 0 0 0 0 0 0 0 0 0 0 0 0.001 0 
169 5 0.0158522 0.0764552 0.0147704 0 0 0 -0.69746 -1.43592 -1.35191 0 -2.0546e-05 0 0 0 0 0 0 0 0 0 0 0 0 0 0 0 0 0 0 0.001 0 
186 3 0.00598888 0.0810192 0.015824 0 0 0 0.643747 -2.80924 -1.71562 0 -2.0546e-05 0 0 0 0 0 0 0 0 0 0 0 0 0 0 0 0 0 0 0.001 0 
7 4 0.00847878 0.0685035 0.0163845 0 0 0 0.509453 -3.02727 2.05361 0 -2.0546e-05 0 0 0 0 0 0 0 0 0 0 0 0 0 0 0 0 0 0 0.001 0 
220 8 0.0072005 0.070004 0.0172975 0 0 0 -0.29118 -0.21903 0.328009 0 -2.0546e-05 0 0 0 0 0 0 0 0 0 0 0 0 0 0 0 0 0 0 0.001 0 
401 12 0.0106792 0.0432711 0.0180225 0 0 0 -1.86637 5.56715 1.59853 0 -2.0546e-05 0 0 0 0 0 0 0 0 0 0 0 0 0 0 0 0 0 0 0.001 0 
154 4 0.00380291 0.0909769 0.017904 0 0 0 -1.69616 -4.1465 3.91923 0 -2.0546e-05 0 0 0 0 0 0 0 0 0 0 0 0 0 0 0 0 0 0 0.001 0 
357 6 0.00760567 0.0586747 0.0188368 0 0 0 -1.45839 -1.1586 -0.822268 0 -2.0546e-05 0 0 0 0 0 0 0 0 0 0 0 0 0 0 0 0 0 0 0.001 0 
383 7 0.0179734 0.0637486 0.0194802 0 0 0 0.783864 1.72726 -2.66679 0 -2.0546e-05 0 0 0 0 0 0 0 0 0 0 0 0 0 0 0 0 0 0 0.001 0 
197 6 0.00567224 0.0799352 0.0193948 0 0 0 0.539231 0.169244 -1.07821 0 -2.0546e-05 0 0 0 0 0 0 0 0 0 0 0 0 0 0 0 0 0 0 0.001 0 
328 4 0.00821609 0.106485 0.0196448 0 0 0 0.542866 0.404263 -0.790816 0 -2.0546e-05 0 0 0 0 0 0 0 0 0 0 0 0 0 0 0 0 0 0 0.001 0 
289 4 0.0148455 0.0842508 0.0202775 0 0 0 0.93569 -1.80461 0.277304 0 -2.0546e-05 0 0 0 0 0 0 0 0 0 0 0 0 0 0 0 0 0 0 0.001 0 
20 6 0.0108668 0.0998976 0.020369 0 0 0 -0.370729 -3.32384 -4.00019 0 -2.0546e-05 0 0 0 0 0 0 0 0 0 0 0 0 0 0 0 0 0 0 0.001 0 
299 4 0.0168467 0.0413734 0.0212595 0 0 0 0.124297 -0.698804 -1.64382 0 -2.0546e-05 0 0 0 0 0 0 0 0 0 0 0 0 0 0 0 0 0 0 0.001 0 
155 1 0.00617711 0.0831308 0.0218386 0 0 0 1.33346 -2.53833 3.28852 0 -2.0546e-05 0 0 0 0 0 0 0 0 0 0 0 0 0 0 0 0 0 0 0.001 0 
292 1 0.0110305 0.0870716 0.0223332 0 0 0 -0.276447 -0.375937 -1.46855 0 -2.0546e-05 0 0 0 0 0 0 0 0 0 0 0 0 0 0 0 0 0 0 0.001 0 
172 7 0.00815694 0.102257 0.0220822 0 0 0 0.691984 -0.54612 -1.296 0 -2.0546e-05 0 0 0 0 0 0 0 0 0 0 0 0 0 0 0 0 0 1 0.001 0 
395 2 0.0181788 0.0587306 0.0235665 0 0 0 -1.3595 -1.51968 1.0122 0 -2.0546e-05 0 0 0 0 0 0 0 0 0 0 0 0 0 0 0 0 0 0 0.001 0 
191 1 0.00812561 0.0632758 0.0233252 0 0 0 -5.98616 2.0351 16.623 0 -2.0546e-05 0 0 0 0 0 0 0 0 0 0 0 0 0 0 0 0 0 0 0.001 0 
70 8 0.00559825 0.0969028 0.0234421 0 0 0 -2.44151 -7.85305 7.03551 0 -2.0546e-05 0 0 0 0 0 0 0 0 0 0 0 0 0 0 0 0 0 0 0.001 0 
203 2 0.00598477 0.100584 0.0237127 0 0 0 0.154512 -0.469362 -0.898345 0 -2.0546e-05 0 0 0 0 0 0 0 0 0 0 0 0 0 0 0 0 0 0 0.001 0 
4 2 0.00898 0.105669 0.0225935 0 0 0 0.315671 -0.00223443 0.381292 0 -2.0546e-05 0 0 0 0 0 0 0 0 0 0 0 0 0 0 0 0 0 0 0.001 0 
71 1 0.00351586 0.0757701 0.0247627 0 0 0 1.17984 -5.16914 -2.14155 0 -2.0546e-05 0 0 0 0 0 0 0 0 0 0 0 0 0 0 0 0 0 0 0.001 0 
487 1 0.0144972 0.0852192 0.0237888 0 0 0 4.10577 -5.63998 -3.85532 0 -2.0546e-05 0 0 0 0 0 0 0 0 0 0 0 0 0 0 0 0 0 0 0.001 0 
111 1 0.0117405 0.0998439 0.0247502 0 0 0 -1.04267 -3.45884 -1.96204 0 -2.0546e-05 0 0 0 0 0 0 0 0 0 0 0 0 0 0 0 0 0 0 0.001 0 
238 5 0.0171091 0.0263044 0.0251743 0 0 0 2.9065 -3.02683 -1.84863 0 -2.0546e-05 0 0 0 0 0 0 0 0 0 0 0 0 0 0 0 0 0 0 0.001 0 
390 1 0.0109809 0.043438 0.0255388 0 0 0 0.943611 -0.935145 -2.66058 0 -2.0546e-05 0 0 0 0 0 0 0 0 0 0 0 0 0 0 0 0 0 0 0.001 0 
233 3 0.0154581 0.0559808 0.0258222 0 0 0 -5.0913 -0.108896 -5.8916 0 -2.0546e-05 0 0 0 0 0 0 0 0 0 0 0 0 0 0 0 0 0 0 0.001 0 
396 6 0.018158 0.0639658 0.0279064 0 0 0 1.58215 -2.2484 -1.32605 0 -2.0546e-05 0 0 0 0 0 0 0 0 0 0 0 0 0 0 0 0 0 0 0.001 0 
419 8 0.0132486 0.0487889 0.029315 0 0 0 -0.0525533 -0.00447131 -0.644021 0 -2.0546e-05 0 0 0 0 0 0 0 0 0 0 0 0 0 0 0 0 0 0 0.001 0 
370 2 0.00658425 0.100392 0.0297061 0 0 0 -1.54613 -1.37528 -2.77357 0 -2.0546e-05 0 0 0 0 0 0 0 0 0 0 0 0 0 0 0 0 0 0 0.001 0 
36 3 0.00620273 0.0779035 0.0306197 0 0 0 0.73329 -5.74642 -2.06184 0 -2.0546e-05 0 0 0 0 0 0 0 0 0 0 0 0 0 0 0 0 0 0 0.001 0 
216 5 0.00598755 0.0932973 0.0304007 0 0 0 -0.376485 -2.16947 2.47513 0 -2.0546e-05 0 0 0 0 0 0 0 0 0 0 0 0 0 0 0 0 0 0 0.001 0 
262 1 0.00199791 0.0957114 0.0304591 0 0 0 0.315021 -0.930225 0.010919 -0.00536738 -0.000511212 -0.000855522 0 0 0 0 0 0 0 0 0 0 0 0 0 0 0 0 0 0.001 0 
145 5 0.0032653 0.101573 0.0301635 0 0 0 0.107501 0.151694 1.67079 0 -2.0546e-05 0 0 0 0 0 0 0 0 0 0 0 0 0 0 0 0 0 0 0.001 0 
339 6 0.00612816 0.052385 0.0315988 0 0 0 1.67034 -1.97414 -0.9423 0 -2.0546e-05 0 0 0 0 0 0 0 0 0 0 0 0 0 0 0 0 0 0 0.001 0 
11 4 0.00953536 0.0534149 0.0314403 0 0 0 -1.02801 -1.75146 0.642574 0 -2.0546e-05 0 0 0 0 0 0 0 0 0 0 0 0 0 0 0 0 0 0 0.001 0 
384 3 0.0180623 0.0671873 0.0314871 0 0 0 -4.67513 -6.48605 19.0187 0 -2.0546e-05 0 0 0 0 0 0 0 0 0 0 0 0 0 0 0 0 0 0 0.001 0 
177 9 0.0083598 0.0976363 0.0324765 0 0 0 -0.403261 -1.58795 -0.223179 0 -2.0546e-05 0 0 0 0 0 0 0 0 0 0 0 0 0 0 0 0 0 0 0.001 0 
51 2 0.0075108 0.0508399 0.0333254 0 0 0 -0.668889 1.18109 0.175439 0 -2.0546e-05 0 0 0 0 0 0 0 0 0 0 0 0 0 0 0 0 0 0 0.001 0 
24 1 0.00700395 0.0613527 0.0337243 0 0 0 1.47409 -1.13025 -0.681171 0 -2.0546e-05 0 0 0 0 0 0 0 0 0 0 0 0 0 0 0 0 0 0 0.001 0 
258 2 0.0020216 0.0811366 0.033312 0 0 0 0.0140332 -0.978838 9.66386 0 -2.0546e-05 0 0 0 0 0 0 0 0 0 0 0 0 0 0 0 0 0 0 0.001 0 
344 4 0.0107883 0.0888018 0.0335557 0 0 0 0.261637 -1.41278 2.48009 0 -2.0546e-05 0 0 0 0 0 0 0 0 0 0 0 0 0 0 0 0 0 0 0.001 0 
114 4 0.00754941 0.0954239 0.032676 0 0 0 -0.455134 -2.37175 -0.11235 0 -2.0546e-05 0 0 0 0 0 0 0 0 0 0 0 0 0 0 0 0 0 0 0.001 0 
264 1 0.0125719 0.103003 0.03399 0 0 0 0.532263 1.56366 2.75369 0 -2.0546e-05 0 0 0 0 0 0 0 0 0 0 0 0 0 0 0 0 0 0 0.001 0 
16 6 0.00283694 0.0463444 0.0361309 0 0 0 -0.0293387 14.333 -18.8253 0 -2.0546e-05 0 0 0 0 0 0 0 0 0 0 0 0 0 0 0 0 0 0 0.001 0 
213 3 0.0025546 0.0440879 0.0367855 0 0 0 5.7678 7.67773 -21.443 0 -2.0546e-05 0 0 0 0 0 0 0 0 0 0 0 0 0 0 0 0 0 0 0.001 0 
333 3 0.00428369 0.00243059 0.0581278 0 0 0 4.8967 28.8823 1.70781 0 -2.0546e-05 0 0 0 0 0 0 0 0 0 0 0 0 0 0 0 0 0 0 0.001 0 
353 3 0.00270321 0.00757952 0.0581486 0 0 0 -0.0703692 6.6017 -0.951463 0 -2.0546e-05 0 0 0 0 0 0 0 0 0 0 0 0 0 0 0 0 0 0 0.001 0 
476 11 0.0323732 -0.0109467 -0.0577511 0 0 0 -20.0325 -40.5218 5.86178 0 -2.0546e-05 0 0 0 0 0 0 0 0 0 0 0 0 0 0 0 0 0 0 0.001 0 
465 4 0.0384692 -0.0299717 -0.043243 0 0 0 -0.016843 -86.4722 59.9947 4.94876e-08 0.25152 0.362156 0 0 0 0 0 0 0 0 0 0 0 0 0 0 0 0 0 0.001 0 
414 4 0.0360245 -0.0309019 -0.0410362 0 0 0 -0.942112 -80.7788 61.1398 0.141237 0.39194 0.407294 0 0 0 1 0 0 0 0 0 0 0 0 0 0 0 0 1 0.001 0 
35 2 0.0370876 -0.0296575 -0.0406436 0 0 0 -8.83855 -70.4633 53.6412 0.386002 -0.457658 0.590898 0 0 0 1 0 0 0 0 0 0 0 0 0 0 0 0 1 0.001 0 
15 5 0.0451914 -0.0231216 -0.040128 0 0 0 3.62598 -83.9198 47.7528 -0.508651 1.09476 -0.151171 0 0 0 0 0 0 0 0 0 0 0 0 0 0 0 0 0 0.001 0 
29 4 0.0353377 -0.0262115 -0.0314489 0 0 0 -0.0112049 -62.8863 52.4615 3.59102e-08 0.219912 0.263369 0 0 0 0 0 0 0 0 0 0 0 0 0 0 0 0 0 0.001 0 
405 7 0.0220841 -0.0576087 -0.0102355 0 0 0 5.8071 -4.84658 16.7069 0 -2.0546e-05 0 0 0 0 0 0 0 0 0 0 0 0 0 0 0 0 0 0 0.001 0 
472 2 0.0450217 -0.0580346 -0.00848107 0 0 0 -16.1331 -5.24458 39.7487 0 -2.0546e-05 0 0 0 0 0 0 0 0 0 0 0 0 0 0 0 0 0 0 0.001 0 
398 2 0.0392827 -0.0582195 -0.00661919 0 0 0 2.47388 -0.8783 6.57084 0 -2.0546e-05 0 0 0 0 0 0 0 0 0 0 0 0 0 0 0 0 0 0 0.001 0 
143 10 0.0313318 -0.0556612 0.00508209 0 0 0 20.5341 1.66388 32.2601 0 -2.0546e-05 0 0 0 0 0 0 0 0 0 0 0 0 0 0 0 0 0 0 0.001 0 
461 8 0.0284152 -0.0538312 0.0233431 0 0 0 15.09 18.7639 41.7065 0 -2.0546e-05 0 0 0 0 0 0 0 0 0 0 0 0 0 0 0 0 0 0 0.001 0 
94 8 0.0250461 -0.0536911 0.0286659 0 0 0 -1.77758e-06 -1.33408e-12 8.26025e-13 7.14442e-19 0 0 0 0 0 0 0 0 0 0 0 0 0 0 0 0 0 0 0 0.001 0 
150 3 0.0333165 -0.0512571 0.0290059 0 0 0 -13.7983 23.5007 42.3039 -0.0759389 0.390708 -0.325765 0 0 0 0 0 0 0 0 0 0 0 0 0 0 0 0 0 0.001 0 
475 7 0.0447302 -0.0499873 0.0308573 0 0 0 -0.454164 20.7669 29.8875 -0.000113024 -0.0156706 0.0192847 0 0 0 0 0 0 0 0 0 0 0 0 0 0 0 0 0 0.001 0 
496 7 0.0355212 -0.0221348 0.0542769 0 0 0 -17.4517 47.9516 20.5358 0 -2.0546e-05 0 0 0 0 0 0 0 0 0 0 0 0 0 0 0 0 0 0 0.001 0 
334 4 0.0315846 -0.0129236 0.0573733 0 0 0 13.3716 27.758 10.6563 0 -2.0546e-05 0 0 0 0 0 0 0 0 0 0 0 0 0 0 0 0 0 0 0.001 0 
284 1 0.0263491 -0.00552836 0.0585185 0 0 0 -23.0508 57.9903 1.84084 -0.0344682 0.0803553 0.0809294 0 0 0 0 0 0 0 0 0 0 0 0 0 0 0 0 0 0.001 0 
26 2 0.0189996 0.0115647 -0.0598601 0 0 0 4.33124e-06 4.99758e-13 -1.75646e-12 1.03158e-17 0 0 0 0 0 0 0 0 0 0 0 0 0 0 0 0 0 0 0 0.001 0 
271 2 0.0204763 0.00327841 -0.0582678 0 0 0 0.677106 -5.14777 0.442361 0 -2.0546e-05 0 0 0 0 0 0 0 0 0 0 0 0 0 0 0 0 0 0 0.001 0 
434 3 0.0193548 0.00571144 -0.0584755 0 0 0 1.07994 -1.97468 0.702098 0.00104177 0.00965054 -0.0156739 0 0 0 0 0 0 0 0 0 0 0 0 0 0 0 0 0 0.001 0 
156 4 0.0391302 0.0433581 -0.0425975 0 0 0 -1.18637e-06 -2.61614e-13 2.38494e-13 1.03522e-17 0 0 0 0 0 0 0 0 0 0 0 0 0 0 0 0 0 0 0 0.001 0 
116 3 0.0308512 0.0476879 -0.0378479 0 0 0 -4.36657e-06 -2.11868e-13 1.93144e-13 3.49839e-18 0 0 0 0 0 0 0 0 0 0 0 0 0 0 0 0 0 0 0 0.001 0 
287 4 0.0375783 0.0511367 -0.0355 0 0 0 -1.78477e-13 5.78295e-14 -6.80024e-13 -8.48106e-15 2.84148e-15 4.44089e-16 0 0 0 1 0 0 0 0 0 0 0 0 0 0 0 0 3 0.001 0 
218 8 0.0434822 0.0510917 -0.0354979 0 0 0 3.56048e-16 6.24907e-17 3.42976e-13 6.245e-16 9.08995e-16 0 0 0 0 0 0 0 0 1 0 0 0 0 0 0 0 0 8 0.001 0 
38 6 0.0273746 0.0513544 -0.0355 0 0 0 -3.16358e-303 4.49447e-20 -5.07127e-12 -1.84626e-307 0 -4.44089e-16 0 0 0 0 0 0 0 0 0 0 0 0 0 0 0 0 0 0.001 0 
176 8 0.0328824 0.0512988 -0.0355 0 0 0 3.20803e-150 -1.11972e-19 1.01314e-12 5.88399e-151 0 4.44089e-16 0 0 0 0 0 0 0 0 0 0 0 0 0 0 0 0 0 0.001 0 
87 4 0.0350551 0.0512733 -0.0354998 0 0 0 -1.82104e-16 -6.45526e-16 -6.08243e-12 0 0 0 0 0 0 1 0 0 0 0 0 0 0 0 0 0 0 0 6 0.001 0 
444 2 0.0400572 0.0516014 -0.0355 0 0 0 3.43536e-16 -3.18952e-15 3.4449e-13 -2.63678e-16 1.01828e-15 0 0 1 0 0 0 0 0 0 0 0 0 0 0 0 0 0 2 0.001 0 
348 7 0.0419321 0.0520497 -0.0355021 0 0 0 -7.19652e-16 3.16929e-15 3.44715e-13 -4.30211e-16 -1.94289e-15 0 0 1 0 0 0 0 0 1 0 0 0 0 0 0 0 0 6 0.001 0 
82 3 0.0342307 0.0529588 -0.0355002 0 0 0 1.31443e-16 7.34073e-16 -6.08232e-12 0 0 0 0 0 0 1 0 0 0 0 0 0 0 0 0 0 0 0 6 0.001 0 
31 2 0.0381814 0.0529757 -0.0355 0 0 0 3.65673e-13 -1.3699e-13 -6.80059e-13 1.88001e-14 -7.13665e-15 0 0 1 0 1 0 0 0 0 0 0 0 0 0 0 0 0 6 0.001 0 
125 1 0.0447612 0.0526409 -0.0355 0 0 0 1.36329e-244 -2.24739e-20 6.08169e-12 2.61603e-245 0 -4.44089e-16 0 0 0 0 0 0 0 0 0 0 0 0 0 0 0 0 4 0.001 0 
227 7 0.031751 0.054675 -0.0355 0 0 0 -2.61359e-302 9.02297e-20 -3.03947e-12 -1.68299e-307 0 4.44089e-16 0 0 0 0 0 0 0 0 0 0 0 0 0 0 0 0 0 0.001 0 
166 4 0.0362724 0.0537726 -0.0355 0 0 0 2.61082e-247 -7.79923e-20 -3.03941e-12 -8.09981e-248 0 4.44089e-16 0 0 0 0 0 0 0 0 0 0 0 0 0 0 0 0 0 0.001 0 
65 1 0.0389472 0.0547964 -0.0355 0 0 0 -1.87175e-13 7.91786e-14 -6.79964e-13 -1.03073e-14 4.29951e-15 0 0 1 0 0 0 0 0 0 0 0 0 0 0 0 0 0 11 0.001 0 
6 4 0.0409581 0.0544147 -0.0355 0 0 0 -2.42786e-49 -7.85502e-20 1.01312e-12 1.78869e-50 0 -4.44089e-16 0 0 0 0 0 0 0 0 0 0 0 0 0 0 0 0 8 0.001 0 
493 2 0.0221338 0.0554794 -0.0355 0 0 0 3.7101e-53 1.34998e-19 4.05548e-12 -3.71394e-53 0 0 0 0 0 0 0 0 0 0 0 0 0 0 0 0 0 0 0 0.001 0 
107 1 0.0437595 0.055472 -0.0355 0 0 0 2.74906e-244 -1.23203e-19 4.05545e-12 -1.50921e-244 0 0 0 0 0 0 0 0 0 0 0 0 0 0 0 0 0 0 0 0.001 0 
286 3 0.0473579 0.0552918 -0.035503 0 0 0 0.000685143 0.00170083 -2.52177e-06 -4.40246e-05 -0.000124128 1.79417e-07 0 0 2 0 0 0 0 0 0 0 0 0 0 0 0 0 6 0.001 0 
55 2 0.0470221 0.0567617 -0.0354997 0 0 0 -0.00397932 -0.00134613 -4.7334e-06 0.000280955 9.70487e-05 2.3088e-07 0 2 1 0 0 0 0 0 0 0 0 0 0 0 0 0 3 0.001 0 
210 5 0.0416361 0.0577949 -0.0355 0 0 0 -9.81724e-303 1.01078e-19 -6.08173e-12 -1.79863e-307 1.69407e-21 -4.44089e-16 0 0 0 0 0 0 0 0 0 0 0 0 0 0 0 0 0 0.001 0 
309 7 0.0457465 0.0600493 -0.0355 0 0 0 -1.43706e-49 -2.19322e-20 -3.0395e-12 -3.50103e-49 0 -4.44089e-16 0 0 0 0 0 0 0 0 0 0 0 0 0 0 0 0 0 0.001 0 
18 9 0.0457479 0.0622966 -0.0355 0 0 0 1.29137e-111 1.90825e-19 2.02906e-12 -2.89234e-112 0 4.44089e-16 0 0 0 0 0 0 0 0 0 0 0 0 0 0 0 0 0 0.001 0 
222 3 0.0434694 0.0635438 -0.0355 0 0 0 1.95966e-49 -1.6836e-19 4.06075e-12 -5.66114e-50 0 0 0 0 0 0 0 0 0 0 0 0 0 0 0 0 0 0 0 0.001 0 
200 6 0.0438076 0.0659367 -0.0355 0 0 0 -1.29538e-99 -1.57345e-19 -6.08173e-12 4.08136e-100 0 -4.44089e-16 0 0 0 0 0 0 0 0 0 0 0 0 0 0 0 0 0 0.001 0 
325 1 0.0460371 0.0659416 -0.0355 0 0 0 -1.29383e-17 6.69361e-18 -6.33377e-17 -3.25261e-19 5.42101e-20 0 1 0 0 0 0 0 0 0 0 0 0 0 0 0 0 0 1 0.001 0 
245 3 0.0368776 0.0679812 -0.0355 0 0 0 1.07231e-200 5.61733e-20 -6.08166e-12 -1.9926e-201 1.69407e-21 -4.44089e-16 0 0 0 0 0 0 0 0 0 0 0 0 0 0 0 0 0 0.001 0 
315 4 0.0346874 0.06897 -0.0355 0 0 0 -1.39554e-200 -3.82511e-23 -5.07136e-12 6.73066e-203 0 4.44089e-16 0 0 0 0 0 0 0 0 0 0 0 0 0 0 0 0 0 0.001 0 
313 3 0.0428736 0.0798103 -0.0355 0 0 0 4.6543e-244 5.61355e-20 6.0817e-12 -1.51445e-244 0 -4.44089e-16 0 0 0 0 0 0 0 0 0 0 0 0 0 0 0 0 0 0.001 0 
316 7 0.032603 0.0456099 -0.0338319 0 0 0 35.439 3.97548 -88.0649 0 -2.0546e-05 0 0 0 0 0 0 0 0 0 0 0 0 0 0 0 0 0 0 0.001 0 
226 7 0.0389303 0.0653339 -0.0347482 0 0 0 13.9003 22.6489 -60.3678 -4.64339 -2.21087 12.6082 0 0 0 0 0 0 0 0 0 0 0 0 0 0 0 0 0 0.001 0 
231 2 0.0201517 0.0477235 -0.033713 0 0 0 -1.3919 -3.76416 -0.320853 0 -2.0546e-05 0 0 0 0 0 0 0 0 0 0 0 0 0 0 0 0 0 0 0.001 0 
98 4 0.0466145 0.0806153 -0.0326372 0 0 0 -1.82816 8.89199 5.36607 0 -2.0546e-05 0 0 0 0 0 0 0 0 0 0 0 0 0 0 0 0 0 0 0.001 0 
397 12 0.0260522 0.0942933 -0.033646 0 0 0 -1.13696 -8.9874 -20.172 0 -2.0546e-05 0 0 0 0 0 0 0 0 0 0 0 0 0 0 0 0 0 0 0.001 0 
44 3 0.0344293 0.104242 -0.0336794 0 0 0 0.586963 -1.92377 0.184827 0 -2.0546e-05 0 0 0 0 0 0 0 0 0 0 0 0 0 0 0 0 0 0 0.001 0 
214 4 0.0199866 0.105955 -0.0328575 0 0 0 3.05127 9.99297 -0.641663 0 -2.0546e-05 0 0 0 0 0 0 0 0 0 0 0 0 0 0 0 0 0 0 0.001 0 
282 9 0.0269199 0.077409 -0.031394 0 0 0 -0.887423 -1.87906 -0.629877 0 -2.0546e-05 0 0 0 0 0 0 0 0 0 0 0 0 0 0 0 0 0 0 0.001 0 
479 5 0.031006 0.0979963 -0.031814 0 0 0 6.28614 -0.986928 1.96331 0 -2.0546e-05 0 0 0 0 0 0 0 0 0 0 0 0 0 0 0 0 0 0 0.001 0 
190 8 0.0381463 0.100539 -0.0315452 0 0 0 1.10647 -1.08228 2.45421 0 -2.0546e-05 0 0 0 0 0 0 0 0 0 0 0 0 0 0 0 0 0 0 0.001 0 
142 2 0.03309 0.108434 -0.0320434 0 0 0 -2.21003 2.33912 2.57974 0 -2.0546e-05 0 0 0 0 0 0 0 0 0 0 0 0 0 0 0 0 0 0 0.001 0 
337 7 0.0295887 0.0316287 -0.0290447 0 0 0 4.7239 -0.830384 -7.60771 0 -2.0546e-05 0 0 0 0 0 0 0 0 0 0 0 0 0 0 0 0 0 0 0.001 0 
437 3 0.0430194 0.0783945 -0.0298405 0 0 0 -0.103138 2.89605 2.25437 0 -2.0546e-05 0 0 0 0 0 0 0 0 0 0 0 0 0 0 0 0 0 0 0.001 0 