ITEM: TIMESTEP
450000
ITEM: NUMBER OF ENTRIES
158
ITEM: BOX BOUNDS ff ff ff
-0.01 0.45
-0.15 0.15
-0.08 0.1
ITEM: ENTRIES c_pwc[1] c_pwc[2] c_pwc[3] c_pwc[4] c_pwc[5] c_pwc[6] c_pwc[7] c_pwc[8] c_pwc[9] c_pwc[10] c_pwc[11] c_pwc[12] c_pwc[13] c_pwc[14] 
0 0 0 -9.65066e-08 2.099e-12 4.21537e-12 0 924 52 3.51036e-18 -0.00135859 -0.00274904 2.67185e-08 4.26146e-06 
0 0 0 -3.1678e-07 1.2004e-12 4.21896e-12 0 922 79 -2.35656e-17 -0.000830787 -0.00295602 2.67423e-08 4.26527e-06 
0 0 0 9.80362e-07 -3.61857e-13 -3.90507e-12 0 920 294 -1.84317e-17 -0.000273173 -0.00305887 2.67452e-08 4.26573e-06 
0 0 0 9.80362e-07 -3.61857e-13 -3.90507e-12 0 792 294 1.84335e-17 0.000293719 0.00305887 2.67562e-08 4.26748e-06 
0 0 0 -3.1678e-07 1.2004e-12 4.21896e-12 0 790 79 2.35493e-17 0.000851333 0.00295602 2.67749e-08 4.27048e-06 
0 0 0 -9.65066e-08 2.099e-12 4.21537e-12 0 788 52 -3.82719e-18 0.00137913 0.00274904 2.67715e-08 4.26994e-06 
0 0 0 -9.62021e-07 6.87852e-12 -6.2706e-12 0 944 3 -3.70848e-16 -0.0022588 0.00206854 2.66978e-08 4.25815e-06 
0 0 0 -9.62021e-07 6.87852e-12 -6.2706e-12 0 768 3 3.80889e-16 0.00227935 -0.00206854 2.67857e-08 4.27221e-06 
0 0 0 3.94369e-303 1.35138e-19 -4.06075e-12 0 884 323 5.63327e-308 1.0273e-05 -3.89716 2.35619e-06 0.0005 
0 0 0 5.16418e-53 -1.76294e-19 -1.0131e-12 0 884 320 -2.11423e-53 1.0273e-05 -3.89716 2.35619e-06 0.0005 
0 0 0 -2.6715 5.94578 2.45314 0 854 289 0.118718 0.0591504 0.00497108 1.10341e-07 1.77184e-05 
0 0 0 3.94369e-303 1.35138e-19 -4.06075e-12 0 850 323 -2.40262e-307 1.0273e-05 3.89716 2.35619e-06 0.0005 
0 0 0 5.16418e-53 -1.76294e-19 -1.0131e-12 0 850 320 -2.11423e-53 1.0273e-05 3.89716 2.35619e-06 0.0005 
0 0 0 6.4986e-181 1.14575e-19 -2.02913e-12 0 850 67 8.32972e-182 1.0273e-05 3.89716 2.35619e-06 0.0005 
0 0 0 9.92297e-303 -8.98145e-20 6.08169e-12 0 850 89 -2.4001e-308 1.0273e-05 3.89716 2.35619e-06 0.0005 
0 0 0 0.203652 -13.3247 0.270276 0 918 221 0.000281472 -0.00200499 -0.031496 1.76197e-08 2.80821e-06 
0 0 0 2.80185e-19 2.05972e-12 -4.13648e-12 0 914 410 -3.8452e-29 0.00137872 -0.00274822 2.67662e-08 4.26909e-06 
0 0 0 3.29301e-19 -1.62023e-12 3.25386e-12 0 914 41 2.51312e-29 0.00137996 -0.00275071 2.67823e-08 4.27167e-06 
0 0 0 6.4986e-181 1.14575e-19 -2.02913e-12 0 885 67 8.32972e-182 1.0273e-05 -3.89716 2.35619e-06 0.0005 
0 0 0 9.92297e-303 -8.98145e-20 6.08169e-12 0 885 89 1.92046e-307 1.0273e-05 -3.89716 2.35619e-06 0.0005 
0 0 0 2.80185e-19 2.05972e-12 -4.13648e-12 0 798 410 3.73117e-29 -0.00135818 0.00274822 2.67132e-08 4.26061e-06 
0 0 0 3.29301e-19 -1.62023e-12 3.25386e-12 0 798 41 -2.62821e-29 -0.00135942 0.00275071 2.67293e-08 4.26319e-06 
0 0 0 0.791582 -1.53096 -0.655564 0 855 141 0.0320114 0.00880311 0.00987907 1.99552e-07 3.22806e-05 
0 0 0 7.2495 30.5407 -31.026 0 962 378 0.0529096 -0.36919 -0.257849 6.05945e-07 0.0001016 
0 0 0 -6.38611e-14 -1.90449e-19 3.10057e-303 0 861 240 -3.89716 1.0273e-05 -4.40668e-307 2.35619e-06 0.0005 
0 0 0 -6.38611e-14 -1.90449e-19 3.10057e-303 0 822 240 3.89716 1.0273e-05 6.21785e-307 2.35619e-06 0.0005 
0 0 0 0.220586 -3.41746 10.5686 0 932 48 -0.00583271 -0.0114432 -0.00328954 3.44002e-08 5.49004e-06 
0 -63.2941 76.9612 5.40802 -68.4233 82.87 1 1880 35 1.51451 -1.57675 1.45963 2.20402e-06 0.000453705 
0 -48.1166 68.7583 -0.0116773 -48.652 68.1982 1 1857 29 -2.2329 2.4727 -2.08225 2.36369e-06 0.00050239 
0 -49.2361 67.5621 -0.0116773 -48.652 68.1982 1 1875 29 2.23294 -2.19205 2.28232 2.34868e-06 0.000497613 
0 -65.5209 67.071 3.29224 -70.7555 71.1093 1 1862 15 -1.96168 2.86567 -2.85301 2.34474e-06 0.000496367 
0 -62.1747 78.1574 5.40802 -68.4233 82.87 1 1864 35 -2.98148 3.27143 -2.78549 2.4949e-06 0.000546296 
0 -63.2976 76.9626 5.40802 -68.4233 82.87 1 1881 35 1.51226 -1.42268 1.62536 2.20401e-06 0.000453701 
0 -66.4615 66.8851 3.29224 -70.7555 71.1093 1 1874 15 -0.543952 0.456456 -0.212497 6.51833e-07 0.000109767 
0 -66.6403 65.8748 3.29224 -70.7555 71.1093 1 1882 15 1.88196 -2.00275 1.92779 2.36756e-06 0.000503631 
0 -66.6487 65.8721 3.29224 -70.7555 71.1093 1 1883 15 2.17477 -1.75446 1.8964 2.36741e-06 0.000503581 
0 -67.4865 65.6985 3.29224 -70.7555 71.1093 1 1889 15 -0.267511 -0.2456 0.322614 9.80322e-07 0.00017057 
0 -67.581 65.6888 3.29224 -70.7555 71.1093 1 1890 15 0.0134059 -0.11106 0.123586 6.74659e-07 0.000113857 
0 0 0 -7.17573 45.6777 13.5395 0 950 446 0.508393 0.0306629 -1.22481 1.23964e-06 0.000221918 
0 0 0 -1.77758e-06 -1.33408e-12 8.26025e-13 0 942 94 1.03638e-16 -0.00260199 0.00161745 2.67029e-08 4.25897e-06 
0 0 0 -13.1154 37.3278 26.7187 0 947 44 -0.00617386 0.00128279 0.0332261 4.57448e-08 7.30721e-06 
0 0 0 -1.77758e-06 -1.33408e-12 8.26025e-13 0 771 94 -1.03159e-16 0.00262254 -0.00161745 2.68041e-08 4.27515e-06 
0 0 0 -4.36657e-06 -2.11868e-13 1.93144e-13 0 910 116 3.16446e-15 0.00227826 -0.00206755 2.67772e-08 4.27085e-06 
0 0 0 -3.16358e-303 4.49447e-20 -5.07127e-12 0 885 38 1.11912e-307 1.0273e-05 -3.89716 2.35619e-06 0.0005 
0 0 0 -7.82887e-30 9.02297e-20 -3.03947e-12 0 885 227 -6.1249e-31 1.0273e-05 -3.89716 2.35619e-06 0.0005 
0 0 0 -1.89966e-201 -6.74392e-20 6.08169e-12 0 885 176 -4.59585e-203 1.0273e-05 -3.89716 2.35619e-06 0.0005 
0 0 0 -3.60579e-16 1.08933e-15 -3.54885e-12 0 885 87 -0.0581303 0.132393 -3.89025 2.35434e-06 0.000499409 
0 0 0 4.40282e-16 -7.35388e-16 -3.54921e-12 0 885 82 0.0648153 -0.147596 -3.90407 2.35805e-06 0.000500591 
0 0 0 4.74828e-142 5.68916e-20 -2.02907e-12 0 885 315 -3.98103e-143 1.0273e-05 -3.89716 2.35619e-06 0.0005 
0 0 0 6.3602e-116 -5.62089e-20 6.08169e-12 0 885 166 -7.74122e-117 1.0273e-05 -3.89716 2.35619e-06 0.0005 
0 0 0 -3.37924e-120 1.23718e-19 6.08167e-12 0 885 245 3.31845e-122 1.0273e-05 -3.89716 2.35619e-06 0.0005 
0 0 0 -4.95099e-17 1.76087e-16 2.41474e-13 0 885 287 0.00368659 0.0103783 -3.89716 2.35619e-06 0.0005 
0 0 0 1.3702e-17 -4.74945e-17 2.41466e-13 0 885 31 -0.000828673 -0.00352384 -3.89716 2.35619e-06 0.0005 
0 0 0 1.17592e-16 9.48568e-17 2.41461e-13 0 885 65 0.00741988 -0.0088353 -3.89558 2.35577e-06 0.000499864 
0 0 0 7.54285e-15 -3.58559e-14 9.70245e-14 0 885 444 0.0371028 0.0088795 -3.89724 2.35622e-06 0.000500007 
0 0 0 -1.77182e-16 -3.79052e-17 2.41606e-13 0 885 6 -0.0143531 0.00282128 -3.89875 2.35662e-06 0.000500136 
0 0 0 8.31315e-15 6.37292e-14 9.69917e-14 0 885 348 0.0392984 -0.0560025 -3.84977 2.34338e-06 0.000495938 
0 0 0 -9.81724e-303 1.01078e-19 -6.08173e-12 0 885 210 -6.92469e-307 1.0273e-05 -3.89716 2.35619e-06 0.0005 
0 0 0 -1.58294e-14 -2.77996e-14 9.14271e-14 0 885 218 -0.173614 0.107322 -3.94467 2.36888e-06 0.000504055 
0 0 0 -2.0257e-302 -8.91458e-20 -1.01318e-12 0 885 107 -2.56127e-307 1.0273e-05 -3.89716 2.35619e-06 0.0005 
0 0 0 9.47949e-45 -1.12155e-19 5.07134e-12 0 885 222 -1.6347e-45 1.0273e-05 -3.89716 2.35619e-06 0.0005 
0 0 0 -3.91748e-50 -1.08658e-20 -1.01312e-12 0 885 125 -1.0131e-51 1.0273e-05 -3.89716 2.35619e-06 0.0005 
0 0 0 1.78696e-302 -7.84866e-20 6.08173e-12 0 885 200 4.21408e-307 1.0273e-05 -3.89716 2.35619e-06 0.0005 
0 0 0 1.72673e-46 -1.34554e-19 -4.05556e-12 0 885 18 -4.23001e-47 1.0273e-05 -3.89716 2.35619e-06 0.0005 
0 0 0 1.20021e-306 1.01174e-19 6.08168e-12 0 885 325 3.9843e-307 1.0273e-05 -3.89716 2.35619e-06 0.0005 
0 0 0 1.28715e-15 -1.12731e-15 -4.55565e-12 0 885 286 0.115691 0.088371 -3.89869 2.35661e-06 0.000500131 
0 0 0 4.3842 -4.14426 -4.40527 0 853 223 -0.000269703 -0.0360761 0.0180361 4.77245e-07 7.9083e-05 
0 0 0 9.47949e-45 -1.12155e-19 5.07134e-12 0 851 222 -1.6347e-45 1.0273e-05 3.89716 2.35619e-06 0.0005 
0 0 0 1.78696e-302 -7.84866e-20 6.08173e-12 0 851 200 -6.06149e-307 1.0273e-05 3.89716 2.35619e-06 0.0005 
0 0 0 1.72673e-46 -1.34554e-19 -4.05556e-12 0 851 18 -4.23001e-47 1.0273e-05 3.89716 2.35619e-06 0.0005 
0 0 0 1.20021e-306 1.01174e-19 6.08168e-12 0 851 325 -5.79467e-307 1.0273e-05 3.89716 2.35619e-06 0.0005 
0 0 0 -1.18637e-06 -2.61614e-13 2.38494e-13 0 802 156 -4.38829e-16 -0.00225862 0.00206837 2.66963e-08 4.25792e-06 
0 0 0 4.33124e-06 4.99758e-13 -1.75646e-12 0 796 26 9.91361e-17 -0.00083098 0.00295669 2.67464e-08 4.26592e-06 
0 0 0 4.33124e-06 4.99758e-13 -1.75646e-12 0 917 26 -8.89256e-17 0.000851526 -0.00295669 2.6779e-08 4.27113e-06 
0 0 0 -1.18637e-06 -2.61614e-13 2.38494e-13 0 911 156 4.4883e-16 0.00227917 -0.00206837 2.67843e-08 4.27198e-06 
0 0 0 -4.36657e-06 -2.11868e-13 1.93144e-13 0 803 116 -3.16648e-15 -0.00225772 0.00206755 2.66892e-08 4.25678e-06 
0 0 0 -0.320261 19.4504 2.03242 0 884 308 0.12255 -0.0353812 0.946741 1.19215e-06 0.000212264 
0 0 0 -3.16358e-303 4.49447e-20 -5.07127e-12 0 850 38 -2.96539e-307 1.0273e-05 3.89716 2.35619e-06 0.0005 
0 0 0 -7.82887e-30 9.02297e-20 -3.03947e-12 0 850 227 -6.1249e-31 1.0273e-05 3.89716 2.35619e-06 0.0005 
0 0 0 -1.89966e-201 -6.74392e-20 6.08169e-12 0 850 176 -4.59585e-203 1.0273e-05 3.89716 2.35619e-06 0.0005 
0 0 0 -3.60579e-16 1.08933e-15 -3.54885e-12 0 850 87 -0.0648153 0.147617 3.90407 2.35805e-06 0.000500591 
0 0 0 4.40282e-16 -7.35388e-16 -3.54921e-12 0 850 82 0.0581303 -0.132372 3.89025 2.35434e-06 0.000499409 
0 0 0 4.74828e-142 5.68916e-20 -2.02907e-12 0 850 315 -3.98103e-143 1.0273e-05 3.89716 2.35619e-06 0.0005 
0 0 0 6.3602e-116 -5.62089e-20 6.08169e-12 0 850 166 -7.74122e-117 1.0273e-05 3.89716 2.35619e-06 0.0005 
0 0 0 -3.37924e-120 1.23718e-19 6.08167e-12 0 850 245 3.31845e-122 1.0273e-05 3.89716 2.35619e-06 0.0005 
0 0 0 -4.95099e-17 1.76087e-16 2.41474e-13 0 850 287 0.0036863 0.0103775 3.89716 2.35619e-06 0.0005 
0 0 0 1.3702e-17 -4.74945e-17 2.41466e-13 0 850 31 -0.000828845 -0.00352437 3.89716 2.35619e-06 0.0005 
0 0 0 1.17592e-16 9.48568e-17 2.41461e-13 0 850 65 0.0114952 -0.00963449 3.89875 2.35662e-06 0.000500136 
0 0 0 7.54285e-15 -3.58559e-14 9.70245e-14 0 850 444 0.0371092 0.00888103 3.89708 2.35617e-06 0.000499993 
0 0 0 -1.77182e-16 -3.79052e-17 2.41606e-13 0 850 6 -0.0102774 0.00202306 3.89558 2.35577e-06 0.000499864 
0 0 0 8.31315e-15 6.37292e-14 9.69917e-14 0 850 348 0.136412 -0.116195 3.94475 2.3689e-06 0.000504062 
0 0 0 -9.81724e-303 1.01078e-19 -6.08173e-12 0 850 210 5.12606e-307 1.0273e-05 3.89716 2.35619e-06 0.0005 
0 0 0 -1.58294e-14 -2.77996e-14 9.14271e-14 0 850 218 -0.0763079 0.0471766 3.84985 2.3434e-06 0.000495945 
0 0 0 -2.0257e-302 -8.91458e-20 -1.01318e-12 0 850 107 4.36321e-307 1.0273e-05 3.89716 2.35619e-06 0.0005 
0 0 0 -3.91748e-50 -1.08658e-20 -1.01312e-12 0 850 125 -1.0131e-51 1.0273e-05 3.89716 2.35619e-06 0.0005 
0 0 0 1.28715e-15 -1.12731e-15 -4.55565e-12 0 850 286 0.113403 0.0866157 3.89563 2.35578e-06 0.000499869 
0 -66.0402 -70.7249 -0.019058 -66.6049 -70.2229 1 2717 117 2.75435 -2.02823 -1.87601 2.35592e-06 0.000499914 
0 -51.7409 -69.9418 -0.0197213 -52.3002 -69.4453 1 2713 285 2.75749 -2.0246 -1.90304 2.35979e-06 0.000501146 
0 -52.7734 -68.9755 -0.0197213 -52.3002 -69.4453 1 2695 285 -2.75751 1.73904 2.11837 2.35259e-06 0.000498855 
0 -67.0728 -69.7586 -0.019058 -66.6049 -70.2229 1 2698 117 -2.75436 1.73945 2.15014 2.35646e-06 0.000500084 
0 -67.0603 -60.1581 -6.1164 -62.191 -56.0753 1 2708 165 -2.78942 2.07259 2.18836 2.58004e-06 0.000577214 
0 -67.0633 -60.1682 -6.1164 -62.191 -56.0753 1 2707 165 -3.0162 1.75472 2.17856 2.58014e-06 0.000577253 
0 -66.0307 -61.1345 -6.1164 -62.191 -56.0753 1 2719 165 2.71145 -1.7165 -1.85477 2.09475e-06 0.000422747 
0 -66.4 -62.2157 -6.1164 -62.191 -56.0753 1 2720 165 0.522126 -0.908788 -0.371259 8.96694e-07 0.000154676 
0 0 0 1.45267e-05 2.35421e-13 3.11758e-13 0 962 185 -0.028991 0.00105813 0.00148792 1.89219e-08 3.01606e-06 
0 0 0 1.45267e-05 2.35421e-13 3.11758e-13 0 752 185 9.37276e-08 -0.00239628 -0.00323018 3.20004e-08 5.10606e-06 
0 0 0 6.49406e-07 -1.39563e-12 -1.27229e-12 0 750 235 -4.11811e-16 -0.00225754 -0.00206739 2.66879e-08 4.25657e-06 
0 0 0 6.49406e-07 -1.39563e-12 -1.27229e-12 0 963 235 4.16908e-16 0.00227809 0.00206739 2.67759e-08 4.27063e-06 
0 0 0 1.45267e-05 2.35421e-13 3.11758e-13 0 961 185 0.000912805 0.0013587 0.00174226 2.14811e-08 3.42469e-06 
0 0 0 6.68735e-08 -1.71929e-13 -6.0427e-13 0 923 9 -1.72791e-18 -0.000829863 -0.00295277 2.67227e-08 4.26214e-06 
0 0 0 -2.0182e-06 1.06842e-12 1.41482e-12 0 787 249 -3.32322e-16 0.00186257 0.00245284 2.67963e-08 4.2739e-06 
0 0 0 -2.0182e-06 1.06842e-12 1.41482e-12 0 926 249 3.42614e-16 -0.00184202 -0.00245284 2.67246e-08 4.26244e-06 
0 0 0 6.68735e-08 -1.71929e-13 -6.0427e-13 0 790 9 1.57092e-18 0.000850409 0.00295277 2.67553e-08 4.26735e-06 
0 -80.8378 64.2587 -0.0212342 -80.255 64.9033 1 1886 336 2.24494 -2.1923 2.34181 2.35953e-06 0.000501064 
0 -79.7184 65.4549 -0.0212342 -80.255 64.9033 1 1867 336 -2.24496 2.45951 -2.0118 2.35285e-06 0.000498936 
0 0 0 17.9264 19.8698 41.9609 0 942 445 0.0952226 0.28401 -0.174484 2.76937e-07 4.50926e-05 
0 0 0 -4.19351 -20.8528 -19.3156 0 911 159 0.0550313 -0.148572 0.155413 1.75109e-07 2.8269e-05 
0 0 0 18.1799 3.50367 -63.7349 0 886 161 -1.14335 -0.0619225 0.568312 4.62725e-07 7.6577e-05 
0 0 0 0.916478 -2.83926 -6.2464 0 886 126 -0.156717 -0.0232795 -0.0748205 2.94338e-07 4.79972e-05 
0 0 0 -4.19351 -20.8528 -19.3156 0 910 159 -0.0319496 -0.0313998 0.012424 3.35804e-07 5.49549e-05 
0 0 0 0.0100494 0.0279096 0.00390335 0 885 5 0.533066 0.1309 -3.95796 2.37232e-06 0.00050516 
0 0 0 9.25478e-303 7.95328e-20 2.02905e-12 0 885 167 -7.67976e-308 1.0273e-05 -3.89716 2.35619e-06 0.0005 
0 0 0 2.32675e-195 1.01083e-19 5.07127e-12 0 885 163 -9.39418e-197 1.0273e-05 -3.89716 2.35619e-06 0.0005 
0 0 0 6.25347e-51 -2.18025e-20 2.02903e-12 0 885 318 -4.60276e-51 1.0273e-05 -3.89716 2.35619e-06 0.0005 
0 0 0 -2.15436e-36 -1.35563e-19 -1.01312e-12 0 885 63 -3.05009e-36 1.0273e-05 -3.89716 2.35619e-06 0.0005 
0 0 0 0.557791 0.285132 -1.00566 0 885 74 -0.529657 -0.200781 -3.71817 2.32928e-06 0.000491506 
0 0 0 -1.57984e-15 8.50073e-16 -4.55635e-12 0 885 84 -0.0651068 -0.0501994 -3.84647 2.34248e-06 0.000495654 
0 0 0 2.19484e-302 -1.81274e-19 -2.02913e-12 0 885 358 -6.34032e-307 1.0273e-05 -3.89716 2.35619e-06 0.0005 
0 0 0 7.76971 1.99906 -10.1595 0 885 296 -2.08074 -0.320735 -2.61245 2.21583e-06 0.000457157 
0 0 0 18.1799 3.50367 -63.7349 0 885 161 -4.56781 -1.1304 6.92663 1.80826e-06 0.000348529 
0 0 0 9.25478e-303 7.95328e-20 2.02905e-12 0 851 167 -1.04673e-307 1.0273e-05 3.89716 2.35619e-06 0.0005 
0 0 0 2.32675e-195 1.01083e-19 5.07127e-12 0 851 163 -9.39418e-197 1.0273e-05 3.89716 2.35619e-06 0.0005 
0 0 0 6.25347e-51 -2.18025e-20 2.02903e-12 0 851 318 -4.60276e-51 1.0273e-05 3.89716 2.35619e-06 0.0005 
0 0 0 -1.57984e-15 8.50073e-16 -4.55635e-12 0 851 84 -0.163197 -0.125379 3.94808 2.36979e-06 0.000504346 
0 0 0 2.19484e-302 -1.81274e-19 -2.02913e-12 0 851 358 4.52797e-307 1.0273e-05 3.89716 2.35619e-06 0.0005 
0 0 0 7.76971 1.99906 -10.1595 0 851 296 0.0638036 -0.355683 5.23822 2.48502e-06 0.000542843 
0 0 0 0.0100494 0.0279096 0.00390335 0 850 5 0.411841 0.100527 3.83668 2.3399e-06 0.00049484 
0 0 0 -2.15436e-36 -1.35563e-19 -1.01312e-12 0 850 63 -3.05009e-36 1.0273e-05 3.89716 2.35619e-06 0.0005 
0 0 0 0.557791 0.285132 -1.00566 0 850 74 -0.465879 0.08418 4.07768 2.38265e-06 0.000508494 
0 0 0 0.00333372 -0.00702562 0.0116589 0 966 133 -0.00140725 0.0123797 0.0107395 8.05185e-08 1.28981e-05 
0 0 0 -0.0283681 0.00154616 -0.00222202 0 965 256 0.000517021 0.00418632 0.00144192 3.35642e-08 5.35625e-06 
0 0 0 -7.97575e-07 1.40891e-12 1.28439e-12 0 963 269 4.10549e-16 0.00227888 0.00206811 2.67821e-08 4.27162e-06 
0 0 0 17.6014 24.4382 -14.3375 0 961 238 0.00562393 -0.110515 -0.152162 1.86695e-07 3.01685e-05 
0 0 0 -7.97575e-07 1.40891e-12 1.28439e-12 0 751 269 -4.20636e-16 -0.00225833 -0.00206811 2.66941e-08 4.25756e-06 
0 0 0 -0.0283681 0.00154616 -0.00222202 0 737 256 0.00145741 -0.00401072 -0.0058219 4.36934e-08 6.97837e-06 
0 0 0 0.00333372 -0.00702562 0.0116589 0 737 133 -0.000530654 -0.0124791 -0.0064185 7.32776e-08 1.17313e-05 
0 0 0 -1.47708 35.2526 12.3863 0 399 115 -0.0310451 0.0566337 -0.280685 3.37032e-07 5.51617e-05 
0 0 0 -0.564865 36.3004 43.6042 0 391 251 0.0127611 0.0360096 -0.0111919 4.10149e-07 6.75594e-05 
0 0 0 -3.11405 3.72392 10.2185 0 389 128 -0.00179557 0.0323105 -0.0136732 2.87797e-08 4.59098e-06 
0 0 0 7.24716 16.3214 -40.2559 0 417 279 -0.178947 -0.432736 -0.0843721 4.78032e-07 7.92191e-05 
0 0 0 0.206293 -6.01185 17.404 0 380 43 -0.000375862 -0.0183772 -0.00203645 1.46931e-08 2.34123e-06 
0 0 0 2.34861 -22.0683 1.27677 0 364 297 0.00111699 0.00445578 0.0650142 2.29819e-07 3.72714e-05 
0 0 0 -0.558992 10.6658 6.39591 0 547 219 0.000133761 -0.00394705 0.0109734 4.98702e-08 7.96884e-06 
0 0 0 -1.39958 -13.1545 -9.59354 0 583 248 -0.000635644 0.00640246 -0.0132406 9.38805e-09 1.49527e-06 
0 0 0 -0.117174 -0.098811 6.27747 0 535 187 0.00346436 0.0261865 0.000682256 1.27149e-07 2.04453e-05 
0 0 0 -8.3166 19.2153 23.4657 0 545 106 0.0111707 0.0641698 -0.0525935 1.83355e-08 2.92246e-06 
0 0 0 -1.96278 -20.1689 -0.0954569 0 517 225 0.0025918 -0.00182163 0.00598441 1.30729e-07 2.10273e-05 
0 0 0 -4.62382 -13.3506 -6.7976 0 112 241 0.0179327 -0.0293909 0.0514252 2.37748e-07 3.85832e-05 
