ITEM: TIMESTEP
500000
ITEM: NUMBER OF ENTRIES
178
ITEM: BOX BOUNDS ff ff ff
-0.01 0.45
-0.15 0.15
-0.08 0.1
ITEM: ENTRIES c_pwc[1] c_pwc[2] c_pwc[3] c_pwc[4] c_pwc[5] c_pwc[6] c_pwc[7] c_pwc[8] c_pwc[9] c_pwc[10] c_pwc[11] c_pwc[12] c_pwc[13] c_pwc[14] 
0 0 0 -1.07771e-12 -3.1355 18.5839 0 934 441 1.34526e-15 0.09091 0.0138145 2.78571e-07 4.53649e-05 
0 0 0 -9.65066e-08 2.099e-12 4.21537e-12 0 924 52 1.29239e-17 -0.00135859 -0.00274904 2.67185e-08 4.26146e-06 
0 0 0 -3.1678e-07 1.2004e-12 4.21896e-12 0 922 79 -2.35522e-17 -0.000830787 -0.00295602 2.67423e-08 4.26527e-06 
0 0 0 1.26233 -3.017 0.235629 0 920 147 0.00758783 0.00836206 0.0193473 8.8425e-08 1.41737e-05 
0 0 0 9.80362e-07 -3.61857e-13 -3.90507e-12 0 920 294 -4.43284e-17 -0.000273173 -0.00305887 2.67452e-08 4.26573e-06 
0 0 0 9.80362e-07 -3.61857e-13 -3.90507e-12 0 792 294 4.43356e-17 0.000293719 0.00305887 2.67562e-08 4.26748e-06 
0 0 0 -3.1678e-07 1.2004e-12 4.21896e-12 0 790 79 2.35626e-17 0.000851333 0.00295602 2.67749e-08 4.27048e-06 
0 0 0 -9.65066e-08 2.099e-12 4.21537e-12 0 788 52 -1.32434e-17 0.00137913 0.00274904 2.67715e-08 4.26994e-06 
0 0 0 -31.0223 49.8801 33.0488 0 946 495 0.016458 0.0604835 -0.0345409 4.84074e-07 8.02638e-05 
0 0 0 -9.62021e-07 6.87852e-12 -6.2706e-12 0 944 3 3.99662e-16 -0.0022588 0.00206854 2.66978e-08 4.25815e-06 
0 0 0 -9.62021e-07 6.87852e-12 -6.2706e-12 0 768 3 -4.09559e-16 0.00227935 -0.00206854 2.67857e-08 4.27221e-06 
0 0 0 -2.19579e-64 -1.57342e-19 -4.06086e-12 0 884 323 4.17142e-67 1.0273e-05 -3.89716 2.35619e-06 0.0005 
0 0 0 -2.49365e-299 -2.23535e-20 -4.05559e-12 0 884 149 2.585e-300 1.0273e-05 -3.89716 2.35619e-06 0.0005 
0 0 0 1.92727e-282 1.12987e-20 -3.03951e-12 0 884 320 -1.01671e-283 1.0273e-05 -3.89716 2.35619e-06 0.0005 
0 0 0 -2.19579e-64 -1.57342e-19 -4.06086e-12 0 850 323 4.17142e-67 1.0273e-05 3.89716 2.35619e-06 0.0005 
0 0 0 -2.49365e-299 -2.23535e-20 -4.05559e-12 0 850 149 2.58501e-300 1.0273e-05 3.89716 2.35619e-06 0.0005 
0 0 0 1.92727e-282 1.12987e-20 -3.03951e-12 0 850 320 -1.01671e-283 1.0273e-05 3.89716 2.35619e-06 0.0005 
0 0 0 -1.609e-302 1.14575e-19 -2.02913e-12 0 850 67 1.23013e-306 1.0273e-05 3.89716 2.35619e-06 0.0005 
0 0 0 1.14785e-37 6.78855e-20 -4.06089e-12 0 850 89 5.97498e-39 1.0273e-05 3.89716 2.35619e-06 0.0005 
0 0 0 4.76015e-07 2.11148e-12 -4.24042e-12 0 914 410 -4.16324e-17 0.00137899 -0.00274876 2.67697e-08 4.26965e-06 
0 0 0 3.18011e-08 -1.00554e-13 2.01942e-13 0 914 41 -6.18103e-18 0.00137996 -0.00275071 2.67823e-08 4.27166e-06 
0 0 0 -1.609e-302 1.14575e-19 -2.02913e-12 0 885 67 -1.04475e-306 1.0273e-05 -3.89716 2.35619e-06 0.0005 
0 0 0 1.14785e-37 6.78855e-20 -4.06089e-12 0 885 89 5.97498e-39 1.0273e-05 -3.89716 2.35619e-06 0.0005 
0 0 0 4.76015e-07 2.11148e-12 -4.24042e-12 0 798 410 4.03378e-17 -0.00135845 0.00274876 2.67167e-08 4.26117e-06 
0 0 0 3.18011e-08 -1.00554e-13 2.01942e-13 0 798 41 6.10063e-18 -0.00135942 0.00275071 2.67293e-08 4.26318e-06 
0 2.28298 -61.958 0.274575 14.3421 -20.7843 1 846 127 0.0386462 -0.134806 -0.30461 8.42604e-07 0.000144552 
0 0 0 0.315021 -0.930225 0.010919 0 855 262 -0.00535435 -0.000486693 -0.000848677 1.31204e-08 2.09037e-06 
0 0 0 3.05074e-14 -1.68092e-19 -1.57115e-61 0 861 240 -3.89716 1.0273e-05 5.27652e-63 2.35619e-06 0.0005 
0 0 0 3.05074e-14 -1.68092e-19 -1.57115e-61 0 822 240 3.89716 1.0273e-05 5.27652e-63 2.35619e-06 0.0005 
0 -62.5165 53.1434 -0.0112049 -62.8863 52.4615 1 1857 29 -2.23286 2.93123 -1.36457 2.36387e-06 0.000502448 
0 -63.2828 51.6954 -0.0112049 -62.8863 52.4615 1 1875 29 2.2329 -2.7153 1.62322 2.34849e-06 0.000497555 
0 -86.1042 60.6648 -0.016843 -86.4722 59.9947 1 1862 465 -2.22838 2.94949 -1.31752 2.3619e-06 0.000501818 
0 -79.9429 46.8346 3.62598 -83.9198 47.7528 1 1862 15 -3.16853 4.03349 -1.88003 2.61745e-06 0.000591539 
0 -81.7801 62.356 -0.942112 -80.7788 61.1398 1 1864 414 -2.84136 4.02405 -1.75879 2.68463e-06 0.000618613 
0 -80.8857 60.0709 -8.83855 -70.4633 53.6412 1 1864 35 -1.77592 1.48175 -0.934955 2.2854e-06 0.000477952 
0 -80.8871 60.071 -8.83855 -70.4633 53.6412 1 1863 35 -1.49258 1.68206 -0.980015 2.2854e-06 0.000477953 
0 -82.5505 60.9085 -0.942112 -80.7788 61.1398 1 1881 414 1.87792 -1.53726 1.39558 1.93935e-06 0.000381385 
0 -81.6535 58.623 -8.83855 -70.4633 53.6412 1 1881 35 3.00712 -3.87959 2.2014 2.42394e-06 0.000522049 
0 -86.8705 59.2168 -0.016843 -86.4722 59.9947 1 1881 465 2.22841 -2.70251 1.67318 2.35047e-06 0.000498182 
0 -82.5464 60.908 -0.942112 -80.7788 61.1398 1 1880 414 1.73717 -1.83381 1.04806 1.93937e-06 0.000381389 
0 -80.8565 46.3813 3.62598 -83.9198 47.7528 1 1874 15 -0.626527 0.314231 0.0495173 7.02186e-07 0.000118815 
0 -80.7093 45.3866 3.62598 -83.9198 47.7528 1 1882 15 1.6239 -1.70633 0.800618 2.04228e-06 0.000408458 
0 -80.7179 45.3811 3.62598 -83.9198 47.7528 1 1883 15 1.7571 -1.56837 0.876768 2.04207e-06 0.000408402 
0 -81.6229 44.9333 3.62598 -83.9198 47.7528 1 1890 15 -0.0126712 0.0509679 -0.0421931 1.27024e-07 2.04251e-05 
0 -81.5287 44.9695 3.62598 -83.9198 47.7528 1 1889 15 -0.131848 -0.0518087 0.0530396 4.72547e-07 7.82714e-05 
0 0 0 -23.0508 57.9903 1.84084 0 952 284 -0.0339239 0.0790331 0.0804444 2.15338e-07 3.48804e-05 
0 0 0 -1.77758e-06 -1.33408e-12 8.26025e-13 0 942 94 -2.07385e-17 -0.00260199 0.00161745 2.67029e-08 4.25897e-06 
0 0 0 -13.7983 23.5007 42.3039 0 942 150 -0.0744368 0.388701 -0.322851 6.26509e-07 0.000105251 
0 0 0 -0.454164 20.7669 29.8875 0 943 475 -0.000112481 -0.0156416 0.0192334 1.70446e-09 2.71309e-07 
0 0 0 -1.77758e-06 -1.33408e-12 8.26025e-13 0 771 94 2.14529e-17 0.00262254 -0.00161745 2.68041e-08 4.27515e-06 
0 0 0 1.07994 -1.97468 0.702098 0 918 434 0.00103813 0.0096373 -0.0156191 5.60706e-08 8.96409e-06 
0 0 0 -4.36657e-06 -2.11868e-13 1.93144e-13 0 910 116 -1.69533e-15 0.00227826 -0.00206755 2.67772e-08 4.27085e-06 
0 0 0 3.7101e-53 1.34998e-19 4.05548e-12 0 885 493 -1.82354e-53 1.0273e-05 -3.89716 2.35619e-06 0.0005 
0 0 0 -3.16358e-303 4.49447e-20 -5.07127e-12 0 885 38 1.11912e-307 1.0273e-05 -3.89716 2.35619e-06 0.0005 
0 0 0 -2.61359e-302 9.02297e-20 -3.03947e-12 0 885 227 0 1.0273e-05 -3.89716 2.35619e-06 0.0005 
0 0 0 3.20803e-150 -1.11972e-19 1.01314e-12 0 885 176 2.88903e-151 1.0273e-05 -3.89716 2.35619e-06 0.0005 
0 0 0 1.31443e-16 7.34073e-16 -6.08232e-12 0 885 82 0.0361502 -0.0739004 -3.8946 2.35551e-06 0.000499781 
0 0 0 -1.39554e-200 -3.82511e-23 -5.07136e-12 0 885 315 3.30474e-203 1.0273e-05 -3.89716 2.35619e-06 0.0005 
0 0 0 -1.82104e-16 -6.45526e-16 -6.08243e-12 0 885 87 -0.0389555 0.0796566 -3.89972 2.35688e-06 0.000500219 
0 0 0 2.61082e-247 -7.79923e-20 -3.03941e-12 0 885 166 -3.97698e-248 1.0273e-05 -3.89716 2.35619e-06 0.0005 
0 0 0 1.07231e-200 5.61733e-20 -6.08166e-12 0 885 245 -9.78362e-202 1.0273e-05 -3.89716 2.35619e-06 0.0005 
0 0 0 -1.78477e-13 5.78295e-14 -6.80024e-13 0 885 287 0.0100499 0.030653 -3.8972 2.3562e-06 0.000500003 
0 0 0 3.65673e-13 -1.3699e-13 -6.80059e-13 0 885 31 -0.00704722 -0.0234751 -3.8971 2.35618e-06 0.000499995 
0 0 0 -1.87175e-13 7.91786e-14 -6.79964e-13 0 885 65 -0.00300306 -0.00712894 -3.89719 2.3562e-06 0.000500002 
0 0 0 13.9003 22.6489 -60.3678 0 885 226 -4.55187 -2.16728 12.4751 2.94243e-06 0.000748216 
0 0 0 3.43536e-16 -3.18952e-15 3.4449e-13 0 885 444 0.0368328 0.00881545 -3.89698 2.35615e-06 0.000499984 
0 0 0 -2.42786e-49 -7.85502e-20 1.01312e-12 0 885 6 8.78244e-51 1.0273e-05 -3.89716 2.35619e-06 0.0005 
0 0 0 -7.19652e-16 3.16929e-15 3.44715e-13 0 885 348 0.0625404 -0.0706417 -3.87263 2.34958e-06 0.000497899 
0 0 0 -9.81724e-303 1.01078e-19 -6.08173e-12 0 885 210 -6.92469e-307 1.0273e-05 -3.89716 2.35619e-06 0.0005 
0 0 0 3.56048e-16 6.24907e-17 3.42976e-13 0 885 218 -0.150667 0.0931229 -3.92193 2.36283e-06 0.000502116 
0 0 0 1.95966e-49 -1.6836e-19 4.06075e-12 0 885 222 -2.77961e-50 1.0273e-05 -3.89716 2.35619e-06 0.0005 
0 0 0 4.6543e-244 5.61355e-20 6.0817e-12 0 885 313 -7.4359e-245 1.0273e-05 -3.89716 2.35619e-06 0.0005 
0 0 0 1.36329e-244 -2.24739e-20 6.08169e-12 0 885 125 1.28446e-245 1.0273e-05 -3.89716 2.35619e-06 0.0005 
0 0 0 2.74906e-244 -1.23203e-19 4.05545e-12 0 885 107 -7.41019e-245 1.0273e-05 -3.89716 2.35619e-06 0.0005 
0 0 0 -1.29538e-99 -1.57345e-19 -6.08173e-12 0 885 200 2.00394e-100 1.0273e-05 -3.89716 2.35619e-06 0.0005 
0 0 0 -1.43706e-49 -2.19322e-20 -3.0395e-12 0 885 309 -1.719e-49 1.0273e-05 -3.89716 2.35619e-06 0.0005 
0 0 0 1.29137e-111 1.90825e-19 2.02906e-12 0 885 18 -1.42013e-112 1.0273e-05 -3.89716 2.35619e-06 0.0005 
0 0 0 -1.29383e-17 6.69361e-18 -6.33377e-17 0 885 325 0.000763458 0.000451851 -3.89716 2.35619e-06 0.0005 
0 0 0 0.000685143 0.00170083 -2.52177e-06 0 885 286 -0.100837 0.703452 -3.86226 2.34677e-06 0.00049701 
0 0 0 -0.00397932 -0.00134613 -4.7334e-06 0 885 55 0.341677 -0.654421 -3.90088 2.35719e-06 0.000500318 
0 0 0 1.95966e-49 -1.6836e-19 4.06075e-12 0 851 222 -2.77961e-50 1.0273e-05 3.89716 2.35619e-06 0.0005 
0 0 0 4.6543e-244 5.61355e-20 6.0817e-12 0 851 313 -7.4359e-245 1.0273e-05 3.89716 2.35619e-06 0.0005 
0 0 0 -1.29538e-99 -1.57345e-19 -6.08173e-12 0 851 200 2.00394e-100 1.0273e-05 3.89716 2.35619e-06 0.0005 
0 0 0 -1.43706e-49 -2.19322e-20 -3.0395e-12 0 851 309 -1.719e-49 1.0273e-05 3.89716 2.35619e-06 0.0005 
0 0 0 1.29137e-111 1.90825e-19 2.02906e-12 0 851 18 -1.42013e-112 1.0273e-05 3.89716 2.35619e-06 0.0005 
0 0 0 -1.29383e-17 6.69361e-18 -6.33377e-17 0 851 325 0.000763458 0.000451851 3.89716 2.35619e-06 0.0005 
0 0 0 -0.00397932 -0.00134613 -4.7334e-06 0 851 55 0.329532 -0.658453 3.89345 2.3552e-06 0.000499682 
0 0 0 -1.18637e-06 -2.61614e-13 2.38494e-13 0 802 156 -1.34315e-16 -0.00225862 0.00206837 2.66963e-08 4.25792e-06 
0 0 0 4.33124e-06 4.99758e-13 -1.75646e-12 0 796 26 -8.36921e-17 -0.00083098 0.00295669 2.67464e-08 4.26592e-06 
0 0 0 4.33124e-06 4.99758e-13 -1.75646e-12 0 917 26 7.36464e-17 0.000851526 -0.00295669 2.6779e-08 4.27113e-06 
0 0 0 -1.18637e-06 -2.61614e-13 2.38494e-13 0 911 156 1.44667e-16 0.00227917 -0.00206837 2.67843e-08 4.27198e-06 
0 0 0 -4.36657e-06 -2.11868e-13 1.93144e-13 0 803 116 1.69883e-15 -0.00225772 0.00206755 2.66892e-08 4.25678e-06 
0 0 0 3.7101e-53 1.34998e-19 4.05548e-12 0 850 493 -1.82354e-53 1.0273e-05 3.89716 2.35619e-06 0.0005 
0 0 0 -3.16358e-303 4.49447e-20 -5.07127e-12 0 850 38 -2.96539e-307 1.0273e-05 3.89716 2.35619e-06 0.0005 
0 0 0 -2.61359e-302 9.02297e-20 -3.03947e-12 0 850 227 -1.68299e-307 1.0273e-05 3.89716 2.35619e-06 0.0005 
0 0 0 3.20803e-150 -1.11972e-19 1.01314e-12 0 850 176 2.88903e-151 1.0273e-05 3.89716 2.35619e-06 0.0005 
0 0 0 1.31443e-16 7.34073e-16 -6.08232e-12 0 850 82 0.0389555 -0.079636 3.89972 2.35688e-06 0.000500219 
0 0 0 -1.39554e-200 -3.82511e-23 -5.07136e-12 0 850 315 3.30474e-203 1.0273e-05 3.89716 2.35619e-06 0.0005 
0 0 0 -1.82104e-16 -6.45526e-16 -6.08243e-12 0 850 87 -0.0361502 0.073921 3.8946 2.35551e-06 0.000499781 
0 0 0 2.61082e-247 -7.79923e-20 -3.03941e-12 0 850 166 -3.97698e-248 1.0273e-05 3.89716 2.35619e-06 0.0005 
0 0 0 1.07231e-200 5.61733e-20 -6.08166e-12 0 850 245 -9.78362e-202 1.0273e-05 3.89716 2.35619e-06 0.0005 
0 0 0 -1.78477e-13 5.78295e-14 -6.80024e-13 0 850 287 0.0100214 0.0305661 3.89713 2.35618e-06 0.000499997 
0 0 0 3.65673e-13 -1.3699e-13 -6.80059e-13 0 850 31 -0.00704681 -0.0234932 3.89723 2.35621e-06 0.000500005 
0 0 0 -1.87175e-13 7.91786e-14 -6.79964e-13 0 850 65 -0.00297415 -0.00706022 3.89713 2.35619e-06 0.000499998 
0 0 0 3.43536e-16 -3.18952e-15 3.4449e-13 0 850 444 0.0373913 0.00894897 3.89734 2.35624e-06 0.000500016 
0 0 0 -2.42786e-49 -7.85502e-20 1.01312e-12 0 850 6 8.78244e-51 1.0273e-05 3.89716 2.35619e-06 0.0005 
0 0 0 -7.19652e-16 3.16929e-15 3.44715e-13 0 850 348 0.11378 -0.101919 3.92175 2.36278e-06 0.000502101 
0 0 0 -9.81724e-303 1.01078e-19 -6.08173e-12 0 850 210 5.12606e-307 1.0273e-05 3.89716 2.35619e-06 0.0005 
0 0 0 3.56048e-16 6.24907e-17 3.42976e-13 0 850 218 -0.099878 0.0617352 3.87244 2.34953e-06 0.000497884 
0 0 0 1.36329e-244 -2.24739e-20 6.08169e-12 0 850 125 1.28446e-245 1.0273e-05 3.89716 2.35619e-06 0.0005 
0 0 0 2.74906e-244 -1.23203e-19 4.05545e-12 0 850 107 -7.41019e-245 1.0273e-05 3.89716 2.35619e-06 0.0005 
0 0 0 0.000685143 0.00170083 -2.52177e-06 0 850 286 -0.0296938 0.756524 3.93217 2.36556e-06 0.00050299 
0 -44.7948 -83.0563 -0.018644 -45.4703 -82.7199 1 2717 117 2.76192 -1.45621 -2.33652 2.35559e-06 0.000499806 
0 -31.4585 -78.7697 -0.0190599 -32.1275 -78.4371 1 2713 285 2.75751 -1.44961 -2.36781 2.35941e-06 0.000501025 
0 -32.7084 -78.1081 -0.0190599 -32.1275 -78.4371 1 2694 285 -2.75753 1.12701 2.50017 2.35297e-06 0.000498975 
0 -46.0448 -82.3948 -0.018644 -45.4703 -82.7199 1 2698 117 -2.76192 1.11599 2.52376 2.35679e-06 0.00050019 
0 -47.6554 -75.2615 -11.6548 -42.1948 -65.3659 1 2708 165 -1.76304 1.08617 1.74964 2.38465e-06 0.000509142 
0 -47.6555 -75.2646 -11.6548 -42.1948 -65.3659 1 2707 165 -1.79557 1.19904 1.65414 2.38466e-06 0.000509145 
0 -46.4055 -75.9261 -11.6548 -42.1948 -65.3659 1 2719 165 3.48397 -2.10707 -3.07674 2.3272e-06 0.000490855 
0 -46.4828 -77.139 -11.6548 -42.1948 -65.3659 1 2720 165 0.99476 -0.936704 -1.00837 9.71463e-07 0.000168872 
0 0 0 1.42847e-05 2.35422e-13 3.11758e-13 0 962 185 -0.0285231 0.00105813 0.00148792 1.89219e-08 3.01606e-06 
0 0 0 -1.28086 -0.530354 5.5246 0 895 59 0.223795 0.146849 -0.45912 4.07506e-07 6.71084e-05 
0 0 0 1.42847e-05 2.35422e-13 3.11758e-13 0 752 185 9.37276e-08 -0.00239628 -0.00323018 3.20004e-08 5.10606e-06 
0 0 0 6.49406e-07 -1.39563e-12 -1.27229e-12 0 750 235 -1.96533e-16 -0.00225754 -0.00206739 2.66879e-08 4.25657e-06 
0 0 0 6.49406e-07 -1.39563e-12 -1.27229e-12 0 963 235 1.91515e-16 0.00227809 0.00206739 2.67759e-08 4.27063e-06 
0 0 0 1.42847e-05 2.35422e-13 3.11758e-13 0 961 185 0.000912805 0.0013587 0.00174226 2.14811e-08 3.42469e-06 
0 0 0 6.68735e-08 -1.71929e-13 -6.0427e-13 0 923 9 1.09426e-18 -0.000829863 -0.00295277 2.67227e-08 4.26214e-06 
0 0 0 -2.0182e-06 1.06842e-12 1.41482e-12 0 787 249 1.991e-18 0.00186257 0.00245284 2.67963e-08 4.2739e-06 
0 0 0 -2.0182e-06 1.06842e-12 1.41482e-12 0 926 249 8.323e-18 -0.00184202 -0.00245284 2.67246e-08 4.26244e-06 
0 0 0 6.68735e-08 -1.71929e-13 -6.0427e-13 0 790 9 -9.34794e-19 0.000850409 0.00295277 2.67553e-08 4.26735e-06 
0 -91.5116 41.7029 -0.0205833 -91.8848 41.0286 1 1867 336 -2.24007 2.90309 -1.30291 2.35318e-06 0.000499041 
0 -92.278 40.2549 -0.0205833 -91.8848 41.0286 1 1886 336 2.24006 -2.73408 1.68082 2.35921e-06 0.000500959 
0 -88.3076 45.5695 -0.0192405 -88.6797 44.8952 1 1872 198 -2.23099 2.91668 -1.31239 2.3554e-06 0.000499748 
0 -80.9827 43.4206 -0.0283897 -81.3481 42.7725 1 1872 161 -2.17036 3.02083 -1.32465 2.36752e-06 0.000503619 
0 -81.5482 41.0334 -0.0283897 -81.3481 42.7725 1 1892 161 -0.369211 -0.428233 -0.0527487 7.5235e-07 0.000127922 
0 -89.074 44.1214 -0.0192405 -88.6797 44.8952 1 1891 198 2.23099 -2.73178 1.67711 2.35698e-06 0.000500251 
0 -81.7491 41.9726 -0.0283897 -81.3481 42.7725 1 1891 161 2.53218 -2.41598 1.70503 2.34478e-06 0.000496379 
0 0 0 -10.0052 27.6918 36.0275 0 943 101 0.0470833 -0.0348831 -0.0420193 4.44176e-07 7.33856e-05 
0 0 0 -11.6499 7.87584 42.2281 0 939 277 -0.00745623 0.0153745 -0.00110001 7.58603e-08 1.21473e-05 
0 0 0 34.4728 29.5973 -89.9958 0 890 136 -4.93796 -1.06759 3.29442 1.86058e-06 0.000361439 
0 0 0 -2.90396 -3.40142 3.19581 0 888 39 -0.176285 0.0367442 -0.00667025 5.76859e-07 9.64624e-05 
0 0 0 0.000390563 -0.000742437 2.10714e-05 0 886 296 -0.144787 0.00155178 -0.0961385 3.82592e-07 6.28676e-05 
0 0 0 2.01124e-05 -0.000328023 2.33543e-06 0 885 5 0.529674 0.133691 -4.01962 2.38859e-06 0.00051042 
0 0 0 0.00213225 -0.000924147 -6.05487e-08 0 885 167 -0.0127523 -0.0328819 -3.89709 2.35618e-06 0.000499994 
0 0 0 -2.02555e-61 1.16792e-20 2.02903e-12 0 885 163 2.94333e-62 1.0273e-05 -3.89716 2.35619e-06 0.0005 
0 0 0 1.29599e-17 -6.59177e-18 -6.39146e-17 0 885 488 -0.000763458 -0.000431305 -3.89716 2.35619e-06 0.0005 
0 0 0 3.02588e-198 -1.11641e-19 -3.03944e-12 0 885 318 -4.71309e-200 1.0273e-05 -3.89716 2.35619e-06 0.0005 
0 0 0 -2.78552e-212 1.46878e-19 -2.75135e-15 0 885 63 3.56536e-213 1.0273e-05 -3.89716 2.35619e-06 0.0005 
0 0 0 -0.000500898 0.000410444 -3.85369e-05 0 885 74 -0.25194 -0.00249376 -3.77726 2.32348e-06 0.000489692 
0 0 0 0.00116194 0.000569483 7.30189e-06 0 885 84 -0.28627 -0.0700714 -3.92852 2.36459e-06 0.000502678 
0 0 0 -1.33249e-98 1.20155e-20 3.0395e-12 0 885 358 9.37198e-99 1.0273e-05 -3.89716 2.35619e-06 0.0005 
0 0 0 0.000390563 -0.000742437 2.10714e-05 0 885 296 0.046978 -0.0650521 -3.84789 2.34287e-06 0.000495777 
0 0 0 0.00213225 -0.000924147 -6.05487e-08 0 851 167 -0.012809 -0.0330436 3.89723 2.35621e-06 0.000500006 
0 0 0 -2.02555e-61 1.16792e-20 2.02903e-12 0 851 163 2.94333e-62 1.0273e-05 3.89716 2.35619e-06 0.0005 
0 0 0 1.29599e-17 -6.59177e-18 -6.39146e-17 0 851 488 -0.000763458 -0.000431305 3.89716 2.35619e-06 0.0005 
0 0 0 3.02588e-198 -1.11641e-19 -3.03944e-12 0 851 318 -4.71309e-200 1.0273e-05 3.89716 2.35619e-06 0.0005 
0 0 0 0.00116194 0.000569483 7.30189e-06 0 851 84 -0.228847 -0.0110224 3.86589 2.34776e-06 0.000497322 
0 0 0 -1.33249e-98 1.20155e-20 3.0395e-12 0 851 358 9.37198e-99 1.0273e-05 3.89716 2.35619e-06 0.0005 
0 0 0 0.000390563 -0.000742437 2.10714e-05 0 851 296 0.0499529 -0.0679402 3.94664 2.36941e-06 0.000504223 
0 0 0 2.01124e-05 -0.000328023 2.33543e-06 0 850 5 0.276344 0.0695665 3.77597 2.32312e-06 0.00048958 
0 0 0 -2.78552e-212 1.46878e-19 -2.75135e-15 0 850 63 3.56536e-213 1.0273e-05 3.89716 2.35619e-06 0.0005 
0 0 0 -0.000500898 0.000410444 -3.85369e-05 0 850 74 -0.506229 -0.0693208 4.0183 2.38825e-06 0.000510308 
0 0 0 -0.0119623 0.00279317 -0.00453742 0 966 256 0.00223917 0.00550781 0.00110265 3.83855e-08 6.12801e-06 
0 0 0 0.00312867 -0.00654708 0.010845 0 966 133 -0.00195137 0.0120338 0.00922181 7.69091e-08 1.23163e-05 
0 0 0 -7.97575e-07 1.40891e-12 1.28439e-12 0 963 269 4.85627e-16 0.00227888 0.00206811 2.67821e-08 4.27162e-06 
0 0 0 -7.97575e-07 1.40891e-12 1.28439e-12 0 751 269 -4.9559e-16 -0.00225833 -0.00206811 2.66941e-08 4.25756e-06 
0 0 0 -0.0119623 0.00279317 -0.00453742 0 737 256 0.00196765 -0.00364121 -0.00416879 3.82264e-08 6.10254e-06 
0 0 0 0.00312867 -0.00654708 0.010845 0 737 133 -0.00206487 -0.013776 -0.00629378 7.69016e-08 1.23151e-05 
0 0 0 4.15602 -10.6336 -7.6629 0 403 362 0.0453475 0.0033371 0.278809 1.44658e-07 2.32943e-05 
0 0 0 -11.4968 -6.80648 41.2453 0 383 283 -0.0624036 0.0763102 0.0155195 4.08536e-09 6.50416e-07 
0 0 0 -1.99443 -13.0177 7.52634 0 371 42 -0.00625792 0.0424845 0.0704962 2.52792e-07 4.10768e-05 
0 0 0 2.29699 11.6362 17.4323 0 391 115 -0.00956364 0.126227 -0.106284 3.00188e-07 4.89756e-05 
0 0 0 3.29723 6.05926 13.9116 0 389 43 0.0221628 0.0995728 -0.0554295 2.27899e-07 3.69541e-05 
0 0 0 -0.552299 -16.4559 29.7302 0 378 356 -0.00230741 -0.0273454 0.00842508 1.46208e-07 2.35469e-05 
0 0 0 7.99712 -15.9173 -10.3748 0 433 403 -0.00634567 -0.0629231 0.124842 2.40353e-07 3.90144e-05 
0 0 0 -1.36344 2.22813 19.8699 0 536 413 0.0126276 -0.0784809 -0.041411 1.13444e-07 1.82211e-05 
0 0 0 1.69713 -26.9724 -19.1535 0 585 95 -0.00689004 -0.0821687 0.130972 1.17567e-07 1.88898e-05 
0 0 0 6.94505 19.0997 4.0394 0 552 234 0.00159024 1.34666e-05 0.00499143 1.12217e-07 1.80223e-05 
