ITEM: TIMESTEP
400000
ITEM: NUMBER OF ENTRIES
135
ITEM: BOX BOUNDS ff ff ff
-0.01 0.45
-0.15 0.15
-0.08 0.1
ITEM: ENTRIES c_pwc[1] c_pwc[2] c_pwc[3] c_pwc[4] c_pwc[5] c_pwc[6] c_pwc[7] c_pwc[8] c_pwc[9] c_pwc[10] c_pwc[11] c_pwc[12] c_pwc[13] c_pwc[14] 
0 0 0 -9.65066e-08 2.099e-12 4.21537e-12 0 924 52 -5.90979e-18 -0.00135859 -0.00274904 2.67185e-08 4.26146e-06 
0 0 0 2.49405e-07 -4.17854e-13 -4.50938e-12 0 920 79 8.72351e-18 -0.000273186 -0.00305901 2.6746e-08 4.26586e-06 
0 0 0 2.49405e-07 -4.17854e-13 -4.50938e-12 0 792 79 -8.72073e-18 0.000293732 0.00305901 2.6757e-08 4.26762e-06 
0 0 0 -9.65066e-08 2.099e-12 4.21537e-12 0 788 52 5.58901e-18 0.00137913 0.00274904 2.67715e-08 4.26994e-06 
0 0 0 -9.62021e-07 6.87852e-12 -6.2706e-12 0 944 3 3.75977e-16 -0.0022588 0.00206854 2.66978e-08 4.25815e-06 
0 0 0 -9.62021e-07 6.87852e-12 -6.2706e-12 0 768 3 -3.65674e-16 0.00227935 -0.00206854 2.67857e-08 4.27221e-06 
0 0 0 3.94369e-303 1.35138e-19 -4.06075e-12 0 884 323 5.63327e-308 1.0273e-05 -3.89716 2.35619e-06 0.0005 
0 0 0 1.85658 1.6379 0.936541 0 884 266 -0.0114267 -0.000768025 0.0755952 2.96768e-07 4.84036e-05 
0 0 0 3.94369e-303 1.35138e-19 -4.06075e-12 0 850 323 -2.40262e-307 1.0273e-05 3.89716 2.35619e-06 0.0005 
0 0 0 1.34074e-302 -7.97717e-23 -6.08165e-12 0 850 67 3.65292e-307 1.0273e-05 3.89716 2.35619e-06 0.0005 
0 0 0 9.92297e-303 -8.98145e-20 6.08169e-12 0 850 89 -2.4001e-308 1.0273e-05 3.89716 2.35619e-06 0.0005 
0 0 0 3.29301e-19 -1.62023e-12 3.25386e-12 0 914 41 3.94682e-29 0.00137996 -0.00275071 2.67823e-08 4.27167e-06 
0 0 0 1.34074e-302 -7.97717e-23 -6.08165e-12 0 885 67 -1.80585e-307 1.0273e-05 -3.89716 2.35619e-06 0.0005 
0 0 0 9.92297e-303 -8.98145e-20 6.08169e-12 0 885 89 1.92046e-307 1.0273e-05 -3.89716 2.35619e-06 0.0005 
0 0 0 3.29301e-19 -1.62023e-12 3.25386e-12 0 798 41 -3.83387e-29 -0.00135942 0.00275071 2.67293e-08 4.26319e-06 
0 0 0 -6.38611e-14 -1.90449e-19 3.10057e-303 0 861 240 -3.89716 1.0273e-05 -4.40668e-307 2.35619e-06 0.0005 
0 0 0 -6.38611e-14 -1.90449e-19 3.10057e-303 0 822 240 3.89716 1.0273e-05 6.21785e-307 2.35619e-06 0.0005 
0 -29.8228 80.4998 -0.0121633 -30.4857 80.1006 1 1857 29 -2.23295 1.84287 -2.65511 2.3635e-06 0.000502331 
0 -31.2169 79.6392 -0.0121633 -30.4857 80.1006 1 1875 29 2.23298 -1.51327 2.78042 2.34887e-06 0.000497673 
0 -39.6438 90.7767 1.37283 -41.3472 92.0392 1 1864 35 -3.32167 2.71961 -3.93918 2.72988e-06 0.00063799 
0 -46.3768 83.8211 0.0386062 -46.9665 83.4245 1 1862 15 -0.822389 1.45987 -3.29301 2.21229e-06 0.000456118 
0 -41.0381 89.9163 1.37283 -41.3472 92.0392 1 1881 35 1.27961 -0.7904 1.6494 1.86287e-06 0.000362011 
0 -41.0378 89.9161 1.37283 -41.3472 92.0392 1 1880 35 1.28262 -0.952653 1.54681 1.86287e-06 0.000362011 
0 -46.3769 83.8211 0.0386062 -46.9665 83.4245 1 1861 15 -1.69607 1.36246 -2.63462 2.21229e-06 0.000456118 
0 -47.2156 83.8802 0.0386062 -46.9665 83.4245 1 1874 15 -0.579714 0.387332 0.320679 9.10521e-07 0.000157283 
0 -47.771 82.9605 0.0386062 -46.9665 83.4245 1 1883 15 2.71738 -1.55467 3.14723 2.488e-06 0.000543879 
0 -48.5268 83.006 0.0386062 -46.9665 83.4245 1 1889 15 0.262147 -0.70718 1.44773 1.42347e-06 0.000260477 
0 -48.6097 83.0196 0.0386062 -46.9665 83.4245 1 1890 15 0.117156 -0.546492 1.05467 1.18623e-06 0.000211071 
0 -48.8602 83.0701 0.0386062 -46.9665 83.4245 1 1891 15 0.00324223 -0.0590898 0.146307 3.36298e-07 5.50381e-05 
0 0 0 14.4085 28.2135 3.88724 0 952 322 0.0183329 0.00160275 -0.264969 4.21655e-07 6.95253e-05 
0 0 0 -1.77758e-06 -1.33408e-12 8.26025e-13 0 942 94 2.28014e-16 -0.00260199 0.00161745 2.67029e-08 4.25897e-06 
0 0 0 -1.77758e-06 -1.33408e-12 8.26025e-13 0 771 94 -2.27772e-16 0.00262254 -0.00161745 2.68041e-08 4.27515e-06 
0 0 0 -4.40135e-06 -1.24681e-12 1.13662e-12 0 910 116 -1.14365e-15 0.00227824 -0.00206753 2.67771e-08 4.27082e-06 
0 0 0 1.59289e-62 4.49447e-20 -5.07127e-12 0 885 38 4.83008e-64 1.0273e-05 -3.89716 2.35619e-06 0.0005 
0 0 0 -6.38664e-303 1.91332e-19 -3.03945e-12 0 885 227 4.76195e-307 1.0273e-05 -3.89716 2.35619e-06 0.0005 
0 0 0 1.28136e-103 -1.72452e-19 -2.02909e-12 0 885 176 5.14515e-105 1.0273e-05 -3.89716 2.35619e-06 0.0005 
0 0 0 8.27773e-16 1.65641e-15 -5.07228e-12 0 885 87 -0.0581196 0.132342 -3.89016 2.35431e-06 0.000499401 
0 0 0 -8.34875e-16 -1.65304e-15 -5.0721e-12 0 885 82 0.064898 -0.147755 -3.90417 2.35808e-06 0.000500599 
0 0 0 8.78733e-92 -1.22852e-19 -3.03942e-12 0 885 315 -6.99948e-93 1.0273e-05 -3.89716 2.35619e-06 0.0005 
0 0 0 -1.90448e-302 1.9855e-19 -3.03944e-12 0 885 166 -1.27233e-306 1.0273e-05 -3.89716 2.35619e-06 0.0005 
0 0 0 -8.56628e-47 4.47138e-20 5.0713e-12 0 885 245 5.29283e-48 1.0273e-05 -3.89716 2.35619e-06 0.0005 
0 0 0 -7.27263e-06 -0.00163606 0.000665248 0 885 287 -0.0014875 0.0124262 -3.89711 2.35617e-06 0.000499991 
0 0 0 -0.00513652 0.000192431 0.00483541 0 885 31 0.00160499 -0.00409272 -3.89681 2.356e-06 0.000499937 
0 0 0 -0.000113689 -0.00135667 0.000347763 0 885 65 0.0101999 -0.0123056 -3.8956 2.35577e-06 0.000499864 
0 0 0 -1.67964e-05 -0.000410378 8.83029e-05 0 885 6 -0.0137179 0.00520934 -3.89875 2.35662e-06 0.000500135 
0 0 0 -4.27348e-07 -5.21592e-07 -1.13398e-10 0 885 348 0.118543 -0.0728136 -3.89447 2.35547e-06 0.00049977 
0 0 0 -9.61514e-303 7.79654e-20 -2.61018e-15 0 885 210 0 1.0273e-05 -3.89716 2.35619e-06 0.0005 
0 0 0 -1.44293e-07 9.15856e-07 -3.42049e-12 0 885 218 -0.119351 0.0821612 -3.8996 2.35685e-06 0.000500208 
0 0 0 -1.71453e-106 -8.91458e-20 -1.01318e-12 0 885 107 4.09775e-108 1.0273e-05 -3.89716 2.35619e-06 0.0005 
0 0 0 3.28569e-140 6.716e-20 -6.0817e-12 0 885 222 5.45334e-141 1.0273e-05 -3.89716 2.35619e-06 0.0005 
0 0 0 5.71641e-07 -3.94264e-07 1.16631e-10 0 885 125 -0.00515319 -0.00643066 -3.89742 2.35626e-06 0.000500022 
0 0 0 -2.67006e-203 -7.84866e-20 6.08173e-12 0 885 200 -2.20465e-204 1.0273e-05 -3.89716 2.35619e-06 0.0005 
0 0 0 -9.65493e-135 1.45989e-19 -6.08168e-12 0 885 18 1.00332e-135 1.0273e-05 -3.89716 2.35619e-06 0.0005 
0 0 0 -1.94176e-200 1.01174e-19 6.08168e-12 0 885 325 -9.19236e-201 1.0273e-05 -3.89716 2.35619e-06 0.0005 
0 0 0 8.79903e-17 4.01476e-16 3.17727e-12 0 885 286 0.10483 0.0804378 -3.88834 2.35382e-06 0.000499246 
0 0 0 3.28569e-140 6.716e-20 -6.0817e-12 0 851 222 5.45334e-141 1.0273e-05 3.89716 2.35619e-06 0.0005 
0 0 0 -2.67006e-203 -7.84866e-20 6.08173e-12 0 851 200 -2.20465e-204 1.0273e-05 3.89716 2.35619e-06 0.0005 
0 0 0 -9.65493e-135 1.45989e-19 -6.08168e-12 0 851 18 1.00332e-135 1.0273e-05 3.89716 2.35619e-06 0.0005 
0 0 0 -1.94176e-200 1.01174e-19 6.08168e-12 0 851 325 -9.19236e-201 1.0273e-05 3.89716 2.35619e-06 0.0005 
0 0 0 -1.18637e-06 -2.61614e-13 2.38494e-13 0 802 156 -7.4313e-16 -0.00225862 0.00206837 2.66963e-08 4.25792e-06 
0 0 0 4.33124e-06 4.99758e-13 -1.75646e-12 0 796 26 2.61606e-16 -0.00083098 0.00295669 2.67464e-08 4.26592e-06 
0 0 0 4.33124e-06 4.99758e-13 -1.75646e-12 0 917 26 -2.71862e-16 0.000851526 -0.00295669 2.6779e-08 4.27113e-06 
0 0 0 -1.18637e-06 -2.61614e-13 2.38494e-13 0 911 156 7.53207e-16 0.00227917 -0.00206837 2.67843e-08 4.27198e-06 
0 0 0 -4.40135e-06 -1.24681e-12 1.13662e-12 0 803 116 1.18361e-15 -0.0022577 0.00206753 2.66891e-08 4.25676e-06 
0 0 0 1.59289e-62 4.49447e-20 -5.07127e-12 0 850 38 4.83008e-64 1.0273e-05 3.89716 2.35619e-06 0.0005 
0 0 0 -6.38664e-303 1.91332e-19 -3.03945e-12 0 850 227 -2.94939e-307 1.0273e-05 3.89716 2.35619e-06 0.0005 
0 0 0 1.28136e-103 -1.72452e-19 -2.02909e-12 0 850 176 5.14515e-105 1.0273e-05 3.89716 2.35619e-06 0.0005 
0 0 0 8.27773e-16 1.65641e-15 -5.07228e-12 0 850 87 -0.064898 0.147775 3.90417 2.35808e-06 0.000500599 
0 0 0 -8.34875e-16 -1.65304e-15 -5.0721e-12 0 850 82 0.0581196 -0.132321 3.89016 2.35431e-06 0.000499401 
0 0 0 8.78733e-92 -1.22852e-19 -3.03942e-12 0 850 315 -6.99948e-93 1.0273e-05 3.89716 2.35619e-06 0.0005 
0 0 0 -1.90448e-302 1.9855e-19 -3.03944e-12 0 850 166 1.4573e-306 1.0273e-05 3.89716 2.35619e-06 0.0005 
0 0 0 -8.56628e-47 4.47138e-20 5.0713e-12 0 850 245 5.29283e-48 1.0273e-05 3.89716 2.35619e-06 0.0005 
0 0 0 -7.27263e-06 -0.00163606 0.000665248 0 850 287 -0.00149489 0.0124113 3.89721 2.35622e-06 0.000500009 
0 0 0 -0.00513652 0.000192431 0.00483541 0 850 31 0.00164108 -0.00407972 3.89751 2.35639e-06 0.000500063 
0 0 0 -0.000113689 -0.00135667 0.000347763 0 850 65 0.0142725 -0.0130962 3.89872 2.35662e-06 0.000500136 
0 0 0 -1.67964e-05 -0.000410378 8.83029e-05 0 850 6 -0.00965023 0.00441198 3.89558 2.35577e-06 0.000499865 
0 0 0 -4.27348e-07 -5.21592e-07 -1.13398e-10 0 850 348 0.12409 -0.0762211 3.89985 2.35692e-06 0.00050023 
0 0 0 -9.61514e-303 7.79654e-20 -2.61018e-15 0 850 210 -1.70014e-307 1.0273e-05 3.89716 2.35619e-06 0.0005 
0 0 0 -1.44293e-07 9.15856e-07 -3.42049e-12 0 850 218 -0.113393 0.0792753 3.89473 2.35554e-06 0.000499792 
0 0 0 -1.71453e-106 -8.91458e-20 -1.01318e-12 0 850 107 4.09775e-108 1.0273e-05 3.89716 2.35619e-06 0.0005 
0 0 0 5.71641e-07 -3.94264e-07 1.16631e-10 0 850 125 -0.00473616 -0.00590948 3.89691 2.35613e-06 0.000499978 
0 0 0 8.79903e-17 4.01476e-16 3.17727e-12 0 850 286 0.121111 0.0929258 3.90599 2.35856e-06 0.000500754 
0 -83.9383 -52.9487 -0.0200555 -84.3527 -52.3156 1 2717 117 2.74977 -2.45746 -1.2771 2.35625e-06 0.000500018 
0 -69.569 -55.8905 -0.0204009 -69.9796 -55.2644 1 2713 285 2.75591 -2.4584 -1.30332 2.36018e-06 0.00050127 
0 -70.3119 -54.6872 -0.0204009 -69.9796 -55.2644 1 2695 285 -2.75593 2.23122 1.59135 2.3522e-06 0.000498731 
0 -84.6812 -51.7454 -0.0200555 -84.3527 -52.3156 1 2698 117 -2.74977 2.24242 1.62425 2.35613e-06 0.000499981 
0 -82.1823 -40.0467 -10.318 -72.8618 -35.1603 1 2708 165 -1.97052 2.17811 1.03355 2.45674e-06 0.000533099 
0 -82.1891 -40.0576 -10.318 -72.8618 -35.1603 1 2707 165 -2.16159 1.93135 1.08611 2.45689e-06 0.000533152 
0 -81.4462 -41.261 -10.318 -72.8618 -35.1603 1 2719 165 3.32225 -2.88604 -1.58421 2.2486e-06 0.000466849 
0 -82.0371 -42.1348 -10.318 -72.8618 -35.1603 1 2720 165 1.00925 -1.6744 -0.309459 1.22733e-06 0.000219406 
0 0 0 1.47688e-05 2.35423e-13 3.11757e-13 0 962 185 -0.0294588 0.00105813 0.00148792 1.89219e-08 3.01606e-06 
0 0 0 1.47688e-05 2.35423e-13 3.11757e-13 0 752 185 9.37276e-08 -0.00239628 -0.00323018 3.20004e-08 5.10606e-06 
0 0 0 6.49406e-07 -1.39563e-12 -1.27229e-12 0 750 235 1.52265e-16 -0.00225754 -0.00206739 2.66879e-08 4.25657e-06 
0 0 0 6.49406e-07 -1.39563e-12 -1.27229e-12 0 963 235 -1.47258e-16 0.00227809 0.00206739 2.67759e-08 4.27063e-06 
0 0 0 1.47688e-05 2.35423e-13 3.11757e-13 0 961 185 0.000912805 0.0013587 0.00174226 2.14811e-08 3.42469e-06 
0 0 0 9.92132 -59.6461 31.9855 0 925 388 0.116647 0.274311 0.436234 8.66191e-07 0.000148952 
0 0 0 6.68735e-08 -1.71929e-13 -6.0427e-13 0 923 9 -4.23538e-18 -0.000829863 -0.00295277 2.67227e-08 4.26214e-06 
0 0 0 10.4268 -46.1525 20.8052 0 923 188 0.210982 -0.176137 0.283196 8.91139e-07 0.00015363 
0 0 0 -8.75529 -37.3732 6.59174 0 922 33 -0.0382561 0.0886755 0.282083 3.02988e-07 4.94445e-05 
0 0 0 6.68735e-08 -1.71929e-13 -6.0427e-13 0 790 9 4.39144e-18 0.000850409 0.00295277 2.67553e-08 4.26735e-06 
0 -61.7672 85.9093 -0.0219089 -62.429 85.5188 1 1867 336 -2.23288 1.85369 -2.58971 2.35251e-06 0.000498829 
0 -63.1613 85.0488 -0.0219089 -62.429 85.5188 1 1886 336 2.23286 -1.50172 2.84633 2.35987e-06 0.000501173 
0 0 0 -2.19404e-06 1.84267e-05 -3.965e-09 0 885 5 0.680261 0.169147 -4.11968 2.41431e-06 0.000518856 
0 0 0 -1.53095e-302 -4.50532e-20 6.08168e-12 0 885 167 1.50304e-306 1.0273e-05 -3.89716 2.35619e-06 0.0005 
0 0 0 9.52715e-51 -1.01258e-19 -5.07132e-12 0 885 163 -9.53129e-52 1.0273e-05 -3.89716 2.35619e-06 0.0005 
0 0 0 -9.15525e-303 -1.01032e-19 -5.07131e-12 0 885 318 -6.86114e-308 1.0273e-05 -3.89716 2.35619e-06 0.0005 
0 0 0 1.0062e-18 -2.65248e-19 1.0131e-12 0 885 63 -1.94698e-19 1.0273e-05 -3.89716 2.35619e-06 0.0005 
0 0 0 1.66769e-05 -2.0776e-05 -1.191e-08 0 885 74 -0.220769 -0.0196485 -3.63874 2.28439e-06 0.000477644 
0 0 0 -7.68313e-16 -2.49942e-16 3.177e-12 0 885 84 -0.169839 -0.130241 -3.95635 2.37198e-06 0.00050505 
0 0 0 -8.06972e-104 -1.81274e-19 -2.02913e-12 0 885 358 -6.50972e-106 1.0273e-05 -3.89716 2.35619e-06 0.0005 
0 0 0 -1.44825e-05 2.34902e-06 1.58621e-08 0 885 296 -0.0443297 -0.133726 -3.93814 2.36715e-06 0.000503499 
0 0 0 -1.53095e-302 -4.50532e-20 6.08168e-12 0 851 167 -1.68393e-306 1.0273e-05 3.89716 2.35619e-06 0.0005 
0 0 0 9.52715e-51 -1.01258e-19 -5.07132e-12 0 851 163 -9.53129e-52 1.0273e-05 3.89716 2.35619e-06 0.0005 
0 0 0 -9.15525e-303 -1.01032e-19 -5.07131e-12 0 851 318 2.54279e-307 1.0273e-05 3.89716 2.35619e-06 0.0005 
0 0 0 -7.68313e-16 -2.49942e-16 3.177e-12 0 851 84 -0.0558876 -0.0428369 3.83827 2.34025e-06 0.00049495 
0 0 0 -8.06972e-104 -1.81274e-19 -2.02913e-12 0 851 358 -6.50972e-106 1.0273e-05 3.89716 2.35619e-06 0.0005 
0 0 0 -1.44825e-05 2.34902e-06 1.58621e-08 0 851 296 -0.0130991 -0.0394854 3.85633 2.34516e-06 0.000496501 
0 0 0 -2.19404e-06 1.84267e-05 -3.965e-09 0 850 5 0.234575 0.0583409 3.6788 2.29584e-06 0.000481144 
0 0 0 1.0062e-18 -2.65248e-19 1.0131e-12 0 850 63 -1.94698e-19 1.0273e-05 3.89716 2.35619e-06 0.0005 
0 0 0 1.66769e-05 -2.0776e-05 -1.191e-08 0 850 74 -0.636638 -0.0345657 4.16143 2.42486e-06 0.000522356 
0 0 0 0.00359233 -0.00754691 0.0125279 0 966 133 -7.86263e-05 0.0109711 0.0110034 7.69426e-08 1.23217e-05 
0 0 0 -0.0302881 -0.00701113 0.011827 0 965 256 0.00018121 0.00860034 0.000623971 4.90369e-08 7.83516e-06 
0 0 0 -3.18007 -7.26117 1.66604 0 963 220 0.0303694 0.21163 -0.0951646 9.6572e-08 1.54899e-05 
0 0 0 -7.97575e-07 1.40891e-12 1.28439e-12 0 963 269 3.45654e-16 0.00227888 0.00206811 2.67821e-08 4.27162e-06 
0 0 0 -7.97575e-07 1.40891e-12 1.28439e-12 0 751 269 -3.35508e-16 -0.00225833 -0.00206811 2.66941e-08 4.25756e-06 
0 0 0 -0.0302881 -0.00701113 0.011827 0 737 256 8.526e-05 -0.00460875 -0.00724304 4.91981e-08 7.86101e-06 
0 0 0 0.00359233 -0.00754691 0.0125279 0 737 133 -0.00018001 -0.0148257 -0.00453941 7.68462e-08 1.23062e-05 
0 0 0 0.984947 9.91635 12.7764 0 391 17 -0.00212143 0.0667317 -0.0518116 2.68742e-07 4.37277e-05 
0 0 0 -4.16361 -11.7574 -8.50657 0 431 43 -0.00170722 0.00539577 -0.0143418 4.50261e-08 7.19199e-06 
0 0 0 0.21671 18.2854 -10.5899 0 409 297 -0.00542249 -0.0947095 -0.12706 2.58853e-07 4.20832e-05 
0 0 0 2.39421 12.9435 -8.89368 0 409 278 -0.000592161 -0.057389 -0.0777577 2.70504e-07 4.4021e-05 
0 0 0 -3.75038 -24.1703 -9.50766 0 435 374 -0.0656901 -0.0438229 0.210024 3.76302e-07 6.17999e-05 
0 0 0 -2.25063 19.4426 -10.2131 0 409 42 -0.0703196 -0.0544354 -0.0894055 1.00051e-07 1.60524e-05 
0 0 0 0.235389 13.3584 -8.25778 0 410 151 -0.0223404 -0.0699345 -0.0932164 2.48096e-07 4.02977e-05 
0 0 0 -0.436201 11.4459 12.2193 0 543 96 0.00120103 0.00493183 -0.0011655 2.43826e-07 3.95898e-05 
