ITEM: TIMESTEP
44650000
ITEM: NUMBER OF ATOMS
20890
ITEM: BOX BOUNDS ff ff ff
-0.01 0.45
-0.15 0.15
-0.08 0.1
ITEM: ATOMS id type x y z ix iy iz vx vy vz fx fy fz c_cc_1 c_cc_2 c_cc_3 c_cc_4 c_cc_5 c_cc_6 c_cc_7 c_cc_8 c_cc_9 c_cc_10 c_cc_11 c_cc_12 c_cc_13 c_cc_14 c_cc_15 c_cc_16 f_fppacc radius 
5360 1 0.00460956 -0.0101848 -0.0600562 0 0 0 4.49764e-07 -1.77239e-13 -1.91271e-12 1.8657e-20 0 0 0 0 0 0 0 0 0 0 0 0 0 0 0 0 0 0 356 0.001 
15490 4 0.00109752 -0.00982481 -0.0600896 0 0 0 8.04578e-08 -1.58128e-06 -9.97774e-06 -2.80888e-12 -9.42279e-11 -3.18151e-10 0 0 0 2 0 0 0 0 0 0 0 0 0 0 0 0 355 0.001 
4335 5 0.00290941 -0.00899206 -0.0601668 0 0 0 -4.9987e-08 -2.1919e-08 -4.30551e-07 -5.24292e-12 -2.35328e-12 -1.36217e-11 0 0 0 1 0 0 0 0 0 0 0 0 0 0 0 0 818 0.001 
4733 4 0.00828491 -0.00933295 -0.0601352 0 0 0 9.25492e-07 1.93815e-14 2.09152e-13 -2.60977e-20 0 0 0 0 0 0 0 0 0 0 0 0 0 0 0 0 0 0 427 0.001 
23591 4 0.0113099 -0.00885229 -0.0601797 0 0 0 1.66382e-06 -3.9773e-13 -4.2922e-12 -4.49308e-20 0 0 0 0 0 0 0 0 0 0 0 0 0 0 0 0 0 0 145 0.001 
24492 7 0.00627861 -0.00850383 -0.060212 0 0 0 -1.26693e-06 -2.79153e-15 -3.01136e-14 -1.28289e-18 0 0 0 0 0 0 0 0 0 0 0 0 0 0 0 0 0 0 79 0.001 
8809 9 0.00121709 -0.00701931 -0.0603496 0 0 0 5.20404e-08 -3.38698e-13 -3.65515e-12 7.98411e-20 0 0 0 0 0 0 0 0 0 0 0 0 0 0 0 0 0 0 59 0.001 
3240 4 0.00412964 -0.00736851 -0.0603172 0 0 0 -1.11335e-07 -3.42078e-13 -3.69162e-12 1.62623e-19 0 0 0 0 0 0 0 0 0 0 0 0 0 0 0 0 0 0 840 0.001 
28329 3 0.00895697 -0.00698647 -0.0603526 0 0 0 -4.51646e-08 -4.71002e-13 -5.08292e-12 -8.63436e-22 0 0 0 0 0 0 0 0 0 0 0 0 0 0 0 0 0 0 141 0.001 
6944 2 0.000995699 -0.00503727 -0.0605332 0 0 0 1.23361e-05 -2.48008e-05 2.24945e-06 -1.58874e-07 3.27433e-07 -2.98412e-08 0 0 0 0 0 0 0 0 0 0 0 0 0 0 0 0 22 0.001 
12748 2 0.00282759 -0.00582474 -0.0604603 0 0 0 4.08348e-06 -3.50705e-08 -6.57128e-09 -5.42009e-08 6.03292e-10 1.65228e-11 0 0 0 0 0 0 0 0 0 0 0 0 0 0 0 0 152 0.001 
18855 3 0.00484042 -0.0054841 -0.0604918 0 0 0 7.4808e-06 1.32931e-05 -1.22367e-06 -9.09085e-08 -1.6061e-07 1.48385e-08 0 0 2 0 0 0 0 0 0 0 0 0 0 0 0 0 157 0.001 
30990 3 0.00684 -0.00552801 -0.0604878 0 0 0 1.10639e-07 -4.33939e-13 -4.68297e-12 2.98168e-21 0 0 0 0 0 0 0 0 0 0 0 0 0 0 0 0 0 0 73 0.001 
11712 6 0.00355589 -0.00396502 -0.0606327 0 0 0 -2.92772e-05 -3.78551e-05 3.44421e-06 3.57264e-07 4.60306e-07 -4.20198e-08 0 0 1 0 0 1 0 0 0 0 0 0 0 0 0 0 351 0.001 
33475 6 0.00895572 -0.00492398 -0.0605437 0 0 0 8.28446e-08 3.10831e-13 3.35441e-12 2.48134e-21 0 0 0 0 0 0 0 0 0 0 0 0 0 0 0 0 0 0 19 0.001 
537 2 0.00171826 -0.00318601 -0.0607043 0 0 0 1.04164e-06 1.78532e-05 -1.49103e-06 6.54177e-09 -2.00658e-07 1.84328e-08 0 2 0 0 0 1 0 0 0 0 0 0 0 0 0 0 302 0.001 
20146 1 0.00562846 -0.00365737 -0.0606611 0 0 0 1.13658e-05 -2.33853e-06 2.18576e-07 -1.38478e-07 2.74182e-08 -2.56535e-09 0 0 1 0 0 0 0 0 0 0 0 0 0 0 0 0 245 0.001 
3870 5 0.00774704 -0.00286153 -0.0607348 0 0 0 4.90135e-07 -1.4873e-13 -1.60506e-12 -1.15366e-20 0 0 0 0 0 0 0 0 0 0 0 0 0 0 0 0 0 0 860 0.001 
29577 4 0.018269 -0.0032848 -0.0606956 0 0 0 1.60733e-07 1.69397e-13 1.8281e-12 3.2591e-21 0 0 0 0 0 0 0 0 0 0 0 0 0 0 0 0 0 0 244 0.001 
6205 5 0.000996945 -0.00133751 -0.0608764 0 0 0 2.62393e-06 -4.10008e-05 -4.50613e-08 -7.76983e-08 5.86528e-07 1.42616e-09 0 1 0 0 1 0 0 0 0 0 0 0 0 0 0 0 386 0.001 
2795 1 0.00300814 -0.00167014 -0.0608454 0 0 0 4.57671e-06 -5.59359e-07 -2.62131e-08 -5.53466e-08 1.14803e-08 -4.24393e-10 0 1 0 0 0 0 0 0 0 0 0 0 0 0 0 0 356 0.001 
25024 2 0.00507749 -0.00161376 -0.0608505 0 0 0 -1.4859e-07 -1.6624e-13 -1.79401e-12 -7.86953e-22 0 0 0 0 0 0 0 0 0 0 0 0 0 0 0 0 0 0 207 0.001 
36746 2 0.016405 -0.00236515 -0.0607903 0 0 0 -0.0104877 0.125651 -0.0456493 0 -2.0546e-05 0 0 0 0 0 0 0 0 0 0 0 0 0 0 0 0 0 137 0.001 
7985 5 0.00100564 -0.0150766 -0.0588608 0 0 0 -1.11981e-07 -1.74802e-13 -6.14366e-13 3.21455e-19 0 0 0 0 0 0 0 0 0 0 0 0 0 0 0 0 0 0 372 0.001 
2652 4 0.00266546 -0.0138037 -0.059223 0 0 0 8.05277e-08 2.22138e-14 7.80748e-14 -1.59898e-19 0 0 0 0 0 0 0 0 0 0 0 0 0 0 0 0 0 0 133 0.001 
25575 7 0.00610267 -0.0144642 -0.0590351 0 0 0 -1.74762e-07 -5.73856e-08 1.65215e-08 -8.72105e-17 -2.13721e-14 6.39853e-15 0 0 0 0 0 0 2 0 0 0 0 0 0 0 0 0 431 0.001 
9939 2 0.0101445 -0.0146941 -0.0589697 0 0 0 -1.07384e-07 6.5846e-14 2.31427e-13 7.66339e-21 0 0 0 0 0 0 0 0 0 0 0 0 0 0 0 0 0 0 953 0.001 
38015 6 0.0122502 -0.0149747 -0.0588898 0 0 0 -2.75631e-07 -1.51266e-13 -5.3165e-13 -3.55892e-20 0 0 0 0 0 0 0 0 0 0 0 0 0 0 0 0 0 0 9 0.001 
3062 1 0.00467406 -0.0131244 -0.0594163 0 0 0 2.10019e-07 3.00332e-08 -8.5279e-09 -1.5078e-15 1.33389e-14 7.43286e-15 0 0 0 0 0 0 1 0 0 0 0 0 0 0 0 0 606 0.001 
4215 7 0.00822539 -0.0135567 -0.0592933 0 0 0 1.52124e-07 7.68303e-14 2.70027e-13 3.19003e-19 0 0 0 0 0 0 0 0 0 0 0 0 0 0 0 0 0 0 829 0.001 
12953 3 0.0124197 -0.0129497 -0.059466 0 0 0 4.06423e-07 6.27748e-13 2.20631e-12 -1.55968e-21 0 0 0 0 0 0 0 0 0 0 0 0 0 0 0 0 0 0 227 0.001 
2996 9 0.00100041 -0.0117975 -0.0597939 0 0 0 -3.66583e-08 1.31156e-06 1.04888e-05 9.51913e-13 8.40057e-11 3.24179e-10 0 0 0 1 0 0 0 0 0 0 0 0 0 0 0 0 204 0.001 
28049 2 0.00304577 -0.011872 -0.0597726 0 0 0 -7.77372e-08 -5.98484e-13 -2.10345e-12 1.61826e-19 0 0 0 0 0 0 0 0 0 0 0 0 0 0 0 0 0 0 188 0.001 
29494 4 0.015827 -0.0178583 -0.0560579 0 0 0 -1.05509 -30.2554 7.54352 0.0341445 0.0790036 0.201741 0 0 0 0 0 0 0 0 0 0 0 0 0 0 0 0 458 0.001 
928 3 0.00276001 -0.019318 -0.057654 0 0 0 0.000135191 -0.000173112 4.99661e-05 -6.89386e-06 8.8216e-06 -2.53001e-06 0 0 1 0 0 0 0 0 0 0 0 0 0 0 0 0 443 0.001 
24954 11 0.0121335 -0.0196918 -0.0575477 0 0 0 -8.59079e-07 -4.73306e-13 -1.66349e-12 1.28454e-18 0 0 0 0 0 0 0 0 0 0 0 0 0 0 0 0 0 0 736 0.001 
25276 4 0.00452565 -0.0184032 -0.0579144 0 0 0 1.79971e-05 1.91865e-05 -5.47797e-06 -1.56599e-07 -1.65056e-07 4.72233e-08 0 0 0 1 0 0 0 0 0 0 0 0 0 0 0 0 213 0.001 
27503 1 0.00682135 -0.0186726 -0.0578377 0 0 0 -0.00254983 -0.000828191 0.000180855 -0.00202284 -0.000446156 0.0001239 0 0 0 0 0 0 0 0 0 0 0 0 0 0 0 0 198 0.001 
20131 4 0.0109489 -0.017855 -0.0580703 0 0 0 5.09916e-07 -1.94674e-13 -6.84204e-13 -6.33626e-21 0 0 0 0 0 0 0 0 0 0 0 0 0 0 0 0 0 0 657 0.001 
26668 1 0.0169885 -0.0184344 -0.0579055 0 0 0 8.17786e-07 2.90496e-13 1.02099e-12 1.04039e-22 0 0 0 0 0 0 0 0 0 0 0 0 0 0 0 0 0 0 532 0.001 
18074 5 0.000996181 -0.0170446 -0.0583009 0 0 0 -4.75794e-18 3.28254e-17 1.11436e-16 0 -4.40457e-20 8.13152e-20 0 0 0 0 0 0 0 0 0 0 0 0 0 0 0 0 122 0.001 
25204 1 0.00300989 -0.0171527 -0.0582701 0 0 0 -1.75559e-05 -2.05177e-05 5.84407e-06 1.09439e-07 1.33997e-07 -3.77422e-08 0 0 0 1 0 0 0 0 0 0 0 0 0 0 0 0 189 0.001 
31205 3 0.00602576 -0.0169043 -0.0583408 0 0 0 0.000768858 -0.000398712 0.000122494 8.03254e-06 3.5773e-05 -7.40555e-06 0 0 1 0 0 0 0 0 0 0 0 0 0 0 0 0 217 0.001 
26576 1 0.0093544 -0.0166836 -0.0584036 0 0 0 -2.19195e-07 -1.35938e-08 3.86496e-09 4.92698e-15 -2.00562e-14 -2.34973e-14 1 0 0 0 0 0 0 0 0 0 0 0 0 0 0 0 315 0.001 
28724 4 0.0137471 -0.0165669 -0.0584368 0 0 0 9.23151e-07 5.01706e-13 1.76331e-12 -3.53958e-20 0 0 0 0 0 0 0 0 0 0 0 0 0 0 0 0 0 0 272 0.001 
35242 1 0.0173247 -0.0162548 -0.0585256 0 0 0 -6.38157e-07 1.99575e-13 7.01433e-13 -2.25756e-20 0 0 0 0 0 0 0 0 0 0 0 0 0 0 0 0 0 0 199 0.001 
13920 1 0.00448466 -0.015685 -0.0586877 0 0 0 0.00026486 -0.00132414 0.000422518 -8.18521e-05 -3.79574e-05 1.10671e-05 0 0 1 0 0 0 0 0 0 0 0 0 0 0 0 0 234 0.001 
38289 5 0.00765727 -0.0156672 -0.0586928 0 0 0 1.83939e-07 4.09489e-08 -1.18447e-08 -3.52572e-15 2.65682e-14 3.49243e-15 1 0 0 0 0 0 1 0 0 0 0 0 0 0 0 0 44 0.001 
10618 13 0.000998684 -0.0222859 -0.0567563 0 0 0 1.7852e-20 2.28035e-17 4.24334e-17 0 0 0 0 0 0 0 0 0 0 0 0 0 0 0 0 0 0 0 99 0.001 
28768 7 0.0109069 -0.0221764 -0.0568248 0 0 0 0.283431 0.0414185 -0.0354384 0 -2.0546e-05 0 0 0 0 0 0 0 0 0 0 0 0 0 0 0 0 0 330 0.001 
4986 1 0.000996775 -0.0202124 -0.0573997 0 0 0 -8.523e-05 0.000471362 -0.000134674 4.33278e-06 -2.40471e-05 6.85259e-06 0 0 1 0 0 0 0 0 0 0 0 0 0 0 0 0 130 0.001 
15927 1 0.00404227 -0.0212447 -0.0571059 0 0 0 1.93783e-07 1.57552e-12 5.53736e-12 3.23548e-19 0 0 0 0 0 0 0 0 0 0 0 0 0 0 0 0 0 0 201 0.001 
37145 5 0.0152862 -0.01986 -0.0574999 0 0 0 1.78278e-07 -5.76766e-13 -2.02712e-12 -4.91549e-21 0 0 0 0 0 0 0 0 0 0 0 0 0 0 0 0 0 0 301 0.001 
44332 2 0.0103246 -0.00541484 -0.0581817 0 0 0 1.27072 -2.88881 -2.49504 0 -2.0546e-05 0 0 0 0 0 0 0 0 0 0 0 0 0 0 0 0 0 0 0.001 
17646 11 0.000996599 -0.0257209 -0.0550458 0 0 0 -6.3858e-17 6.73543e-17 -3.35222e-17 0 0 0 0 0 0 0 0 0 0 0 0 0 1 0 0 0 0 0 91 0.001 
8160 8 0.00556511 -0.0254572 -0.0551771 0 0 0 -1.65592e-06 -3.86867e-13 -7.7693e-13 2.92397e-20 0 0 0 0 0 0 0 0 0 0 0 0 0 0 0 0 0 0 545 0.001 
43122 9 0.0184891 -0.0251069 -0.0553516 0 0 0 -7.58697e-07 1.67818e-12 3.37025e-12 -1.07175e-21 0 0 0 0 0 0 0 0 0 0 0 0 0 0 0 0 0 0 2 0.001 
26155 7 0.00172085 -0.0240576 -0.055874 0 0 0 1.85152e-19 -3.88921e-17 2.92689e-17 0 0 0 0 0 0 0 0 0 1 0 0 0 1 0 0 0 0 0 217 0.001 
28141 6 0.00364102 -0.0245488 -0.0556294 0 0 0 -3.8959e-18 5.50377e-18 3.46358e-18 0 0 0 0 0 0 0 0 0 1 0 0 0 0 0 0 0 0 0 204 0.001 
14657 4 0.00766653 -0.024685 -0.0555616 0 0 0 2.23315e-07 -1.38862e-12 -2.78872e-12 7.40415e-23 0 0 0 0 0 0 0 0 0 0 0 0 0 0 0 0 0 0 425 0.001 
18297 4 0.00998786 -0.0243114 -0.0557477 0 0 0 1.05996e-06 -1.09257e-12 -2.19417e-12 -5.1032e-18 0 0 0 0 0 0 0 0 0 0 0 0 0 0 0 0 0 0 723 0.001 
1300 6 0.0124405 -0.024783 -0.0555128 0 0 0 -6.72429e-07 -1.99875e-12 -4.01404e-12 2.56781e-18 0 0 0 0 0 0 0 0 0 0 0 0 0 0 0 0 0 0 1051 0.001 
34281 3 0.0156367 -0.0248346 -0.0554872 0 0 0 -3.92952e-07 1.85237e-12 3.72006e-12 -1.95896e-20 0 0 0 0 0 0 0 0 0 0 0 0 0 0 0 0 0 0 219 0.001 
44286 3 0.00310363 -0.0146219 -0.0556728 0 0 0 0.154457 -1.4787 0.812907 0 -2.0546e-05 0 0 0 0 0 0 0 0 0 0 0 0 0 0 0 0 0 0 0.001 
1466 2 0.00180056 -0.0275214 -0.0541493 0 0 0 -2.36163e-07 -9.04328e-13 -1.81614e-12 6.39016e-19 0 0 0 0 0 0 0 0 0 0 0 0 0 0 0 0 0 0 474 0.001 
14062 5 0.00475453 -0.0280544 -0.0538839 0 0 0 1.78451e-07 1.11805e-12 2.24535e-12 -6.4135e-19 0 0 0 0 0 0 0 0 0 0 0 0 0 0 0 0 0 0 515 0.001 
3560 2 0.00677414 -0.027877 -0.0539722 0 0 0 -1.14711e-07 -1.37958e-12 -2.77056e-12 -3.56083e-21 0 0 0 0 0 0 0 0 0 0 0 0 0 0 0 0 0 0 940 0.001 
4279 2 0.00368512 -0.0263584 -0.0547284 0 0 0 -4.08312e-07 -1.8743e-12 -3.7641e-12 -1.28656e-18 0 0 0 0 0 0 0 0 0 0 0 0 0 0 0 0 0 0 529 0.001 
14623 6 0.0155292 -0.0274601 -0.0541798 0 0 0 -8.56725e-09 -7.03911e-13 -1.41364e-12 1.31908e-21 0 0 0 0 0 0 0 0 0 0 0 0 0 0 0 0 0 0 898 0.001 
6616 9 0.0182022 -0.0270822 -0.054368 0 0 0 4.74452e-07 -4.67876e-13 -9.39618e-13 3.76073e-20 0 0 0 0 0 0 0 0 0 0 0 0 0 0 0 0 0 0 1195 0.001 
2789 8 0.0061193 -0.0228516 -0.0540148 0 0 0 -0.233619 -5.99853 1.95937 0 -2.0546e-05 0 0 0 0 0 0 0 0 0 0 0 0 0 0 0 0 0 1067 0.001 
19959 5 0.00244126 -0.0306975 -0.0525673 0 0 0 -4.38921e-17 6.00797e-18 -2.81834e-17 1.0842e-19 2.1684e-19 0 0 0 0 0 3 0 0 0 0 0 0 0 0 0 0 0 192 0.001 
21748 1 0.00458678 -0.0301784 -0.0528262 0 0 0 3.85956e-07 -1.26732e-12 -2.54513e-12 -3.73211e-20 0 0 0 0 0 0 0 0 0 0 0 0 0 0 0 0 0 0 56 0.001 
31064 3 0.00963624 -0.0308143 -0.0525096 0 0 0 -5.30066e-07 1.78745e-13 3.58966e-13 2.57114e-18 0 0 0 0 0 0 0 0 0 0 0 0 0 0 0 0 0 0 372 0.001 
19140 2 0.0010391 -0.0294238 -0.053202 0 0 0 5.88269e-19 8.28493e-18 -1.38563e-17 0 0 0 0 0 0 0 1 0 0 0 0 0 0 0 0 0 0 0 323 0.001 
2728 13 0.00298845 -0.0289797 -0.0534233 0 0 0 1.29397e-17 -1.48411e-17 -2.19335e-17 0 0 4.33681e-19 0 0 0 0 1 0 0 0 0 0 0 0 0 0 0 0 832 0.001 
23924 9 0.00655168 -0.0298044 -0.0530124 0 0 0 -3.45865e-07 3.01318e-08 -1.58692e-08 -2.72077e-14 -1.25995e-14 -7.54084e-15 0 0 0 0 0 0 0 0 1 0 0 0 0 0 0 0 522 0.001 
39259 13 0.00847378 -0.0293261 -0.0532506 0 0 0 2.86887e-07 -5.76014e-08 2.95011e-08 8.0064e-15 -1.30538e-16 3.9569e-15 0 0 0 0 0 0 0 0 1 0 0 0 1 0 0 0 89 0.001 
17565 1 0.0102473 -0.0285013 -0.0536613 0 0 0 -4.09007e-07 2.74682e-08 -1.36349e-08 1.9394e-14 4.96326e-15 -1.23096e-14 0 0 0 0 0 0 0 0 0 0 0 0 1 0 0 0 686 0.001 
38133 2 0.00451577 -0.0205468 -0.0538071 0 0 0 0.256308 -2.88947 -0.802279 0 -2.0546e-05 0 0 0 0 0 0 0 0 0 0 0 0 0 0 0 0 0 143 0.001 
44382 5 0.00221176 -0.0180534 -0.0516218 0 0 0 -2.65695 -4.00846 3.98131 0 -2.0546e-05 0 0 0 0 0 0 0 0 0 0 0 0 0 0 0 0 0 0 0.001 
15681 4 0.00807783 -0.00528693 -0.0532702 0 0 0 0.563337 -1.73571 -1.10197 0 -2.0546e-05 0 0 0 0 0 0 0 0 0 0 0 0 0 0 0 0 0 895 0.001 
8279 5 0.00480425 -0.00256592 -0.0533925 0 0 0 0.0223339 -3.44051 -0.186234 0 -2.0546e-05 0 0 0 0 0 0 0 0 0 0 0 0 0 0 0 0 0 979 0.001 
18422 6 0.012171 -0.0326627 -0.0514476 0 0 0 2.4671e-07 1.78274e-12 2.36073e-12 5.21688e-20 0 0 0 0 0 0 0 0 0 0 0 0 0 0 0 0 0 0 949 0.001 
4222 1 0.00099806 -0.0319299 -0.0519544 0 0 0 -1.63313e-17 -6.10789e-17 6.17388e-17 -1.55854e-19 -4.33681e-19 4.33681e-19 0 0 0 0 1 0 0 0 0 0 0 0 0 0 0 0 359 0.001 
15869 1 0.00343314 -0.0323709 -0.051668 0 0 0 -2.78407e-08 -4.27848e-08 -6.26351e-08 2.02046e-10 3.14089e-10 4.60161e-10 0 0 0 0 0 0 0 0 0 0 0 0 0 0 0 0 118 0.001 
28047 1 0.00535891 -0.0319157 -0.0519568 0 0 0 -8.07125e-07 1.80171e-07 2.38856e-07 5.17235e-09 -1.21468e-09 -1.62377e-09 0 0 0 0 0 0 0 0 0 0 0 0 0 0 0 0 509 0.001 
23139 5 0.00741424 -0.0320051 -0.0519164 0 0 0 -0.00534028 2.00938e-12 4.17864e-12 -1.28146e-17 -3.5345e-17 1.73472e-17 0 0 0 0 0 0 0 0 0 0 0 0 0 0 0 0 120 0.001 
30863 4 0.00531623 -0.0243729 -0.0519719 0 0 0 0.657507 -2.3262 0.860653 0 -2.0546e-05 0 0 0 0 0 0 0 0 0 0 0 0 0 0 0 0 0 448 0.001 
42896 1 0.00726288 -0.0148948 -0.0539354 0 0 0 -0.123624 -5.43023 -4.31582 0 -2.0546e-05 0 0 0 0 0 0 0 0 0 0 0 0 0 0 0 0 0 9 0.001 
29104 11 0.010577 -0.00388556 -0.0517516 0 0 0 0.457182 -3.59328 -0.667643 0 -2.0546e-05 0 0 0 0 0 0 0 0 0 0 0 0 0 0 0 0 0 587 0.001 
7050 6 0.00232705 -0.0337558 -0.0506222 0 0 0 -2.02154e-08 4.22301e-14 5.5922e-14 8.0102e-20 0 0 0 0 0 0 0 0 0 0 0 0 0 0 0 0 0 0 278 0.001 
40706 3 0.0100842 -0.0345726 -0.0500053 0 0 0 -2.16482e-07 2.31134e-08 -1.74513e-08 1.17213e-15 -7.41334e-15 -1.3046e-14 0 0 1 0 0 0 0 0 0 0 0 0 0 0 0 0 15 0.001 
3837 9 0.00649196 -0.0334449 -0.050857 0 0 0 -3.91124e-08 -8.38917e-13 -1.1109e-12 -3.05307e-21 0 0 0 0 0 0 0 0 0 0 0 0 0 0 0 0 0 0 328 0.001 
15419 9 0.00869138 -0.0333303 -0.0509435 0 0 0 -1.17915e-07 8.47415e-14 1.12216e-13 6.38501e-19 0 0 0 0 0 0 0 0 0 0 0 0 0 0 0 0 0 0 548 0.001 
15672 1 0.0150635 -0.0337308 -0.050641 0 0 0 2.03342e-06 4.03336e-13 5.34105e-13 -2.27647e-20 0 0 0 0 0 0 0 0 0 0 0 0 0 0 0 0 0 0 819 0.001 
22597 8 0.00295774 -0.0356122 -0.0492203 0 0 0 -3.68119e-07 -5.31159e-13 -7.0337e-13 -5.68748e-21 0 0 0 0 0 0 0 0 0 0 0 0 0 0 0 0 0 0 301 0.001 
30102 13 0.00565166 -0.0353303 -0.0494332 0 0 0 -3.00924e-07 -2.0888e-07 1.55811e-07 6.45886e-09 5.20874e-09 -4.17278e-09 0 0 0 0 0 0 0 0 0 0 0 0 0 0 0 0 116 0.001 
651 2 0.00918617 -0.0359939 -0.0489321 0 0 0 2.16481e-07 -2.31135e-08 1.74544e-08 -1.13651e-15 7.70824e-15 1.34051e-14 0 0 1 0 0 0 0 0 0 0 0 0 0 0 0 0 768 0.001 
24766 2 0.0185218 -0.035954 -0.0489621 0 0 0 -4.64859e-07 1.54099e-15 2.04105e-15 2.19644e-19 0 0 0 0 0 0 0 0 0 0 0 0 0 0 0 0 0 0 355 0.001 
10907 3 0.00104533 -0.0349824 -0.0496959 0 0 0 6.66118e-09 4.51659e-13 5.98095e-13 4.00131e-20 0 0 0 0 0 0 0 0 0 0 0 0 0 0 0 0 0 0 372 0.001 
22014 2 0.00760644 -0.034772 -0.0498548 0 0 0 5.65529e-08 2.66424e-12 3.52802e-12 1.45996e-20 -2.1684e-19 -4.33681e-19 0 0 0 0 0 0 0 0 0 0 0 0 0 0 0 0 398 0.001 
3957 3 0.0168287 -0.0349103 -0.0497503 0 0 0 5.2405e-07 -8.27609e-13 -1.09593e-12 -4.39531e-20 0 0 0 0 0 0 0 0 0 0 0 0 0 0 0 0 0 0 900 0.001 
2254 1 0.00268613 -0.0376278 -0.0476981 0 0 0 1.82111e-07 8.21023e-13 1.08721e-12 -1.28342e-18 0 0 0 0 0 0 0 0 0 0 0 0 0 0 0 0 0 0 43 0.001 
22092 1 0.0044536 -0.0366799 -0.048414 0 0 0 3.76375e-07 -1.35354e-12 -1.79237e-12 -2.5926e-18 0 0 0 0 0 0 0 0 0 0 0 0 0 0 0 0 0 0 73 0.001 
28309 4 0.0064207 -0.0373063 -0.047941 0 0 0 -0.000101238 0.000719461 0.00078658 1.17068e-06 -6.03562e-05 -7.74875e-05 0 0 0 0 0 0 0 0 0 0 0 0 0 0 0 0 85 0.001 
36660 8 0.0110552 -0.0366317 -0.0484504 0 0 0 -1.35535e-07 9.29585e-13 1.23097e-12 8.33268e-21 0 0 0 0 0 0 0 0 0 0 0 0 0 0 0 0 0 0 174 0.001 
40529 4 0.0141762 -0.036809 -0.0483165 0 0 0 -1.02375e-07 -1.39594e-12 -1.84852e-12 -6.47841e-19 0 0 0 0 0 0 0 0 0 0 0 0 0 0 0 0 0 0 6 0.001 
17729 2 0.0167722 -0.0374513 -0.0478315 0 0 0 -5.42746e-08 9.48171e-13 1.25558e-12 2.75285e-21 0 0 0 0 0 0 0 0 0 0 0 0 0 0 0 0 0 0 634 0.001 
6347 2 0.00135551 -0.0390433 -0.0466292 0 0 0 1.31314e-07 -1.00967e-12 -1.33702e-12 5.41509e-21 0 0 0 0 0 0 0 0 0 0 0 0 0 0 0 0 0 0 226 0.001 
6628 3 0.00648794 -0.0389045 -0.046734 0 0 0 3.12623e-06 1.52876e-05 4.80761e-06 4.13011e-07 -1.77686e-06 4.84339e-07 0 0 0 0 0 0 0 0 0 0 0 0 0 0 0 0 417 0.001 
7287 6 0.00442206 -0.0385297 -0.0470171 0 0 0 -4.47186e-08 5.96789e-14 7.90261e-14 -3.18821e-19 0 0 0 0 0 0 0 0 0 0 0 0 0 0 0 0 0 0 223 0.001 
36237 6 0.0102053 -0.0383301 -0.0471678 0 0 0 -5.85965e-07 8.81588e-13 1.16741e-12 -2.53297e-20 0 0 0 0 0 0 0 0 0 0 0 0 0 0 0 0 0 0 138 0.001 
36129 1 0.00524945 -0.0384001 -0.0431971 0 0 0 -2.24667 -4.55087 6.41965 0 -2.0546e-05 0 0 0 0 0 0 0 0 0 0 0 0 0 0 0 0 0 275 0.001 
17843 3 0.018514 -0.0379704 -0.044339 0 0 0 2.22081 -3.48175 4.09823 0 -2.0546e-05 0 0 0 0 0 0 0 0 0 0 0 0 0 0 0 0 0 789 0.001 
40640 1 0.00508769 -0.0326881 -0.0446429 0 0 0 2.08545 -14.8886 5.05894 0 -2.0546e-05 0 0 0 0 0 0 0 0 0 0 0 0 0 0 0 0 0 59 0.001 
12450 9 0.00104113 -0.0407774 -0.0453197 0 0 0 -1.93311e-08 6.37175e-10 -5.82759e-10 -3.33501e-16 7.44847e-16 1.05211e-15 0 0 0 0 0 0 0 0 1 0 0 0 0 0 0 0 125 0.001 
11827 10 0.00301497 -0.0405317 -0.0455053 0 0 0 1.93312e-08 -6.37603e-10 5.82155e-10 1.94777e-16 -1.82276e-15 -2.43295e-15 0 0 0 0 0 0 0 0 1 0 0 0 0 0 0 0 374 0.001 
8607 4 0.00571367 -0.0403783 -0.0456211 0 0 0 3.44433e-09 -3.53934e-14 -4.68672e-14 4.834e-23 0 0 0 0 0 0 0 0 0 0 0 0 0 0 0 0 0 0 580 0.001 
895 3 0.00798756 -0.0409251 -0.0452037 0 0 0 0.00333971 2.29676e-13 3.44984e-13 -4.73643e-19 2.41235e-18 -1.5992e-18 0 0 0 0 0 0 0 0 0 0 0 0 0 0 0 0 577 0.001 
18732 7 0.0112601 -0.0397621 -0.0460864 0 0 0 6.1038e-07 2.45936e-12 3.25672e-12 -5.88764e-22 0 0 0 0 0 0 0 0 0 0 0 0 0 0 0 0 0 0 801 0.001 
44237 13 0.00831043 -0.0387161 -0.0442654 0 0 0 1.37259 -3.05532 2.28404 0 -2.0546e-05 0 0 0 0 0 0 0 0 0 0 0 0 0 0 0 0 0 0 0.001 
36982 1 0.0133089 -0.0365523 -0.0419823 0 0 0 0.366263 -7.46505 7.22375 0 -2.0546e-05 0 0 0 0 0 0 0 0 0 0 0 0 0 0 0 0 0 232 0.001 
44285 5 0.00209784 -0.0283086 -0.0447351 0 0 0 0.777011 -4.94589 2.60055 0 -2.0546e-05 0 0 0 0 0 0 0 0 0 0 0 0 0 0 0 0 0 0 0.001 
43690 4 0.00335064 -0.0256936 -0.0445382 0 0 0 -0.586863 -3.72066 0.987719 0 -2.0546e-05 0 0 0 0 0 0 0 0 0 0 0 0 0 0 0 0 0 0 0.001 
39939 5 0.00201822 -0.0197964 -0.0454904 0 0 0 0.000411395 -1.61852 -0.25828 0 -2.0546e-05 0 0 0 0 0 0 0 0 0 0 0 0 0 0 0 0 0 138 0.001 
42451 4 0.00855999 -0.0176904 -0.046536 0 0 0 -0.27117 -4.6892 -1.34939 0 -2.0546e-05 0 0 0 0 0 0 0 0 0 0 0 0 0 0 0 0 0 47 0.001 
1595 1 0.000997152 -0.0422981 -0.0437619 0 0 0 -2.61307e-17 -6.1527e-17 -5.69042e-17 0 0 0 0 0 0 0 0 0 0 0 0 0 0 0 0 0 0 0 197 0.001 
17263 6 0.00299886 -0.0419966 -0.0440911 0 0 0 -1.26374e-08 -1.13101e-09 1.24204e-09 2.71566e-16 4.72495e-15 4.67378e-15 0 0 0 0 0 1 0 0 0 0 0 0 0 0 0 0 342 0.001 
29473 7 0.00619847 -0.0421819 -0.0438878 0 0 0 -2.28104e-08 -1.08711e-13 -9.91047e-14 3.2054e-19 0 0 0 0 0 0 0 0 0 0 0 0 0 0 0 0 0 0 57 0.001 
19962 1 0.0106419 -0.0413103 -0.0448438 0 0 0 -8.31575e-08 1.71717e-12 1.56541e-12 -6.43189e-19 0 0 0 0 0 0 0 0 0 0 0 0 0 0 0 0 0 0 576 0.001 
40028 8 0.01532 -0.0419737 -0.0441161 0 0 0 -7.84417e-07 -2.80493e-14 -2.55688e-14 -1.02419e-17 0 0 0 0 0 0 0 0 0 0 0 0 0 0 0 0 0 0 75 0.001 
18217 1 0.018476 -0.0412478 -0.0449124 0 0 0 -3.05132e-08 -4.57793e-13 -4.17333e-13 3.21573e-19 0 0 0 0 0 0 0 0 0 0 0 0 0 0 0 0 0 0 495 0.001 
6624 9 0.00212341 -0.0434248 -0.0425244 0 0 0 -9.27824e-08 -1.83132e-12 -1.66947e-12 -1.28814e-18 0 0 0 0 0 0 0 0 0 0 0 0 0 0 0 0 0 0 278 0.001 
21129 2 0.00447994 -0.0428996 -0.0431005 0 0 0 1.26373e-08 1.13104e-09 -1.24208e-09 -1.58022e-16 7.05295e-15 6.21616e-15 0 0 0 0 0 1 0 0 0 0 0 0 0 0 0 0 114 0.001 
25804 7 0.0104598 -0.043444 -0.0425037 0 0 0 -0.0162512 0.0291909 0.00141046 0.00027009 -0.000540316 -8.17005e-05 0 0 0 0 0 0 0 0 0 0 0 0 0 0 0 0 415 0.001 
32695 4 0.0121749 -0.042611 -0.043417 0 0 0 -4.38679e-07 5.80358e-13 5.29068e-13 5.15869e-18 0 0 0 0 0 0 0 0 0 0 0 0 0 0 0 0 0 0 285 0.001 
31688 3 0.0184144 -0.0429626 -0.0430314 0 0 0 -3.27529e-07 -4.06599e-12 -3.70664e-12 -2.57589e-18 0 0 0 0 0 0 0 0 0 0 0 0 0 0 0 0 0 0 803 0.001 
6267 5 0.00885453 -0.0424439 -0.0436004 0 0 0 1.46515e-07 2.65827e-12 2.42334e-12 1.27137e-18 0 0 0 0 0 0 0 0 0 0 0 0 0 0 0 0 0 0 876 0.001 
42066 2 0.0163212 -0.0254715 -0.042387 0 0 0 1.62114 -3.66705 1.05871 0 -2.0546e-05 0 0 0 0 0 0 0 0 0 0 0 0 0 0 0 0 0 40 0.001 
4790 2 0.00836606 -0.0437925 -0.042121 0 0 0 -1.91407e-08 -6.94564e-10 7.61101e-10 5.92375e-12 1.93594e-12 -2.11755e-12 0 1 0 0 0 0 0 0 0 0 0 0 0 0 0 0 545 0.001 
32923 1 0.0133058 -0.0443088 -0.0415546 0 0 0 3.55213e-07 2.45916e-14 2.24168e-14 2.58874e-18 0 0 0 0 0 0 0 0 0 0 0 0 0 0 0 0 0 0 325 0.001 
34046 4 0.00608747 -0.0437324 -0.0421869 0 0 0 -1.09214e-07 2.93523e-12 2.67582e-12 -1.88363e-20 0 0 0 0 0 0 0 0 0 0 0 0 0 0 0 0 0 0 51 0.001 
36848 6 0.00554636 -0.0368965 -0.0413329 0 0 0 0.560314 -3.28179 1.3784 0 -2.0546e-05 0 0 0 0 0 0 0 0 0 0 0 0 0 0 0 0 0 265 0.001 
31582 2 0.00420772 -0.0240586 -0.0416276 0 0 0 0.431606 -1.89726 1.13757 0 -2.0546e-05 0 0 0 0 0 0 0 0 0 0 0 0 0 0 0 0 0 368 0.001 
28712 1 0.00401433 -0.00470793 -0.0416578 0 0 0 -0.320271 -1.64473 -0.240349 0 -2.0546e-05 0 0 0 0 0 0 0 0 0 0 0 0 0 0 0 0 0 553 0.001 
20363 3 0.000999366 -0.0452137 -0.0405634 0 0 0 3.535e-18 7.57176e-18 6.0258e-18 0 0 0 0 0 0 0 0 0 0 0 0 0 0 0 0 0 0 0 16 0.001 
22463 3 0.00308798 -0.0450134 -0.0407817 0 0 0 1.20696e-07 -4.32039e-12 -3.93856e-12 -8.81534e-21 0 0 0 0 0 0 0 0 0 0 0 0 0 0 0 0 0 0 70 0.001 
5399 1 0.00908065 -0.04505 -0.0407416 0 0 0 1.34309e-08 9.45633e-10 -1.03938e-09 -4.36843e-12 1.63965e-12 -1.74636e-12 1 1 0 0 0 0 0 0 0 0 0 0 0 0 0 0 711 0.001 
37010 1 0.0111355 -0.0451758 -0.0406036 0 0 0 2.2323e-07 2.45668e-13 2.23955e-13 -2.57741e-18 0 0 0 0 0 0 0 0 0 0 0 0 0 0 0 0 0 0 140 0.001 
27461 3 0.0171468 -0.0454132 -0.0403431 0 0 0 1.0045e-07 -6.54216e-13 -5.96399e-13 -4.26369e-21 0 0 0 0 0 0 0 0 0 0 0 0 0 0 0 0 0 0 426 0.001 
7451 3 0.00709382 -0.0449273 -0.0408762 0 0 0 -1.36087e-08 -2.5276e-10 2.76676e-10 -1.55596e-12 -3.49669e-12 3.93601e-12 1 0 0 0 0 0 0 0 0 0 0 0 0 0 0 0 575 0.001 
23099 1 0.0118813 -0.0439505 -0.0370975 0 0 0 4.90575 -4.51673 12.8185 0 -2.0546e-05 0 0 0 0 0 0 0 0 0 0 0 0 0 0 0 0 0 573 0.001 
38087 1 0.0176387 -0.0156763 -0.0433061 0 0 0 0.420016 -8.48381 -4.25387 0 -2.0546e-05 0 0 0 0 0 0 0 0 0 0 0 0 0 0 0 0 0 215 0.001 
2640 9 0.00250753 -0.0466166 -0.0390231 0 0 0 9.81302e-08 5.2785e-12 4.81199e-12 1.37362e-20 0 0 0 0 0 0 0 0 0 0 0 0 0 0 0 0 0 0 623 0.001 
12343 5 0.00627385 -0.0467533 -0.0388732 0 0 0 -0.00040089 0.000421354 -0.000562095 1.60886e-06 -1.87574e-05 1.58632e-05 0 0 0 0 1 0 0 0 0 0 0 0 0 0 0 0 685 0.001 
10303 7 0.00823792 -0.0463734 -0.0392899 0 0 0 4.83306e-06 3.82793e-06 -1.55073e-06 -1.16734e-08 -1.02823e-07 1.98626e-07 0 0 0 0 0 0 0 0 0 0 0 0 0 0 0 0 831 0.001 
23793 2 0.00462706 -0.04598 -0.0397215 0 0 0 -2.55793e-08 -5.51797e-12 -5.03029e-12 -5.99901e-21 0 0 0 0 0 0 0 0 0 0 0 0 0 0 0 0 0 0 225 0.001 
5976 14 0.00457522 -0.0474595 -0.0380984 0 0 0 0.000223477 -0.000298376 0.000264425 -4.88429e-07 -1.17814e-05 1.11182e-05 0 0 0 0 1 0 0 0 0 0 0 0 0 1 0 0 766 0.001 
11200 14 0.010735 -0.0469588 -0.0386478 0 0 0 -5.38408e-07 7.20073e-10 -7.74489e-10 1.59332e-11 -8.20639e-12 9.24813e-12 0 0 0 0 0 0 0 0 0 0 0 0 0 0 0 0 808 0.001 
23847 5 0.0175703 -0.0469405 -0.0386679 0 0 0 1.10016e-07 -9.45877e-13 -8.6228e-13 -4.45962e-21 0 0 0 0 0 0 0 0 0 0 0 0 0 0 0 0 0 0 43 0.001 
24097 8 0.00463305 -0.0488209 -0.0365316 0 0 0 0.00142505 0.000534593 -0.000687239 -4.50568e-05 -2.80977e-05 2.07447e-05 0 0 0 0 0 0 0 0 0 0 0 0 0 0 0 0 58 0.001 
14800 6 0.000993986 -0.0485961 -0.0368542 0 0 0 -0.000236789 0.00132603 -0.00148837 -1.55915e-06 3.01652e-06 -3.54878e-06 0 0 0 0 0 1 0 0 0 0 0 0 0 0 0 0 164 0.001 
21526 3 0.00288107 -0.048166 -0.0373234 0 0 0 0.000837063 -0.0011615 0.00129328 -1.54855e-05 1.2193e-05 -1.33137e-05 0 0 0 0 0 1 0 0 0 0 0 0 0 1 0 0 115 0.001 
18520 9 0.00633521 -0.0481111 -0.0373213 0 0 0 0.0390999 0.0364697 0.031166 1.10795e-06 -0.000115892 -0.000304672 0 0 0 0 0 0 0 0 1 0 0 0 0 0 0 0 442 0.001 
25958 7 0.0108702 -0.0482498 -0.0371081 0 0 0 -0.13711 0.0135138 -0.0632454 -7.3729e-05 0.000413961 -0.000414564 0 0 0 0 0 0 1 0 0 0 0 0 0 0 0 0 663 0.001 
44062 3 0.00434351 -0.0466564 -0.0336502 0 0 0 -0.233928 -2.96072 5.71887 0 -2.0546e-05 0 0 0 0 0 0 0 0 0 0 0 0 0 0 0 0 0 0 0.001 
25222 8 0.0033645 -0.0442522 -0.0343605 0 0 0 0.657422 0.776974 5.3151 0 -2.0546e-05 0 0 0 0 0 0 0 0 0 0 0 0 0 0 0 0 0 636 0.001 
13044 4 0.0139675 -0.00779789 -0.0362013 0 0 0 1.14002 -1.78116 0.642434 0 -2.0546e-05 0 0 0 0 0 0 0 0 0 0 0 0 0 0 0 0 0 779 0.001 
43040 4 0.00766797 -0.0490494 -0.0361626 0 0 0 0.000293825 -7.09802e-05 0.0011747 -3.25423e-07 8.21192e-05 0.000268724 0 0 0 0 0 0 0 0 1 0 0 0 0 0 0 0 8 0.001 
26321 3 0.0102527 -0.0493998 -0.0355968 0 0 0 -0.000401117 0.00192527 -0.00195645 -6.72623e-05 8.62112e-05 -9.99364e-05 0 0 1 0 0 0 1 0 0 0 0 0 0 0 0 0 72 0.001 
24414 8 0.0128062 -0.0495466 -0.0353596 0 0 0 7.20355e-07 -1.17894e-12 -7.29966e-13 -2.55571e-18 0 0 0 0 0 0 0 0 0 0 0 0 0 0 0 0 0 0 616 0.001 
3408 4 0.0172822 -0.04942 -0.035564 0 0 0 -9.20232e-08 1.21583e-12 7.52811e-13 3.27797e-20 0 0 0 0 0 0 0 0 0 0 0 0 0 0 0 0 0 0 1189 0.001 
29488 4 0.0125769 -0.0476111 -0.0339725 0 0 0 1.9058 -0.561865 2.46617 0 -2.0546e-05 0 0 0 0 0 0 0 0 0 0 0 0 0 0 0 0 0 257 0.001 
15823 11 0.0137877 -0.050191 -0.0304546 0 0 0 -7.05618 -6.89059 12.5256 0 -2.0546e-05 0 0 0 0 0 0 0 0 0 0 0 0 0 0 0 0 0 962 0.001 
31365 6 0.00866693 -0.0422687 -0.0314633 0 0 0 0.1081 -6.58368 7.92207 0 -2.0546e-05 0 0 0 0 0 0 0 0 0 0 0 0 0 0 0 0 0 496 0.001 
6685 12 0.00102713 -0.0502771 -0.0341798 0 0 0 -1.09591e-07 1.34216e-12 8.31032e-13 9.4545e-21 0 0 0 0 0 0 0 0 0 0 0 0 0 0 0 0 0 0 540 0.001 
10319 4 0.00536288 -0.0500837 -0.0344922 0 0 0 -3.99451e-07 -1.6349e-12 -1.01229e-12 -1.18972e-18 0 0 0 0 0 0 0 0 0 0 0 0 0 0 0 0 0 0 663 0.001 
6905 4 0.00893025 -0.0501871 -0.0343251 0 0 0 0.000283448 0.000179239 -0.000222575 5.54393e-05 -1.2721e-05 2.21515e-05 0 0 1 0 0 0 0 0 0 0 0 0 0 0 0 0 132 0.001 
30465 4 0.0113195 -0.0503147 -0.034119 0 0 0 -4.26444e-07 -2.66581e-12 -1.6506e-12 1.10543e-20 0 0 0 0 0 0 0 0 0 0 0 0 0 0 0 0 0 0 213 0.001 
3066 8 0.0156682 -0.05011 -0.0344496 0 0 0 2.65363e-07 5.77884e-13 3.57811e-13 9.57815e-20 0 0 0 0 0 0 0 0 0 0 0 0 0 0 0 0 0 0 387 0.001 
37101 5 0.010926 -0.0462062 -0.0331334 0 0 0 0.956967 -5.96847 2.63259 0 -2.0546e-05 0 0 0 0 0 0 0 0 0 0 0 0 0 0 0 0 0 252 0.001 
16136 11 0.00363663 -0.0506526 -0.0335734 0 0 0 7.56993e-07 2.61347e-12 1.61819e-12 -2.57856e-18 0 0 0 0 0 0 0 0 0 0 0 0 0 0 0 0 0 0 317 0.001 
8474 1 0.00538999 -0.0511786 -0.0327238 0 0 0 -7.18905e-07 -4.17372e-14 -2.58415e-14 -2.55167e-18 0 0 0 0 0 0 0 0 0 0 0 0 0 0 0 0 0 0 470 0.001 
14631 4 0.0071114 -0.0506278 -0.0336134 0 0 0 7.81558e-07 2.21726e-12 1.37287e-12 6.30159e-20 0 0 0 0 0 0 0 0 0 0 0 0 0 0 0 0 0 0 544 0.001 
14832 12 0.0137369 -0.0508361 -0.033277 0 0 0 -1.75025e-07 1.86741e-12 1.15625e-12 6.46624e-19 0 0 0 0 0 0 0 0 0 0 0 0 0 0 0 0 0 0 852 0.001 
17 7 0.00231655 -0.0516518 -0.0319596 0 0 0 -2.63803e-07 -3.02327e-12 -1.87193e-12 1.28225e-18 0 0 0 0 0 0 0 0 0 0 0 0 0 0 0 0 0 0 466 0.001 
21830 10 0.00418023 -0.0520474 -0.0313206 0 0 0 3.34294e-07 -3.07613e-12 -1.90466e-12 1.30438e-18 0 0 0 0 0 0 0 0 0 0 0 0 0 0 0 0 0 0 183 0.001 
21169 5 0.0100377 -0.0520879 -0.0312552 0 0 0 5.15806e-07 1.32063e-12 8.17698e-13 2.53944e-18 0 0 0 0 0 0 0 0 0 0 0 0 0 0 0 0 0 0 367 0.001 
33877 7 0.0127174 -0.0518662 -0.0316133 0 0 0 -4.25898e-07 -6.34627e-12 -3.92945e-12 5.42371e-20 0 0 0 0 0 0 0 0 0 0 0 0 0 0 0 0 0 0 426 0.001 
32338 2 0.0150762 -0.0516237 -0.0320049 0 0 0 1.38799e-07 -3.77306e-12 -2.33618e-12 -3.81044e-22 0 0 0 0 0 0 0 0 0 0 0 0 0 0 0 0 0 0 383 0.001 
31787 7 0.0177947 -0.0515691 -0.0320931 0 0 0 -1.12836e-06 -4.71986e-13 -2.9224e-13 1.21781e-19 0 0 0 0 0 0 0 0 0 0 0 0 0 0 0 0 0 0 14 0.001 
4152 8 0.0137836 -0.000825197 -0.0546514 0 0 0 1.92424 -2.47687 0.826762 0 -2.0546e-05 0 0 0 0 0 0 0 0 0 0 0 0 0 0 0 0 0 1227 0.001 
22605 6 0.00662671 -0.0525949 -0.0304365 0 0 0 -1.1277e-06 6.08077e-13 3.76504e-13 -5.1598e-18 0 0 0 0 0 0 0 0 0 0 0 0 0 0 0 0 0 0 351 0.001 
513 8 0.00125596 -0.0533402 -0.0292327 0 0 0 1.72324e-07 -1.14006e-08 1.84062e-08 6.62068e-16 1.28651e-14 7.51504e-15 0 0 0 0 0 0 0 1 0 0 0 0 0 0 0 0 203 0.001 
6681 1 0.00310869 -0.0529491 -0.0298643 0 0 0 -1.72323e-07 1.14006e-08 -1.84071e-08 -3.41524e-16 -6.13008e-15 -3.52474e-15 0 0 0 0 0 0 0 1 0 0 0 0 0 0 0 0 436 0.001 
18218 2 0.00749897 -0.0536054 -0.0288044 0 0 0 -6.51254e-08 5.47804e-09 -8.85056e-09 9.84456e-17 2.41777e-15 2.06432e-15 0 2 0 0 0 0 0 0 0 0 0 0 0 0 0 0 440 0.001 
26400 5 0.00924935 -0.0530977 -0.0296244 0 0 0 9.15816e-08 -3.84934e-09 6.20684e-09 9.92912e-16 -7.25114e-16 -1.21235e-15 0 1 0 0 0 0 0 0 0 0 0 0 0 0 0 0 254 0.001 
16481 7 0.00323687 -0.0543739 -0.0275632 0 0 0 7.01586e-07 -3.60587e-12 -2.23266e-12 7.98559e-20 0 0 0 0 0 0 0 0 0 0 0 0 0 0 0 0 0 0 176 0.001 
14053 7 0.00551631 -0.0537277 -0.028607 0 0 0 7.83685e-08 -1.63064e-09 2.64287e-09 -1.4138e-15 -7.25938e-15 -4.30298e-15 0 1 0 0 0 0 0 0 0 0 0 0 0 0 0 0 248 0.001 
17560 4 0.000997348 -0.0544298 -0.0274729 0 0 0 -3.02236e-20 8.36415e-17 5.07881e-17 0 0 0 0 0 0 0 0 0 0 0 0 0 0 0 0 0 0 0 158 0.001 
26567 4 0.00647399 -0.0546882 -0.0269751 0 0 0 7.54205e-08 -1.77631e-12 -6.88146e-13 -1.51936e-19 0 0 0 0 0 0 0 0 0 0 0 0 0 0 0 0 0 0 430 0.001 