ITEM: TIMESTEP
44550000
ITEM: NUMBER OF ENTRIES
6841
ITEM: BOX BOUNDS ff ff ff
-0.01 0.45
-0.15 0.15
-0.08 0.1
ITEM: ENTRIES c_pwc[1] c_pwc[2] c_pwc[3] 
0 865 14800 
0 865 20363 
0 865 1595 
0 865 43453 
0 837 18493 
0 837 1521 
0 828 17560 
0 827 14800 
0 827 20363 
0 827 1595 
0 826 4222 
0 824 4222 
0 824 17646 
0 824 10618 
0 938 1422 
0 938 26467 
0 938 21490 
0 938 3041 
0 938 31768 
0 938 1857 
0 938 20612 
0 938 10520 
0 936 13794 
0 936 12904 
0 936 15729 
0 936 15954 
0 936 11673 
0 936 26007 
0 936 12148 
0 936 5454 
0 936 21026 
0 936 11791 
0 936 21110 
0 936 4823 
0 936 16741 
0 936 15599 
0 936 35755 
0 936 13383 
0 936 36914 
0 936 27865 
0 936 15445 
0 936 7614 
0 936 19457 
0 934 5814 
0 934 13887 
0 934 3068 
0 934 13437 
0 934 9766 
0 934 24137 
0 934 2601 
0 934 26821 
0 934 17507 
0 934 865 
0 934 12239 
0 934 34700 
0 934 5430 
0 934 19892 
0 934 15544 
0 934 40276 
0 934 22431 
0 934 289 
0 934 9555 
0 934 17138 
0 934 19985 
0 932 18493 
0 932 1521 
0 932 6132 
0 932 1166 
0 932 12294 
0 932 3780 
0 932 11682 
0 932 1028 
0 932 520 
0 932 31347 
0 932 29987 
0 932 30445 
0 932 17588 
0 932 26567 
0 932 2264 
0 932 17114 
0 932 12249 
0 932 33425 
0 932 27094 
0 932 1706 
0 932 13766 
0 932 43582 
0 932 18716 
0 932 3167 
0 932 23879 
0 932 9036 
0 932 11282 
0 930 17560 
0 930 6685 
0 930 14800 
0 930 513 
0 930 17 
0 930 16481 
0 930 6681 
0 930 16136 
0 930 21830 
0 930 24097 
0 930 14053 
0 930 10319 
0 930 8474 
0 930 22605 
0 930 14631 
0 930 18218 
0 930 43040 
0 930 26400 
0 930 6905 
0 930 21169 
0 930 26321 
0 930 30465 
0 930 33877 
0 930 14832 
0 930 24414 
0 930 32338 
0 930 3066 
0 930 3408 
0 930 31787 
0 928 14800 
0 928 20363 
0 928 1595 
0 928 6624 
0 928 21526 
0 928 2640 
0 928 22463 
0 928 17263 
0 928 23083 
0 928 5976 
0 928 23793 
0 928 21129 
0 928 34046 
0 928 29473 
0 928 18520 
0 928 12343 
0 928 7451 
0 928 10303 
0 928 4790 
0 928 895 
0 928 5399 
0 928 6267 
0 928 11200 
0 928 37010 
0 928 25804 
0 928 19962 
0 928 32695 
0 928 25958 
0 928 32923 
0 928 40028 
0 928 27461 
0 928 23847 
0 928 31688 
0 928 18217 
0 926 12450 
0 926 10907 
0 926 6347 
0 926 7050 
0 926 11827 
0 926 2254 
0 926 22597 
0 926 15869 
0 926 7287 
0 926 22092 
0 926 8607 
0 926 30102 
0 926 28047 
0 926 6628 
0 926 28309 
0 926 3837 
0 926 22014 
0 926 15419 
0 926 23139 
0 926 651 
0 926 36237 
0 926 36660 
0 926 40706 
0 926 18732 
0 926 18422 
0 926 40529 
0 926 15672 
0 926 17729 
0 926 3957 
0 926 30901 
0 926 24766 
0 924 4222 
0 924 19140 
0 924 17646 
0 924 10618 
0 924 19959 
0 924 1466 
0 924 26155 
0 924 2728 
0 924 4279 
0 924 28141 
0 924 21748 
0 924 14062 
0 924 8160 
0 924 23924 
0 924 3560 
0 924 39259 
0 924 14657 
0 924 31064 
0 924 17565 
0 924 18297 
0 924 14623 
0 924 34281 
0 924 6616 
0 924 43122 
0 922 4986 
0 922 18074 
0 922 7985 
0 922 2996 
0 922 928 
0 922 25204 
0 922 2652 
0 922 28049 
0 922 15927 
0 922 25276 
0 922 13920 
0 922 3062 
0 922 31205 
0 922 25575 
0 922 27503 
0 922 28768 
0 922 38289 
0 922 4215 
0 922 26576 
0 922 20131 
0 922 9939 
0 922 24954 
0 922 38015 
0 922 27440 
0 922 1300 
0 922 26668 
0 922 28724 
0 922 5836 
0 920 15490 
0 920 8809 
0 920 6944 
0 920 6205 
0 920 537 
0 920 4335 
0 920 12748 
0 920 11712 
0 920 2795 
0 920 5360 
0 920 3240 
0 920 18855 
0 920 20146 
0 920 25024 
0 920 24492 
0 920 30990 
0 920 4733 
0 920 780 
0 920 3870 
0 920 28329 
0 920 33475 
0 920 23591 
0 920 29577 
0 792 15490 
0 792 8809 
0 792 6944 
0 792 6205 
0 792 537 
0 792 4335 
0 792 12748 
0 792 11712 
0 792 2795 
0 792 5360 
0 792 3240 
0 792 18855 
0 792 20146 
0 792 25024 
0 792 24492 
0 792 30990 
0 792 4733 
0 792 3870 
0 792 28329 
0 792 33475 
0 792 23591 
0 792 29577 
0 790 4986 
0 790 18074 
0 790 7985 
0 790 2996 
0 790 928 
0 790 25204 
0 790 2652 
0 790 28049 
0 790 15927 
0 790 25276 
0 790 13920 
0 790 3062 
0 790 31205 
0 790 25575 
0 790 27503 
0 790 28768 
0 790 38289 
0 790 4215 
0 790 26576 
0 790 20131 
0 790 9939 
0 790 24954 
0 790 38015 
0 790 1300 
0 790 26668 
0 790 28724 
0 790 5836 
0 788 4222 
0 788 19140 
0 788 17646 
0 788 10618 
0 788 19959 
0 788 1466 
0 788 26155 
0 788 2728 
0 788 4279 
0 788 28141 
0 788 21748 
0 788 14062 
0 788 28047 
0 788 8160 
0 788 23924 
0 788 3560 
0 788 23139 
0 788 39259 
0 788 14657 
0 788 31064 
0 788 17565 
0 788 18297 
0 788 14623 
0 788 34281 
0 788 6616 
0 788 43122 
0 786 12450 
0 786 10907 
0 786 6347 
0 786 7050 
0 786 11827 
0 786 2254 
0 786 22597 
0 786 7287 
0 786 22092 
0 786 8607 
0 786 30102 
0 786 6628 
0 786 28309 
0 786 3837 
0 786 895 
0 786 22014 
0 786 15419 
0 786 651 
0 786 36237 
0 786 36660 
0 786 40706 
0 786 18732 
0 786 40529 
0 786 17729 
0 786 3957 
0 786 30901 
0 786 24766 
0 784 14800 
0 784 20363 
0 784 1595 
0 784 6624 
0 784 21526 
0 784 2640 
0 784 22463 
0 784 17263 
0 784 5976 
0 784 23793 
0 784 21129 
0 784 34046 
0 784 29473 
0 784 18520 
0 784 12343 
0 784 7451 
0 784 43040 
0 784 10303 
0 784 4790 
0 784 5399 
0 784 6267 
0 784 11200 
0 784 37010 
0 784 25804 
0 784 32695 
0 784 25958 
0 784 32923 
0 784 27461 
0 784 23847 
0 784 31688 
0 782 17560 
0 782 6685 
0 782 513 
0 782 17 
0 782 16481 
0 782 6681 
0 782 16136 
0 782 21830 
0 782 14053 
0 782 10319 
0 782 8474 
0 782 22605 
0 782 14631 
0 782 18218 
0 782 26400 
0 782 6905 
0 782 21169 
0 782 30465 
0 782 33877 
0 782 14832 
0 782 32338 
0 782 3066 
0 782 31787 
0 780 18493 
0 780 1521 
0 780 6132 
0 780 1166 
0 780 12294 
0 780 3780 
0 780 11682 
0 780 1028 
0 780 520 
0 780 31347 
0 780 29987 
0 780 30445 
0 780 17588 
0 780 2264 
0 780 17114 
0 780 12249 
0 780 15544 
0 780 33425 
0 780 27094 
0 780 1706 
0 780 43582 
0 780 18716 
0 780 3167 
0 780 9036 
0 778 5814 
0 778 13887 
0 778 3068 
0 778 13437 
0 778 9766 
0 778 24137 
0 778 2601 
0 778 26821 
0 778 17507 
0 778 865 
0 778 34700 
0 778 5430 
0 778 19892 
0 778 13383 
0 778 40276 
0 778 22431 
0 778 289 
0 778 17138 
0 778 19985 
0 776 13794 
0 776 12904 
0 776 15729 
0 776 11673 
0 776 26007 
0 776 10695 
0 776 12148 
0 776 5454 
0 776 21026 
0 776 11791 
0 776 21110 
0 776 4823 
0 776 16741 
0 776 15599 
0 776 35755 
0 776 24163 
0 776 36914 
0 776 27865 
0 776 15445 
0 776 29137 
0 776 7614 
0 776 19457 
0 937 10695 
0 937 24163 
0 937 29137 
0 787 15869 
0 787 18422 
0 787 15672 
0 785 19962 
0 785 40028 
0 785 18217 
0 783 24097 
0 783 26321 
0 783 24414 
0 783 3408 
0 781 26567 
0 781 13766 
0 781 23879 
0 781 11282 
0 779 12239 
0 779 9555 
0 777 15954 
0 775 26467 
0 775 21490 
0 775 3041 
0 775 20612 
0 823 4986 
0 823 18074 
0 821 6944 
0 821 6205 
0 774 1422 
0 774 31768 
0 774 1857 
0 774 10520 
0 842 2288 
0 842 14922 
0 839 443 
0 839 16917 
0 952 707 
0 952 10001 
0 952 1111 
0 952 19933 
0 952 9571 
0 952 4208 
0 952 29250 
0 952 28146 
0 952 25487 
0 952 2511 
0 952 26272 
0 952 17240 
0 952 22767 
0 952 23171 
0 950 2288 
0 950 14922 
0 950 6682 
0 950 23328 
0 950 7143 
0 950 34306 
0 950 33166 
0 950 13284 
0 950 28035 
0 950 21839 
0 950 8842 
0 950 15582 
0 950 34540 
0 950 1769 
0 950 34878 
0 950 34942 
0 948 26998 
0 948 32679 
0 948 31958 
0 948 29976 
0 948 42435 
0 948 15244 
0 948 22200 
0 946 25039 
0 946 8896 
0 946 7841 
0 946 21284 
0 946 24390 
0 946 28270 
0 946 17546 
0 946 30909 
0 946 35473 
0 946 30989 
0 944 15685 
0 944 24558 
0 944 2286 
0 944 12118 
0 944 542 
0 944 9911 
0 944 7535 
0 944 44159 
0 944 36715 
0 944 38712 
0 942 4038 
0 942 21910 
0 942 35910 
0 942 35138 
0 942 29550 
0 942 6879 
0 942 12388 
0 942 27913 
0 942 43601 
0 942 36389 
0 940 16917 
0 940 10124 
0 940 1479 
0 940 9175 
0 940 18620 
0 940 15457 
0 940 7446 
0 940 4212 
0 940 6749 
0 774 443 
0 774 4430 
0 774 7446 
0 774 28124 
0 774 42754 
0 772 16917 
0 772 10124 
0 772 1479 
0 772 9175 
0 772 18620 
0 772 15457 
0 772 4212 
0 772 6749 
0 770 4038 
0 770 21910 
0 770 35910 
0 770 35138 
0 770 29550 
0 770 6879 
0 770 12388 
0 770 27913 
0 770 36389 
0 768 15685 
0 768 24558 
0 768 2286 
0 768 12118 
0 768 542 
0 768 9911 
0 768 7535 
0 768 36715 
0 768 38712 
0 766 25039 
0 766 8896 
0 766 7841 
0 766 21284 
0 766 24390 
0 766 28270 
0 766 17546 
0 766 30909 
0 766 35473 
0 766 30989 
0 764 26998 
0 764 32679 
0 764 31958 
0 764 29976 
0 764 42435 
0 764 15244 
0 764 22200 
0 762 2288 
0 762 14922 
0 762 6682 
0 762 23328 
0 762 7143 
0 762 34306 
0 762 33166 
0 762 13284 
0 762 28035 
0 762 21839 
0 762 8842 
0 762 15582 
0 762 34540 
0 762 1769 
0 762 34878 
0 762 34942 
0 760 707 
0 760 10001 
0 760 1111 
0 760 19933 
0 760 9571 
0 760 4208 
0 760 29250 
0 760 28146 
0 760 25487 
0 760 2511 
0 760 26272 
0 760 17240 
0 760 22767 
0 760 23171 
0 938 443 
0 938 4430 
0 938 28124 
0 938 42754 
0 884 298 
0 884 3146 
0 884 24304 
0 884 28045 
0 884 25453 
0 884 25250 
0 884 35969 
0 884 29582 
0 884 24916 
0 884 12473 
0 884 5855 
0 884 34828 
0 884 8257 
0 884 30229 
0 884 16985 
0 884 31335 
0 884 38676 
0 884 3622 
0 884 25961 
0 884 20304 
0 884 37871 
0 884 31442 
0 884 34682 
0 884 3655 
0 884 8602 
0 884 646 
0 884 470 
0 884 14736 
0 884 39118 
0 884 16131 
0 884 34666 
0 884 30093 
0 884 6215 
0 884 16578 
0 884 906 
0 884 5396 
0 884 3087 
0 884 986 
0 884 38159 
0 884 8972 
0 884 26755 
0 884 8612 
0 884 15635 
0 884 39162 
0 884 33846 
0 884 12115 
0 884 4368 
0 884 9167 
0 884 12533 
0 884 31018 
0 884 18027 
0 884 30055 
0 884 960 
0 884 13036 
0 884 5338 
0 884 12107 
0 884 21530 
0 884 39452 
0 884 37102 
0 884 5452 
0 884 1098 
0 884 14777 
0 884 38663 
0 884 35915 
0 884 39996 
0 884 5229 
0 884 29343 
0 884 9092 
0 884 31387 
0 884 19394 
0 884 37877 
0 884 40615 
0 884 25117 
0 884 35283 
0 884 40388 
0 884 32061 
0 884 39837 
0 884 3162 
0 884 7855 
0 884 9794 
0 884 16500 
0 884 37583 
0 884 11442 
0 884 43117 
0 884 26681 
0 884 17502 
0 884 6621 
0 884 31231 
0 884 2458 
0 884 35662 
0 884 42517 
0 884 3430 
0 884 23745 
0 884 799 
0 884 23335 
0 884 6370 
0 884 18861 
0 884 5000 
0 884 27243 
0 884 36369 
0 884 39755 
0 884 22894 
0 884 4915 
0 884 13778 
0 884 2160 
0 884 28455 
0 884 30801 
0 884 35754 
0 884 41609 
0 863 17477 
0 863 868 
0 854 38558 
0 854 29287 
0 854 5293 
0 854 28796 
0 854 25686 
0 854 10535 
0 854 33581 
0 854 9657 
0 854 14418 
0 854 36108 
0 854 8945 
0 854 40481 
0 854 43130 
0 854 39757 
0 854 29188 
0 854 1438 
0 854 7669 
0 854 39006 
0 854 246 
0 854 20997 
0 854 25453 
0 854 15658 
0 854 15820 
0 854 38362 
0 854 4017 
0 854 36687 
0 854 26369 
0 854 6667 
0 854 34854 
0 854 26372 
0 854 25250 
0 854 39359 
0 854 7957 
0 854 39317 
0 854 5697 
0 854 12278 
0 854 17181 
0 854 26848 
0 854 43953 
0 854 4024 
0 854 35969 
0 854 10655 
0 854 41564 
0 854 20901 
0 854 12321 
0 854 6918 
0 854 8866 
0 854 27204 
0 854 932 
0 854 6097 
0 854 16146 
0 854 31632 
0 854 38662 
0 854 33853 
0 854 42161 
0 854 14499 
0 854 32440 
0 854 39201 
0 854 11239 
0 854 40250 
0 854 3770 
0 854 30264 
0 854 34476 
0 854 29582 
0 854 4125 
0 854 21247 
0 854 36262 
0 854 30809 
0 854 25240 
0 854 4257 
0 854 30505 
0 854 13052 
0 854 33572 
0 854 37054 
0 854 28862 
0 854 22244 
0 854 23024 
0 854 8293 
0 854 31549 
0 854 28811 
0 854 39379 
0 854 13917 
0 854 18608 
0 854 10219 
0 854 33332 
0 854 24916 
0 854 23004 
0 854 35616 
0 854 32192 
0 854 40124 
0 854 25461 
0 854 33746 
0 854 25339 
0 854 37822 
0 854 3605 
0 854 40913 
0 854 28506 
0 854 32623 
0 854 21675 
0 854 26954 
0 854 42219 
0 854 21502 
0 854 41282 
0 854 512 
0 854 32674 
0 854 32058 
0 854 16688 
0 854 40461 
0 854 41998 
0 854 25576 
0 854 9398 
0 854 13409 
0 854 2164 
0 854 35362 
0 854 33548 
0 854 27451 
0 854 8374 
0 854 19288 
0 854 21710 
0 854 33920 
0 854 31562 
0 854 5137 
0 854 17988 
0 854 39429 
0 854 26914 
0 854 17772 
0 854 9253 
0 854 40841 
0 854 16658 
0 854 11025 
0 854 5190 
0 854 7006 
0 854 37113 
0 854 37040 
0 854 30588 
0 854 16342 
0 854 5397 
0 854 26742 
0 854 12473 
0 854 16187 
0 854 18500 
0 854 2636 
0 854 10895 
0 854 12035 
0 854 24818 
0 850 298 
0 850 3146 
0 850 3655 
0 850 8602 
0 850 646 
0 850 470 
0 850 12685 
0 850 906 
0 850 5396 
0 850 3087 
0 850 986 
0 850 4189 
0 850 59 
0 850 960 
0 850 13036 
0 850 5338 
0 850 678 
0 850 1142 
0 850 1323 
0 850 1098 
0 850 6418 
0 850 12215 
0 850 4773 
0 850 5229 
0 850 11000 
0 850 14014 
0 850 2503 
0 850 5481 
0 850 11442 
0 850 5921 
0 850 5444 
0 850 2458 
0 850 9905 
0 850 5917 
0 850 799 
0 850 6370 
0 850 16477 
0 850 1104 
0 850 4915 
0 850 13778 
0 850 2160 
0 835 2929 
0 835 3126 
0 835 479 
0 835 340 
0 835 7725 
0 834 4329 
0 834 1737 
0 834 86 
0 834 1608 
0 833 3684 
0 833 8770 
0 833 4800 
0 831 10627 
0 820 328 
0 820 9254 
0 820 924 
0 820 6691 
0 820 14068 
0 820 17477 
0 918 328 
0 918 9254 
0 918 924 
0 918 6691 
0 918 14068 
0 918 3427 
0 918 2242 
0 918 8594 
0 918 12498 
0 918 13881 
0 918 1806 
0 918 9475 
0 918 16881 
0 918 16506 
0 918 15805 
0 918 22093 
0 918 12458 
0 918 26621 
0 918 7895 
0 918 7615 
0 918 28255 
0 918 16156 
0 918 31939 
0 918 27976 
0 918 11233 
0 918 33102 
0 918 36899 
0 918 1491 
0 918 42326 
0 918 18304 
0 918 13906 
0 918 1346 
0 918 30412 
0 918 42987 
0 918 1428 
0 916 6130 
0 916 2929 
0 916 3126 
0 916 479 
0 916 340 
0 916 11302 
0 916 2733 
0 916 7456 
0 916 10190 
0 916 13977 
0 916 3800 
0 916 23963 
0 916 3804 
0 916 6109 
0 916 7399 
0 916 7359 
0 916 14237 
0 916 28425 
0 916 4948 
0 916 2323 
0 916 21800 
0 916 15112 
0 916 8421 
0 916 26018 
0 916 24442 
0 916 36363 
0 916 40769 
0 916 42780 
0 916 21809 
0 916 3788 
0 916 37275 
0 916 17178 
0 916 38962 
0 916 24637 
0 916 14750 
0 916 41976 
0 916 3587 
0 914 7725 
0 914 4329 
0 914 1737 
0 914 86 
0 914 7172 
0 914 1608 
0 914 10850 
0 914 6544 
0 914 9641 
0 914 20052 
0 914 4371 
0 914 1939 
0 914 7269 
0 914 24725 
0 914 6194 
0 914 29232 
0 914 36614 
0 914 16008 
0 914 22063 
0 914 8546 
0 914 13522 
0 914 22398 
0 914 20744 
0 914 7405 
0 914 15423 
0 914 42366 
0 914 37338 
0 914 43724 
0 914 38278 
0 914 14678 
0 912 3684 
0 912 3363 
0 912 8770 
0 912 4800 
0 912 352 
0 912 4651 
0 912 6827 
0 912 11262 
0 912 18127 
0 912 7815 
0 912 22173 
0 912 7452 
0 912 19705 
0 912 11400 
0 912 29578 
0 912 24136 
0 912 22472 
0 912 21849 
0 912 8297 
0 912 26464 
0 912 35533 
0 912 16305 
0 912 4347 
0 912 40251 
0 912 42761 
0 912 35808 
0 912 6996 
0 912 43631 
0 912 29567 
0 910 10627 
0 910 15858 
0 910 17787 
0 910 8670 
0 910 8956 
0 910 26065 
0 910 16753 
0 910 32205 
0 910 13804 
0 910 10417 
0 910 23927 
0 910 18870 
0 910 3352 
0 910 3632 
0 910 34750 
0 910 16340 
0 910 26615 
0 910 13986 
0 910 28300 
0 885 12685 
0 885 4189 
0 885 59 
0 885 678 
0 885 1142 
0 885 1323 
0 885 7721 
0 885 6418 
0 885 12215 
0 885 4773 
0 885 11000 
0 885 13101 
0 885 14014 
0 885 2503 
0 885 5481 
0 885 20653 
0 885 5921 
0 885 5444 
0 885 9905 
0 885 5917 
0 885 35322 
0 885 16477 
0 885 1104 
0 885 23632 
0 885 2424 
0 853 32044 
0 853 26278 
0 853 24047 
0 853 36350 
0 853 35027 
0 853 33610 
0 853 27958 
0 853 8495 
0 853 35001 
0 853 33893 
0 853 18411 
0 853 39956 
0 853 40149 
0 853 10083 
0 853 22894 
0 853 38999 
0 853 41039 
0 853 6305 
0 853 39194 
0 802 10627 
0 802 15858 
0 802 17787 
0 802 8670 
0 802 8956 
0 802 26065 
0 802 16753 
0 802 32205 
0 802 26464 
0 802 13804 
0 802 10417 
0 802 23927 
0 802 18870 
0 802 3352 
0 802 3632 
0 802 34750 
0 802 16340 
0 802 26615 
0 802 13986 
0 802 28300 
0 800 3684 
0 800 3363 
0 800 8770 
0 800 4800 
0 800 352 
0 800 4651 
0 800 6827 
0 800 11262 
0 800 18127 
0 800 7815 
0 800 22173 
0 800 7452 
0 800 19705 
0 800 11400 
0 800 29578 
0 800 24136 
0 800 22472 
0 800 21849 
0 800 8297 
0 800 13522 
0 800 35533 
0 800 16305 
0 800 4347 
0 800 40251 
0 800 42761 
0 800 35808 
0 800 6996 
0 800 43631 
0 800 29567 
0 798 7725 
0 798 4329 
0 798 1737 
0 798 86 
0 798 7172 
0 798 1608 
0 798 10850 
0 798 6544 
0 798 9641 
0 798 20052 
0 798 4371 
0 798 1939 
0 798 7269 
0 798 24725 
0 798 6194 
0 798 29232 
0 798 2323 
0 798 36614 
0 798 16008 
0 798 22063 
0 798 8546 
0 798 22398 
0 798 20744 
0 798 7405 
0 798 15423 
0 798 42366 
0 798 37338 
0 798 43724 
0 798 38278 
0 798 14678 
0 796 6130 
0 796 2929 
0 796 3126 
0 796 479 
0 796 340 
0 796 11302 
0 796 2733 
0 796 7456 
0 796 10190 
0 796 13977 
0 796 3800 
0 796 23963 
0 796 3804 
0 796 6109 
0 796 7399 
0 796 7359 
0 796 14237 
0 796 28425 
0 796 4948 
0 796 21800 
0 796 15112 
0 796 8421 
0 796 26018 
0 796 24442 
0 796 36363 
0 796 40769 
0 796 42780 
0 796 21809 
0 796 3788 
0 796 37275 
0 796 17178 
0 796 38962 
0 796 24637 
0 796 14750 
0 796 41976 
0 796 3587 
0 794 328 
0 794 9254 
0 794 924 
0 794 6691 
0 794 14068 
0 794 3427 
0 794 2242 
0 794 8594 
0 794 12498 
0 794 13881 
0 794 4788 
0 794 1806 
0 794 9475 
0 794 16881 
0 794 16506 
0 794 15805 
0 794 22093 
0 794 12458 
0 794 26621 
0 794 7895 
0 794 9455 
0 794 28255 
0 794 16156 
0 794 31939 
0 794 27976 
0 794 11233 
0 794 35487 
0 794 36899 
0 794 1491 
0 794 42326 
0 794 2151 
0 794 13906 
0 794 1346 
0 794 36746 
0 794 30412 
0 794 16161 
0 794 1428 
0 919 4788 
0 919 9455 
0 919 35487 
0 919 2151 
0 919 36746 
0 919 16161 
0 795 7615 
0 795 33102 
0 795 18304 
0 795 42987 
0 920 4788 
0 855 12389 
0 855 34670 
0 855 14729 
0 855 1420 
0 855 38590 
0 852 12736 
0 852 28346 
0 852 18806 
0 852 6080 
0 852 33871 
0 852 19223 
1 661 2909 
1 661 126 
1 661 2696 
1 659 2909 
1 659 126 
1 659 2696 
1 659 747 
1 659 2620 
1 659 3843 
1 764 868 
1 764 4507 
1 764 1771 
1 764 1663 
1 764 7493 
1 764 2898 
1 764 18357 
1 764 11771 
1 764 6697 
1 766 1120 
1 766 9526 
1 766 2811 
1 766 6279 
1 660 2909 
1 660 126 
1 660 2696 
1 660 747 
1 660 4739 
1 660 4124 
1 660 1548 
1 660 2620 
1 660 3843 
1 763 868 
1 763 4507 
1 763 1771 
1 763 1663 
1 763 7493 
1 763 2898 
1 763 18357 
1 763 11771 
1 763 6697 
1 765 1120 
1 765 9526 
1 765 2811 
1 765 6279 
0 908 33688 
0 908 32902 
0 908 767 
0 894 37809 
0 894 36099 
0 894 1816 
0 894 2313 
0 894 34909 
0 894 39256 
0 894 13388 
0 894 34806 
0 894 3750 
0 894 40659 
0 894 38110 
0 894 1368 
0 894 8375 
0 894 13595 
0 894 40629 
0 894 16679 
0 894 1221 
0 894 28453 
0 894 28149 
0 894 30604 
0 894 9161 
0 894 15600 
0 894 14919 
0 894 37079 
0 894 42266 
0 894 8895 
0 894 1508 
0 894 2111 
0 894 10581 
0 894 8993 
0 894 12160 
0 894 36693 
0 894 30460 
0 894 39234 
0 894 22315 
0 894 32150 
0 894 40507 
0 894 11249 
0 894 41690 
0 894 556 
0 894 39557 
0 894 40214 
0 894 35494 
0 894 29896 
0 894 42835 
0 894 35546 
0 894 38993 
0 894 20509 
0 894 9271 
0 867 6732 
0 866 8322 
0 855 33767 
0 855 16028 
0 855 31681 
0 855 18802 
0 855 15796 
0 855 12636 
0 855 8156 
0 855 40427 
0 855 19311 
0 855 14324 
0 855 29328 
0 855 20610 
0 855 19896 
0 855 11872 
0 855 12824 
0 855 880 
0 855 11214 
0 855 12582 
0 855 16307 
0 855 40440 
0 855 25231 
0 855 20259 
0 855 40656 
0 855 11199 
0 855 35805 
0 855 17943 
0 855 22250 
0 855 30782 
0 855 28465 
0 855 3827 
0 855 35102 
0 855 42301 
0 855 22044 
0 855 36139 
0 855 29067 
0 855 40002 
0 855 21263 
0 855 29718 
0 855 24506 
0 855 34714 
0 855 23144 
0 855 24434 
0 855 1923 
0 855 1576 
0 855 9614 
0 855 24897 
0 855 15828 
0 855 33914 
0 855 16480 
0 855 39300 
0 855 22179 
0 855 14306 
0 846 6845 
0 818 17410 
0 818 16923 
0 736 7189 
0 736 9837 
0 736 33688 
0 736 32902 
0 736 767 
0 962 8837 
0 962 17410 
0 962 16923 
0 962 1947 
0 962 15183 
0 962 851 
0 962 10313 
0 962 16104 
0 962 8043 
0 962 4685 
0 962 6797 
0 962 2740 
0 962 37357 
0 962 13137 
0 962 6917 
0 962 3809 
0 962 23643 
0 962 4783 
0 962 23437 
0 962 20328 
0 962 2464 
0 962 33518 
0 962 30646 
0 960 19163 
0 960 13154 
0 960 23721 
0 960 19810 
0 960 22493 
0 960 11440 
0 960 5132 
0 960 22978 
0 960 23047 
0 958 14311 
0 958 29904 
0 958 10569 
0 958 25651 
0 958 16970 
0 958 27464 
0 956 6845 
0 956 16868 
0 956 7200 
0 956 3269 
0 956 5219 
0 956 15772 
0 956 21914 
0 956 30730 
0 956 38084 
0 956 43563 
0 956 2661 
0 954 7998 
0 954 16657 
0 954 5468 
0 954 23697 
0 954 2203 
0 954 12543 
0 954 20849 
0 954 27554 
0 954 28310 
0 954 35497 
0 954 28985 
0 954 10536 
0 954 20698 
0 954 40496 
0 895 7189 
0 895 9837 
0 895 7551 
0 758 7998 
0 758 16657 
0 758 5468 
0 758 23697 
0 758 2203 
0 758 12543 
0 758 20849 
0 758 27554 
0 758 28310 
0 758 35497 
0 758 28985 
0 758 10536 
0 758 20698 
0 758 40496 
0 756 6845 
0 756 16868 
0 756 7200 
0 756 3269 
0 756 5219 
0 756 15772 
0 756 21914 
0 756 30730 
0 756 38084 
0 756 43563 
0 756 2661 
0 754 14311 
0 754 29904 
0 754 10569 
0 754 25651 
0 754 27464 
0 752 19163 
0 752 13154 
0 752 23721 
0 752 19810 
0 752 22493 
0 752 11440 
0 752 5132 
0 752 23047 
0 750 8837 
0 750 17410 
0 750 16923 
0 750 1947 
0 750 15183 
0 750 851 
0 750 10313 
0 750 16104 
0 750 8043 
0 750 6797 
0 750 2740 
0 750 37357 
0 750 6917 
0 750 3809 
0 750 23643 
0 750 4783 
0 750 23437 
0 750 20328 
0 750 2464 
0 750 30646 
0 753 22978 
0 751 4685 
0 751 13137 
0 751 33518 
0 847 5468 
0 836 14311 
0 861 137 
0 861 684 
0 857 5221 
0 857 1118 
0 857 9554 
0 857 23722 
0 857 7198 
0 854 1602 
0 854 12571 
0 854 43225 
0 854 13725 
0 854 26542 
0 854 23865 
0 854 27226 
0 822 137 
0 822 684 
0 820 5221 
0 820 1118 
0 820 9554 
0 820 23722 
0 820 7198 
0 858 12233 
0 828 8322 
0 827 12233 
1 788 6732 
1 788 188 
1 788 3073 
1 788 690 
1 788 8704 
1 788 3217 
1 842 188 
1 842 3073 
1 842 690 
1 842 13037 
1 842 8507 
1 844 6732 
1 844 1684 
1 844 2250 
1 844 5134 
1 844 16348 
1 844 1365 
1 844 13591 
1 787 188 
1 787 3073 
1 787 690 
1 787 13037 
1 787 8507 
1 787 8704 
1 787 3217 
1 843 188 
1 843 3073 
1 843 13591 
0 938 11448 
0 938 44266 
0 936 1480 
0 936 27213 
0 934 5354 
0 934 115 
0 934 28097 
0 934 766 
0 934 21698 
0 932 23611 
0 932 30611 
0 932 35156 
0 932 7991 
0 932 33630 
0 932 17360 
0 932 3692 
0 932 2349 
0 930 8094 
0 930 22901 
0 930 3160 
0 930 32822 
0 928 3693 
0 928 7193 
0 928 14203 
0 928 10970 
0 926 13864 
0 926 6366 
0 926 4581 
0 926 21256 
0 926 418 
0 926 30732 
0 924 36924 
0 924 16117 
0 924 20381 
0 924 13195 
0 924 2767 
0 922 35739 
0 922 24975 
0 922 16957 
0 922 4143 
0 922 11951 
0 922 13422 
0 920 5960 
0 920 14687 
0 920 858 
0 920 11869 
0 920 7703 
0 792 5960 
0 792 858 
0 792 11453 
0 792 11869 
0 790 19756 
0 790 35739 
0 790 10505 
0 790 24975 
0 790 11951 
0 790 19057 
0 788 2948 
0 788 36924 
0 788 16117 
0 788 20381 
0 788 19269 
0 788 28131 
0 788 13195 
0 786 6366 
0 786 23543 
0 784 3693 
0 784 7193 
0 784 1880 
0 784 28416 
0 782 1656 
0 782 8975 
0 782 8094 
0 782 17360 
0 782 22901 
0 780 23611 
0 780 30611 
0 780 7991 
0 780 33630 
0 780 5965 
0 778 115 
0 778 28097 
0 778 33633 
0 778 766 
0 778 14612 
0 776 2005 
0 937 2005 
0 935 33633 
0 935 14612 
0 933 5965 
0 931 1656 
0 931 8975 
0 931 17360 
0 929 1880 
0 929 28416 
0 927 23543 
0 925 2948 
0 925 19269 
0 925 28131 
0 923 19756 
0 923 10505 
0 923 19057 
0 921 11453 
0 793 14687 
0 793 7703 
0 791 16957 
0 791 4143 
0 791 13422 
0 789 2767 
0 787 13864 
0 787 4581 
0 787 21256 
0 787 418 
0 787 30732 
0 785 14203 
0 785 10970 
0 783 3160 
0 783 32822 
0 781 3692 
0 781 2349 
0 779 5354 
0 779 21698 
0 777 1480 
0 775 11448 
0 952 40321 
0 950 25985 
0 950 17912 
0 948 35729 
0 948 27750 
0 946 304 
0 946 14821 
0 944 33940 
0 944 32975 
0 944 34243 
0 942 24017 
0 942 19422 
0 942 7667 
0 940 5829 
0 774 24512 
0 774 391 
0 772 19422 
0 770 24017 
0 768 28192 
0 768 39396 
0 766 304 
0 766 14821 
0 764 27750 
0 764 17912 
0 762 25985 
0 762 40321 
0 945 28192 
0 945 39396 
0 773 5829 
0 769 33940 
0 769 34243 
0 765 35729 
0 938 24512 
0 938 391 
0 918 20565 
0 918 29907 
0 918 970 
0 918 13878 
0 918 37726 
0 918 5327 
0 918 1897 
0 918 20891 
0 918 29357 
0 916 38414 
0 916 39127 
0 916 32673 
0 916 36888 
0 916 12662 
0 916 3466 
0 916 6325 
0 914 4885 
0 914 25786 
0 914 13554 
0 914 37414 
0 914 20267 
0 912 43676 
0 912 35839 
0 912 38408 
0 910 38523 
0 885 9251 
0 885 33640 
0 885 6539 
0 885 832 
0 885 17366 
0 885 11314 
0 885 10492 
0 885 3216 
0 885 5684 
0 885 2459 
0 885 8961 
0 885 4149 
0 885 6404 
0 885 12637 
0 885 3758 
0 885 3424 
0 885 8401 
0 885 11104 
0 885 6983 
0 885 15181 
0 885 2938 
0 885 12664 
0 885 36491 
0 885 6398 
0 885 2263 
0 885 18586 
0 885 13239 
0 885 708 
0 885 12 
0 885 1254 
0 885 2059 
0 885 6434 
0 885 5160 
0 885 10202 
0 885 68 
0 885 12010 
0 885 2152 
0 885 6209 
0 885 4231 
0 885 295 
0 885 11003 
0 885 1931 
0 885 884 
0 885 9142 
0 885 368 
0 885 983 
0 885 3140 
0 885 3999 
0 885 4379 
0 885 387 
0 885 1719 
0 885 2050 
0 885 522 
0 885 2249 
0 885 39922 
0 885 9967 
0 885 907 
0 885 2946 
0 885 691 
0 885 6028 
0 885 1470 
0 885 43 
0 885 334 
0 885 20868 
0 885 7718 
0 885 2 
0 885 43770 
0 885 3130 
0 885 5666 
0 885 3194 
0 885 5398 
0 885 995 
0 885 1980 
0 885 19753 
0 885 2466 
0 885 16655 
0 885 259 
0 885 683 
0 885 193 
0 885 1979 
0 885 40720 
0 885 35258 
0 885 2209 
0 885 35964 
0 885 23361 
0 885 452 
0 885 2638 
0 885 1783 
0 885 146 
0 885 3718 
0 885 1269 
0 885 2400 
0 885 42462 
0 885 23181 
0 885 1630 
0 885 7797 
0 885 8551 
0 885 2183 
0 885 1102 
0 885 6565 
0 885 3748 
0 885 39432 
0 885 37300 
0 885 294 
0 885 953 
0 885 121 
0 885 66 
0 885 56 
0 885 20338 
0 885 23525 
0 885 95 
0 885 515 
0 885 27993 
0 885 118 
0 885 2519 
0 885 3 
0 885 12682 
0 885 5509 
0 885 31606 
0 885 14190 
0 885 2547 
0 885 385 
0 885 438 
0 885 4417 
0 885 3769 
0 885 7923 
0 885 9678 
0 885 2355 
0 885 16530 
0 885 36657 
0 885 43354 
0 885 3392 
0 885 317 
0 885 128 
0 885 21 
0 885 15026 
0 885 531 
0 885 1795 
0 885 6038 
0 885 1801 
0 885 18645 
0 885 34613 
0 885 43787 
0 885 2750 
0 885 343 
0 885 318 
0 885 905 
0 885 5678 
0 885 1328 
0 885 8572 
0 885 93 
0 885 653 
0 885 39 
0 885 14 
0 885 49 
0 885 19494 
0 885 12735 
0 885 2324 
0 885 43624 
0 885 13216 
0 885 37349 
0 885 386 
0 885 12862 
0 885 20652 
0 885 39447 
0 853 31986 
0 853 42976 
0 853 28894 
0 853 24002 
0 853 37665 
0 853 12382 
0 853 39258 
0 853 26419 
0 853 37282 
0 853 30538 
0 853 15424 
0 853 36680 
0 853 279 
0 853 5224 
0 853 41220 
0 853 11571 
0 853 22079 
0 853 21923 
0 853 39958 
0 853 12728 
0 853 28031 
0 853 18585 
0 853 43283 
0 853 7672 
0 853 9420 
0 853 13276 
0 853 3064 
0 853 24743 
0 853 39625 
0 853 19560 
0 853 31422 
0 853 43392 
0 853 31332 
0 853 19935 
0 853 34699 
0 853 23302 
0 853 38598 
0 853 3779 
0 853 31032 
0 853 42374 
0 853 5263 
0 853 27253 
0 853 28120 
0 853 11071 
0 853 13639 
0 853 18010 
0 853 34845 
0 853 2961 
0 853 15036 
0 853 42555 
0 853 29367 
0 853 13811 
0 853 21399 
0 853 39061 
0 853 26733 
0 853 3876 
0 853 30124 
0 853 4364 
0 853 41550 
0 853 37489 
0 853 39502 
0 853 42447 
0 853 42203 
0 853 10703 
0 853 42716 
0 851 6552 
0 851 1980 
0 851 193 
0 851 2209 
0 851 3718 
0 851 1269 
0 851 2400 
0 851 1102 
0 851 6565 
0 851 3748 
0 851 20338 
0 851 2519 
0 851 3 
0 851 12682 
0 851 5509 
0 851 3769 
0 851 7923 
0 851 9678 
0 851 2355 
0 851 15026 
0 851 531 
0 851 1795 
0 851 6038 
0 851 1801 
0 851 318 
0 851 905 
0 851 5678 
0 851 1328 
0 851 8572 
0 851 14 
0 851 49 
0 851 19494 
0 851 12735 
0 851 2324 
0 851 386 
0 802 19495 
0 802 38523 
0 802 28856 
0 800 29761 
0 800 35839 
0 800 38408 
0 798 4885 
0 798 39772 
0 798 25786 
0 796 38414 
0 796 32673 
0 796 36888 
0 796 31344 
0 796 3466 
0 796 19245 
0 794 5314 
0 794 20565 
0 794 29907 
0 794 12804 
0 794 970 
0 794 13878 
0 794 2944 
0 794 5327 
0 794 14188 
0 794 1747 
0 794 439 
0 919 5314 
0 919 2944 
0 919 14188 
0 919 1747 
0 919 439 
0 917 31344 
0 917 19245 
0 915 39772 
0 913 29761 
0 911 19495 
0 911 28856 
0 801 43676 
0 799 13554 
0 799 37414 
0 799 20267 
0 797 39127 
0 797 12662 
0 797 6325 
0 795 37726 
0 795 1897 
0 795 20891 
0 795 29357 
0 884 10964 
0 884 43498 
0 884 29806 
0 884 20885 
0 884 5016 
0 884 41155 
0 884 43646 
0 884 26757 
0 884 6552 
0 884 4419 
0 884 19683 
0 884 31242 
0 884 31986 
0 884 31729 
0 884 25092 
0 884 20428 
0 884 9476 
0 884 40085 
0 884 35386 
0 884 1915 
0 884 35286 
0 884 34837 
0 884 8078 
0 884 32941 
0 884 33979 
0 884 23333 
0 884 39608 
0 884 39942 
0 884 39848 
0 884 34410 
0 884 43234 
0 884 1784 
0 884 11540 
0 884 9926 
0 884 19345 
0 884 1949 
0 884 19466 
0 884 27664 
0 884 30094 
0 884 41230 
0 884 39958 
0 884 586 
0 884 727 
0 884 42679 
0 884 41765 
0 884 11398 
0 884 12777 
0 884 24355 
0 884 29437 
0 884 40359 
0 884 42964 
0 884 40007 
0 884 17926 
0 884 3485 
0 884 28388 
0 884 39279 
0 884 40636 
0 884 38925 
0 884 23647 
0 884 6750 
0 884 39682 
0 884 43296 
0 884 38342 
0 884 13811 
0 884 39414 
0 884 37489 
0 850 9251 
0 850 6539 
0 850 832 
0 850 17366 
0 850 5016 
0 850 11314 
0 850 10492 
0 850 3216 
0 850 5684 
0 850 2459 
0 850 8961 
0 850 4149 
0 850 6404 
0 850 12637 
0 850 3758 
0 850 3424 
0 850 8401 
0 850 11104 
0 850 6983 
0 850 15181 
0 850 2938 
0 850 12664 
0 850 6398 
0 850 2263 
0 850 18586 
0 850 13239 
0 850 708 
0 850 12 
0 850 1254 
0 850 2059 
0 850 6434 
0 850 5160 
0 850 10202 
0 850 68 
0 850 2152 
0 850 6209 
0 850 4231 
0 850 295 
0 850 11003 
0 850 1931 
0 850 884 
0 850 9142 
0 850 368 
0 850 983 
0 850 3140 
0 850 3999 
0 850 4379 
0 850 387 
0 850 1719 
0 850 2050 
0 850 522 
0 850 2249 
0 850 9967 
0 850 907 
0 850 2946 
0 850 691 
0 850 6028 
0 850 1470 
0 850 43 
0 850 334 
0 850 20868 
0 850 7718 
0 850 2 
0 850 3130 
0 850 5666 
0 850 3194 
0 850 5398 
0 850 995 
0 850 16655 
0 850 259 
0 850 683 
0 850 452 
0 850 2638 
0 850 1783 
0 850 146 
0 850 1630 
0 850 7797 
0 850 8551 
0 850 2183 
0 850 953 
0 850 121 
0 850 66 
0 850 56 
0 850 95 
0 850 515 
0 850 27993 
0 850 118 
0 850 2547 
0 850 385 
0 850 438 
0 850 4417 
0 850 317 
0 850 128 
0 850 21 
0 850 2750 
0 850 343 
0 850 93 
0 850 653 
0 850 39 
0 920 12804 
1 662 173 
1 662 2498 
1 662 825 
1 662 28231 
1 1689 38317 
1 764 1108 
1 764 6479 
1 764 78 
1 764 5030 
1 764 11787 
1 764 7115 
1 764 4624 
1 764 18528 
1 764 6709 
1 764 2244 
1 764 9338 
1 764 10702 
1 764 28288 
1 764 12137 
1 764 9268 
1 764 485 
1 764 8323 
1 764 26706 
1 764 17868 
1 764 31889 
1 764 21950 
1 764 26941 
1 764 23908 
1 764 36645 