ITEM: TIMESTEP
20000000
ITEM: NUMBER OF ENTRIES
3478
ITEM: BOX BOUNDS ff ff ff
-0.01 0.45
-0.15 0.15
-0.08 0.1
ITEM: ENTRIES c_ppc[1] c_ppc[2] c_ppc[3] c_ppc[4] 
2760 570 0 0.00013021 
412 570 0 0.000204937 
33 1048 0 0.000594835 
1048 4332 0 1.25633e-05 
927 197 0 0.000434925 
2894 136 0 4.48696e-06 
3626 358 0 4.10881e-05 
3626 650 0 2.76456e-05 
4418 4402 0 4.34237e-05 
2672 476 0 4.66834e-05 
2672 1975 0 3.84352e-05 
4906 4130 0 3.65626e-05 
358 1398 0 3.77638e-05 
1398 658 0 5.61221e-05 
1221 4713 0 1.03971e-05 
4402 1975 0 1.82007e-05 
4713 869 0 3.18886e-05 
49 2856 0 2.74605e-05 
3140 1099 0 9.50938e-06 
3140 3568 0 1.74485e-05 
161 1720 0 5.29282e-05 
483 4474 0 1.9714e-05 
3164 566 0 6.48079e-07 
2696 3283 0 2.70376e-06 
3256 4151 0 7.99429e-06 
4548 3114 0 6.42936e-06 
1652 2311 0 3.50996e-06 
3624 2569 0 1.25801e-06 
3624 1097 0 5.6163e-06 
4151 845 0 7.76918e-06 
4151 4256 0 7.56672e-06 
908 2188 0 1.95234e-06 
713 4256 0 2.85643e-06 
713 2015 0 5.81157e-06 
4598 2522 0 1.27055e-05 
4256 2570 0 9.14265e-06 
1305 3824 0 6.87574e-06 
1305 2067 0 5.75456e-06 
3279 3824 0 4.55285e-06 
3279 4460 0 5.74172e-06 
1680 1324 0 3.78486e-05 
2747 2485 0 4.7844e-06 
2067 190 0 7.82267e-06 
2585 2861 0 5.16062e-06 
2282 4420 0 2.48849e-06 
4460 3050 0 3.86489e-06 
1316 3456 0 7.08273e-06 
3456 1532 0 4.63588e-06 
3456 104 0 4.80531e-06 
3456 2799 0 6.66245e-06 
1402 4098 0 4.11765e-07 
2485 460 0 4.62465e-06 
2294 3726 0 1.34383e-06 
1935 3861 0 4.50504e-07 
3726 3175 0 2.71802e-06 
3861 3175 0 3.9821e-06 
3861 2828 0 3.53879e-06 
190 2828 0 1.71499e-06 
3175 3698 0 8.03547e-06 
460 2391 0 5.29233e-06 
3698 3072 0 3.76812e-06 
4420 2071 0 2.39647e-06 
4420 2861 0 7.63164e-06 
4420 3072 0 5.35416e-06 
2861 413 0 3.30114e-06 
2391 3793 0 3.74135e-06 
3793 3050 0 3.72027e-06 
4806 230 0 1.61449e-05 
3573 869 0 3.40409e-05 
3124 3697 0 1.61291e-05 
4072 376 0 1.6095e-06 
4816 1160 0 4.72833e-05 
4808 3715 0 5.67155e-06 
4808 3825 0 1.29626e-05 
2887 915 0 8.5824e-06 
588 121 0 1.53537e-05 
121 3438 0 1.63697e-05 
121 1421 0 4.57464e-06 
121 4392 0 1.61907e-05 
3438 4377 0 1.80678e-05 
4377 4653 0 1.79018e-05 
4377 3666 0 6.88596e-07 
4377 2518 0 9.00243e-06 
4653 2611 0 3.68899e-06 
1421 4369 0 7.02071e-06 
2611 406 0 1.86376e-06 
2611 2764 0 7.74687e-06 
3666 406 0 4.93593e-06 
3666 1580 0 9.97741e-06 
1580 4394 0 1.25689e-05 
1580 3851 0 7.75601e-06 
2764 3637 0 1.78728e-06 
2764 1027 0 6.28886e-06 
2764 4176 0 9.31666e-06 
1027 972 0 5.76569e-06 
4394 1268 0 2.2297e-05 
4394 1627 0 1.55765e-05 
4394 972 0 3.89713e-06 
4394 2031 0 3.98164e-06 
2325 4306 0 2.42439e-07 
2325 445 0 6.66239e-06 
3347 1268 0 2.37022e-05 
3347 2499 0 1.39268e-05 
1268 907 0 1.12507e-05 
1627 3157 0 1.53998e-05 
1627 972 0 5.42218e-06 
4306 2844 0 3.59428e-06 
2815 849 0 4.58928e-06 
4877 2054 0 9.32688e-06 
3715 2724 0 8.83612e-06 
1517 4430 0 8.68559e-07 
972 677 0 2.41285e-06 
4176 796 0 7.42183e-06 
445 3157 0 1.15081e-05 
445 2858 0 3.21982e-06 
445 796 0 1.0769e-05 
3157 4435 0 7.13421e-06 
496 1843 0 1.3224e-05 
1843 38 0 9.62375e-06 
3697 9 0 7.87404e-06 
304 3262 0 1.19111e-05 
304 4319 0 4.65881e-06 
2595 2518 0 2.06168e-05 
4392 240 0 1.23071e-05 
2518 2557 0 6.20684e-06 
387 240 0 6.09636e-05 
514 1953 0 3.50084e-05 
4564 183 0 8.68211e-07 
1709 1380 0 5.68763e-06 
1709 4549 0 1.49898e-05 
3851 1078 0 6.85371e-06 
3851 183 0 6.05147e-06 
3851 4137 0 5.09697e-06 
3862 183 0 7.93498e-06 
3746 4137 0 8.7522e-07 
1380 2605 0 3.02174e-06 
1644 3648 0 4.60723e-06 
4435 1557 0 6.0431e-06 
796 4086 0 1.18561e-06 
796 506 0 5.14206e-06 
796 2543 0 7.24749e-06 
849 2682 0 4.47683e-06 
2054 1972 0 5.98136e-06 
2187 3841 0 4.68388e-05 
38 4929 0 2.6594e-05 
4206 2724 0 1.72747e-05 
3262 1160 0 4.54081e-05 
3262 2625 0 4.41025e-05 
4319 3845 0 5.07643e-06 
4319 2625 0 4.17984e-06 
4319 4439 0 9.71942e-06 
240 2151 0 0.000215492 
240 4719 0 7.1842e-05 
2557 26 0 1.32876e-07 
2557 87 0 6.2874e-07 
4549 2605 0 1.57838e-05 
1078 4719 0 1.19182e-05 
4137 175 0 2.39771e-06 
4137 206 0 2.67791e-06 
677 2457 0 3.03497e-06 
3867 2913 0 1.01407e-06 
1557 4494 0 6.17648e-07 
3648 1098 0 6.85873e-06 
2682 4494 0 2.44654e-06 
2682 2831 0 4.12753e-06 
4341 3299 0 3.06754e-06 
4341 2457 0 3.31245e-06 
2543 1019 0 2.30269e-06 
2543 1041 0 3.99757e-06 
2543 3299 0 1.91885e-06 
1569 4929 0 0.000145553 
1771 2437 0 5.70682e-06 
3792 3597 0 4.8622e-06 
2151 4115 0 7.02348e-05 
4269 2788 0 8.28801e-07 
4269 4382 0 7.07487e-06 
4719 26 0 7.89301e-06 
4719 421 0 2.13458e-06 
26 87 0 1.45879e-06 
1953 4115 0 0.000139412 
175 3490 0 2.5025e-06 
175 3063 0 6.63879e-06 
1846 4208 0 4.85724e-07 
1846 4093 0 1.39631e-05 
206 3063 0 2.0643e-06 
206 2203 0 2.63517e-06 
2457 4672 0 3.30564e-06 
4494 2889 0 2.2371e-07 
2831 1043 0 3.86751e-06 
1098 2712 0 6.14725e-06 
2437 4382 0 9.72132e-06 
4115 1218 0 9.22947e-05 
4032 3597 0 8.03183e-06 
1218 3490 0 5.43e-06 
1218 4093 0 3.48127e-05 
1218 54 0 3.96943e-05 
2727 4672 0 8.16942e-06 
2727 52 0 4.77083e-06 
2727 2632 0 1.1305e-05 
4093 1883 0 1.84577e-05 
4672 3045 0 4.10616e-06 
4237 3301 0 8.29912e-07 
2889 2800 0 2.10684e-06 
1180 3045 0 1.34693e-05 
1180 1978 0 8.39087e-06 
1043 3301 0 1.97571e-06 
4291 2482 0 5.71575e-06 
4291 1406 0 2.45594e-06 
2948 2576 0 7.25102e-05 
2183 3923 0 9.40688e-06 
4539 1872 0 2.63676e-06 
4539 1567 0 2.60156e-06 
4539 1875 0 1.41581e-06 
4539 2383 0 2.68352e-06 
4539 2130 0 1.88298e-06 
1124 1748 0 1.20336e-05 
755 3490 0 1.76738e-06 
4614 3045 0 1.24206e-05 
4614 4286 0 1.1023e-05 
4614 2632 0 3.28551e-06 
3045 1540 0 3.96092e-06 
3045 773 0 1.05494e-05 
2800 3982 0 3.38231e-06 
2800 1883 0 1.16659e-06 
2800 3629 0 2.16346e-06 
1540 2632 0 2.4758e-06 
1540 4540 0 5.64026e-06 
1540 773 0 4.66547e-06 
1978 2048 0 9.02183e-06 
564 414 0 1.03889e-05 
4177 2097 0 4.74926e-06 
4177 316 0 2.14493e-06 
2712 3850 0 1.04036e-05 
2482 2481 0 6.92189e-06 
2576 1167 0 4.07695e-05 
1748 4286 0 1.45271e-05 
1167 54 0 3.13312e-05 
1167 366 0 4.38492e-05 
1167 431 0 1.09517e-05 
4286 603 0 3.87183e-06 
54 997 0 2.24342e-05 
54 2620 0 1.57723e-05 
997 2320 0 9.39733e-06 
997 366 0 9.12168e-06 
997 1036 0 2.78037e-06 
3982 2620 0 3.32244e-08 
2632 1463 0 1.25393e-05 
1883 113 0 3.71235e-05 
1883 3202 0 1.0367e-05 
2320 414 0 7.84562e-06 
2320 1036 0 7.02055e-06 
773 4231 0 6.74061e-06 
773 3797 0 8.52176e-06 
773 308 0 5.0525e-06 
2048 1406 0 5.09784e-06 
2048 4597 0 1.23266e-05 
2048 1391 0 1.38518e-05 
2097 3629 0 5.41346e-06 
2097 1391 0 1.02854e-05 
2097 2866 0 7.5096e-06 
4597 3991 0 1.4869e-05 
3850 2866 0 7.95836e-06 
3850 3849 0 9.25264e-06 
2692 2649 0 2.08311e-06 
3880 431 0 1.78253e-05 
3190 3442 0 2.75999e-05 
3190 204 0 2.95942e-05 
4893 2939 0 1.55107e-06 
4893 2012 0 3.35961e-05 
4893 1422 0 8.76508e-06 
4893 1898 0 7.98355e-06 
1422 2880 0 4.81042e-06 
366 1898 0 8.87574e-06 
603 4231 0 5.68309e-06 
3442 2620 0 1.78127e-05 
3442 113 0 4.18067e-05 
3442 1325 0 3.60896e-05 
2736 1788 0 4.01445e-06 
113 2707 0 3.85835e-05 
2620 4778 0 7.0314e-06 
1463 4540 0 1.30323e-05 
1463 1036 0 4.14459e-06 
1463 1844 0 2.06018e-05 
3712 3629 0 8.36188e-06 
3712 1036 0 3.66953e-06 
3712 3444 0 5.14205e-06 
4540 1227 0 1.53522e-05 
3202 3849 0 7.0269e-06 
3202 2782 0 1.64129e-06 
1227 3772 0 1.10274e-05 
3797 993 0 1.08994e-05 
3797 949 0 1.37921e-06 
3629 2866 0 8.93474e-06 
1391 1033 0 8.84601e-06 
3849 2866 0 7.80975e-06 
3849 2782 0 1.36324e-05 
2866 3689 0 7.65091e-06 
2649 1775 0 4.21831e-06 
2686 2695 0 4.29502e-06 
2686 1760 0 1.11134e-06 
3689 2562 0 8.17126e-07 
431 794 0 1.36965e-05 
2012 854 0 0.000166585 
4874 1730 0 1.07227e-05 
4778 2165 0 3.3681e-06 
3772 345 0 5.77514e-06 
308 3864 0 1.69676e-05 
345 4855 0 1.9859e-05 
345 2165 0 9.49515e-06 
345 2493 0 8.31577e-06 
1033 2493 0 6.75844e-06 
4855 2695 0 2.59621e-05 
4576 2695 0 1.6664e-05 
4576 4574 0 1.57246e-05 
3696 1775 0 2.06048e-06 
2695 3810 0 2.95281e-05 
2562 2163 0 6.258e-06 
1775 4712 0 7.56408e-06 
2880 2110 0 3.40349e-06 
204 733 0 7.11427e-05 
548 2302 0 9.43176e-06 
2110 1788 0 1.40527e-06 
2110 344 0 2.11126e-07 
2056 3864 0 1.03735e-05 
2041 3864 0 3.74405e-06 
1325 3444 0 1.01395e-05 
3444 1637 0 1.09697e-05 
2165 2493 0 6.4143e-06 
2165 3981 0 8.14236e-06 
3864 4574 0 1.32277e-05 
3864 4004 0 1.92929e-06 
1767 2493 0 1.06344e-05 
1767 2782 0 1.371e-05 
1767 1637 0 7.21667e-06 
2493 3981 0 1.12923e-05 
4574 442 0 4.52876e-06 
4574 1738 0 9.11801e-06 
2782 2349 0 1.07306e-05 
474 2708 0 3.59655e-06 
2708 4263 0 6.12921e-06 
1976 814 0 4.95459e-06 
1976 990 0 1.55742e-05 
1738 954 0 2.51278e-06 
1738 990 0 1.53415e-05 
1738 461 0 9.95498e-06 
2349 2163 0 1.30271e-05 
4712 850 0 5.82884e-06 
4712 644 0 6.59631e-06 
850 990 0 4.99067e-06 
1362 3583 0 7.63026e-09 
3295 990 0 3.83798e-05 
4789 4026 0 2.01261e-05 
733 3567 0 3.71434e-05 
733 4031 0 7.02011e-05 
1730 2087 0 1.52405e-06 
3567 3981 0 2.21724e-05 
3567 843 0 2.89616e-05 
3567 2087 0 2.60277e-05 
3088 3981 0 9.71688e-06 
3981 1116 0 3.1931e-06 
3981 887 0 9.89457e-06 
3981 2215 0 6.85258e-06 
4004 1116 0 6.84729e-07 
843 1637 0 1.32057e-05 
1637 2891 0 1.96689e-06 
1637 1936 0 1.00322e-05 
1637 4314 0 1.78514e-05 
122 814 0 4.79156e-06 
2891 109 0 2.66444e-06 
1936 644 0 3.83373e-06 
1936 2309 0 4.3071e-06 
990 3577 0 2.25391e-05 
2163 747 0 1.71171e-05 
2090 2369 0 9.82742e-06 
1467 954 0 4.36899e-06 
1467 2609 0 7.546e-06 
4876 3614 0 3.82239e-06 
2013 1350 0 1.08024e-05 
2013 4035 0 1.06065e-06 
1116 228 0 6.86331e-06 
228 1094 0 1.52894e-05 
228 2741 0 8.52195e-06 
851 2215 0 4.7698e-06 
4263 3577 0 1.09796e-05 
4263 4385 0 2.6896e-06 
4830 2609 0 5.09914e-06 
644 79 0 1.12885e-06 
3577 2609 0 6.96203e-06 
3577 858 0 1.23211e-05 
2609 2061 0 5.53141e-06 
747 1852 0 1.29186e-05 
747 3459 0 6.24568e-06 
2369 4385 0 5.73091e-06 
4459 683 0 3.68547e-05 
1304 3197 0 1.45227e-05 
1564 1685 0 2.94115e-05 
1564 3002 0 5.40085e-05 
2418 3197 0 4.314e-05 
4226 2026 0 3.90756e-06 
3392 725 0 1.92649e-06 
4031 3529 0 1.77525e-05 
4031 702 0 2.67155e-05 
4031 420 0 2.54392e-05 
1350 3529 0 1.15276e-06 
3529 4314 0 1.37401e-05 
3529 702 0 4.8068e-06 
982 2215 0 4.52927e-06 
982 2741 0 5.25574e-06 
702 109 0 2.76913e-06 
702 3429 0 7.74999e-06 
1094 3378 0 2.16976e-05 
1094 2741 0 1.27737e-05 
109 1852 0 3.20758e-06 
4314 1885 0 9.05026e-06 
4314 4408 0 2.5366e-05 
4631 1885 0 9.52418e-06 
3378 2100 0 1.60494e-05 
4454 2310 0 5.21926e-06 
1852 126 0 1.06781e-05 
79 4385 0 8.22101e-06 
79 4408 0 4.93895e-07 
79 1598 0 9.58279e-06 
4385 944 0 1.18534e-06 
858 944 0 1.42475e-05 
858 2970 0 2.19031e-05 
839 3008 0 5.61587e-06 
3008 2190 0 8.5913e-06 
3197 2472 0 2.58556e-05 
3197 1298 0 2.69474e-05 
4315 2367 0 5.61487e-06 
2367 2021 0 5.72136e-06 
4035 2026 0 5.10153e-06 
4035 2851 0 1.1604e-05 
2026 1987 0 5.24184e-06 
420 1715 0 4.81334e-06 
420 2738 0 5.59555e-06 
4144 2472 0 2.84945e-05 
1914 4143 0 7.72578e-06 
1914 2519 0 3.86787e-06 
2741 1640 0 1.08599e-05 
2741 1273 0 1.04826e-06 
2810 1885 0 6.68038e-06 
2810 2738 0 4.89831e-06 
479 2268 0 1.13891e-06 
4143 1640 0 2.77374e-06 
4143 2355 0 4.04054e-06 
1885 1604 0 7.71065e-06 
4408 3272 0 3.59881e-05 
944 4753 0 7.16523e-06 
944 1598 0 4.52209e-06 
3272 126 0 9.65092e-06 
3272 1598 0 1.011e-05 
3272 1672 0 3.496e-05 
3459 3337 0 5.47798e-06 
2970 2190 0 8.61901e-06 
2970 1428 0 1.0866e-05 
1202 436 0 2.88012e-05 
766 1173 0 2.2255e-06 
2851 2738 0 1.0734e-05 
1813 2723 0 3.3143e-06 
2738 1208 0 4.76829e-06 
2738 3751 0 2.56278e-06 
2519 2280 0 5.19502e-06 
3429 678 0 6.23363e-06 
1273 4753 0 3.99241e-06 
1273 2723 0 2.1087e-06 
1273 2541 0 8.84532e-07 
403 3628 0 3.50797e-06 
403 678 0 1.04327e-05 
1640 2921 0 4.59183e-06 
1640 2345 0 1.68795e-06 
1640 3388 0 1.65475e-05 
1604 4753 0 4.40324e-06 
1604 1598 0 1.02302e-05 
1604 2466 0 4.92765e-06 
4753 2345 0 3.96081e-06 
3388 1085 0 5.94967e-06 
3388 4736 0 1.82167e-05 
2310 4736 0 5.94775e-06 
2310 80 0 6.03292e-06 
3738 637 0 1.17522e-06 
3738 2510 0 1.96855e-06 
1598 928 0 4.4876e-06 
1598 3622 0 1.66704e-05 
1598 3098 0 1.02007e-05 
3337 4632 0 3.76348e-06 
3622 2394 0 1.74752e-06 
1428 4736 0 1.32508e-05 
1298 2596 0 5.57947e-05 
3275 1208 0 4.8308e-06 
860 3888 0 1.30498e-05 
2383 4162 0 2.67675e-06 
1208 4064 0 5.91061e-06 
1987 3342 0 5.34321e-06 
1987 2723 0 6.34331e-06 
2723 4384 0 8.25955e-06 
3751 3628 0 3.57237e-06 
3751 2521 0 3.35344e-06 
2268 3677 0 6.0282e-06 
2268 2466 0 9.67374e-06 
678 3078 0 1.5788e-05 
678 2330 0 1.19076e-05 
3628 928 0 9.52957e-07 
2345 447 0 2.65302e-06 
928 2991 0 4.92852e-06 
447 4272 0 2.97614e-06 
2991 2330 0 8.01867e-06 
3098 3882 0 5.93193e-06 
3098 2561 0 3.99185e-06 
3098 2394 0 4.04603e-06 
4736 3724 0 1.08889e-05 
4736 3369 0 6.95567e-06 
342 4138 0 5.72566e-05 
2899 1718 0 2.80202e-05 
4064 3598 0 1.12124e-05 
4064 1468 0 4.26802e-06 
1465 3091 0 1.77338e-06 
1465 3729 0 1.09115e-06 
1173 4366 0 1.15731e-05 
3091 4366 0 1.53295e-06 
2280 1876 0 4.15671e-06 
2541 2466 0 2.92867e-06 
2466 2561 0 2.54196e-06 
2466 1461 0 9.78378e-06 
1710 1690 0 2.51944e-06 
1690 1435 0 1.97457e-06 
4272 2561 0 3.52572e-06 
4272 3003 0 4.35565e-06 
3369 1863 0 2.26005e-06 
3369 4113 0 4.83723e-06 
2394 4761 0 2.88797e-06 
1224 810 0 6.59756e-07 
3729 3426 0 2.63886e-06 
3729 2873 0 2.35159e-06 
4366 1655 0 9.15394e-06 
2521 3078 0 6.70193e-07 
2521 877 0 3.67923e-06 
877 1468 0 2.943e-06 
877 4843 0 2.79131e-06 
4384 4843 0 4.75631e-06 
3078 3021 0 1.92446e-05 
1876 4228 0 4.13787e-06 
1461 2561 0 5.94004e-06 
1461 97 0 4.11886e-06 
1461 1571 0 7.58847e-06 
4268 2561 0 1.15935e-08 
4268 4843 0 3.33195e-06 
4268 1435 0 5.06106e-06 
2321 1728 0 9.80375e-07 
2321 419 0 1.02644e-08 
2561 4761 0 1.50701e-06 
3882 947 0 4.21939e-06 
4113 1484 0 3.23998e-06 
4113 419 0 2.11732e-06 
4113 3082 0 4.8593e-06 
591 3758 0 2.97342e-05 
3758 2867 0 5.63867e-05 
2867 2319 0 2.43699e-05 
754 2214 0 7.10507e-06 
754 3518 0 5.01428e-06 
3518 3598 0 7.16057e-06 
3518 1114 0 3.43188e-06 
2319 3443 0 4.84523e-06 
2214 2002 0 1.67816e-07 
2214 2982 0 7.45749e-06 
3598 3443 0 1.49926e-05 
3443 3426 0 4.34096e-07 
4298 1437 0 3.85311e-06 
3731 1501 0 4.50111e-06 
1468 2255 0 4.34885e-06 
2873 1619 0 2.05192e-06 
4843 4171 0 1.88196e-07 
1752 2566 0 4.49428e-06 
97 4829 0 4.1784e-06 
1728 1435 0 1.94607e-06 
1728 4228 0 6.48814e-08 
3075 947 0 2.79106e-06 
3075 2803 0 2.54655e-06 
947 4761 0 2.11142e-06 
947 1416 0 5.69779e-06 
4761 2536 0 6.67015e-06 
1435 3082 0 7.05652e-06 
419 1826 0 1.69375e-06 
261 1416 0 2.54563e-06 
3082 2987 0 2.29235e-06 
1381 1971 0 1.51289e-05 
1381 4275 0 1.24692e-05 
1310 3440 0 1.10666e-05 
3468 1661 0 1.7656e-06 
3468 2514 0 2.24397e-06 
3468 493 0 1.99346e-06 
3468 1530 0 1.17791e-06 
2514 3551 0 2.16275e-07 
748 3021 0 1.13321e-05 
748 2886 0 8.37317e-06 
2255 550 0 2.0592e-06 
2255 1571 0 7.95142e-06 
2255 1359 0 8.36948e-06 
2370 258 0 1.64083e-06 
3021 3344 0 1.58834e-05 
1571 305 0 5.06338e-06 
4228 3032 0 4.29661e-06 
4228 3269 0 4.13168e-06 
2803 4171 0 2.01397e-06 
2803 1025 0 1.40173e-08 
3032 3502 0 2.38923e-06 
3032 1872 0 3.81661e-06 
1826 2566 0 2.46226e-06 
1826 1111 0 3.08906e-06 
1416 4829 0 7.38911e-06 
1416 1581 0 8.59324e-07 
1416 749 0 2.31281e-06 
2536 637 0 1.06152e-06 
2200 2987 0 1.04202e-06 
4103 3440 0 1.85812e-05 
4275 2982 0 1.76669e-05 
4275 1904 0 7.80074e-07 
1114 493 0 4.00244e-06 
1530 2458 0 6.02544e-06 
1661 3071 0 3.40872e-06 
3071 4582 0 6.4443e-06 
1365 3551 0 1.55177e-06 
1619 4582 0 3.17847e-06 
1501 1954 0 7.1342e-06 
3551 1359 0 3.01639e-07 
4642 3531 0 7.04032e-07 
4061 1722 0 2.87232e-07 
258 3531 0 1.33722e-06 
3344 4502 0 1.09009e-05 
4171 3764 0 1.10289e-06 
305 4502 0 9.87824e-07 
305 2218 0 4.77075e-06 
3269 2566 0 6.18725e-06 
3269 4152 0 5.09524e-06 
3269 1025 0 7.48102e-06 
3269 2578 0 5.39127e-06 
4829 4416 0 1.48061e-06 
3144 1581 0 1.00895e-06 
1817 2218 0 5.82431e-06 
1872 2987 0 7.83653e-07 
1872 4162 0 2.96943e-06 
2987 1567 0 1.65081e-06 
493 322 0 3.50035e-06 
493 2118 0 4.25897e-06 
4582 1939 0 2.58889e-06 
2458 3424 0 9.98371e-07 
322 1359 0 3.99703e-06 
1519 1359 0 3.45685e-06 
1519 437 0 3.32754e-06 
1359 3205 0 5.13076e-06 
2886 1954 0 4.60185e-06 
2886 27 0 2.70224e-06 
2886 1666 0 1.73834e-06 
3764 124 0 6.67618e-07 
3764 2037 0 2.06071e-06 
3531 4152 0 6.34125e-06 
3531 3770 0 6.35906e-06 
3531 638 0 2.64432e-06 
1722 1419 0 1.03763e-06 
4502 3340 0 6.41642e-06 
4326 2196 0 1.18767e-06 
3323 2572 0 1.52272e-06 
3323 2601 0 2.11806e-06 
4416 1666 0 4.89589e-07 
1025 2218 0 7.15397e-06 
2218 2212 0 1.06687e-05 
2218 463 0 1.82912e-06 
4361 501 0 1.91654e-07 
2572 501 0 1.96253e-06 
501 1567 0 2.49183e-06 
637 4162 0 1.41593e-06 
1567 1977 0 9.66893e-07 
2118 1559 0 1.41224e-06 
2118 1105 0 3.56868e-06 
3424 2688 0 2.0489e-06 
1939 1438 0 4.06413e-06 
1954 27 0 4.35689e-06 
3205 2053 0 5.8354e-06 
3770 862 0 5.72414e-06 
2196 101 0 2.8245e-06 
124 2578 0 1.00301e-06 
2578 1875 0 3.46151e-06 
2546 2436 0 3.91201e-06 
2546 685 0 3.78008e-06 
2546 2733 0 3.92368e-06 
2733 2478 0 5.05685e-06 
4091 1522 0 3.19832e-06 
4091 2022 0 4.39917e-06 
2976 437 0 2.62675e-06 
2976 3334 0 7.10144e-07 
2976 3059 0 2.76824e-06 
1503 4472 0 5.46512e-07 
1503 2173 0 3.95363e-06 
1503 541 0 3.29834e-06 
4472 1939 0 5.28363e-06 
4472 697 0 4.4922e-06 
4472 3222 0 5.1719e-06 
2173 2037 0 4.17271e-06 
2173 2652 0 4.71056e-06 
2173 4428 0 2.94764e-06 
3892 1954 0 7.32295e-06 
3892 2688 0 5.00945e-06 
3892 352 0 2.57193e-06 
3892 1302 0 2.97947e-06 
27 4153 0 2.3613e-06 
27 352 0 1.83427e-06 
1419 2053 0 1.60375e-06 
638 2720 0 2.92138e-06 
2601 3602 0 1.94954e-06 
3340 4034 0 2.80363e-06 
3340 3186 0 1.64981e-06 
3710 124 0 1.11944e-06 
3710 451 0 2.15685e-06 
3710 4426 0 2.85764e-06 
3104 4426 0 2.47139e-06 
3239 2218 0 2.91784e-06 
3239 3274 0 1.2295e-06 
3239 3186 0 2.05856e-06 
451 3857 0 1.94007e-06 
3968 1679 0 2.78865e-06 
3274 2212 0 3.79439e-06 
3274 3857 0 5.23397e-06 
3274 1751 0 6.71042e-06 
3274 2235 0 3.67033e-06 
3857 2383 0 4.4842e-06 
1875 2205 0 2.49092e-06 
2510 2212 0 1.01188e-05 
282 2066 0 2.34525e-07 
1323 1777 0 3.70588e-06 
2822 1322 0 2.96672e-06 
769 2022 0 5.16754e-06 
769 360 0 1.76778e-06 
2022 4309 0 4.75366e-06 
2022 541 0 5.98626e-06 
2022 2638 0 3.01018e-06 
1105 4706 0 3.45733e-06 
541 3133 0 4.30138e-06 
2688 3395 0 3.69892e-06 
2688 1500 0 6.23241e-06 
2652 3395 0 3.78341e-06 
2652 1367 0 3.88246e-06 
2652 2990 0 1.16115e-06 
2652 2224 0 1.78344e-06 
1367 4034 0 2.28426e-06 
1367 2328 0 2.61944e-06 
3570 2037 0 8.26937e-07 
3570 3222 0 6.4487e-07 
3570 2720 0 2.93794e-06 
352 2111 0 1.84958e-06 
2053 2224 0 7.31143e-06 
2757 2720 0 5.88599e-06 
2757 763 0 3.54839e-07 
2757 3257 0 5.27242e-06 
1772 101 0 6.5833e-06 
1772 4426 0 1.61896e-06 
4426 3602 0 4.98997e-06 
4426 507 0 5.65452e-06 
4426 723 0 2.06505e-06 
4153 1666 0 1.60368e-06 
4153 3186 0 1.44609e-06 
4153 3134 0 1.08492e-06 
101 2598 0 2.40305e-06 
101 1193 0 2.2591e-06 
3602 3535 0 5.6235e-06 
3602 1349 0 2.73805e-06 
3186 4748 0 2.97158e-06 
1751 4 0 3.03897e-06 
1751 1143 0 2.84638e-06 
2235 2205 0 2.92341e-06 
2235 4396 0 2.06996e-06 
2205 3322 0 2.7399e-06 
2205 3177 0 2.38141e-06 
3314 4733 0 2.75324e-07 
3314 3322 0 8.41361e-08 
3238 1867 0 9.84474e-08 
1322 3634 0 4.54365e-07 
3634 360 0 1.01188e-06 
3634 621 0 2.11974e-06 
3379 621 0 1.65563e-06 
4309 3048 0 4.75192e-06 
4309 1418 0 3.29694e-06 
1500 3059 0 2.98681e-06 
1500 1307 0 6.34581e-06 
3059 621 0 2.42983e-06 
4706 2990 0 3.94862e-06 
4706 1307 0 1.83805e-06 
4706 2382 0 1.69967e-06 
2161 1418 0 1.644e-06 
2161 936 0 8.46458e-07 
3395 1307 0 2.54008e-06 
697 936 0 3.44379e-06 
1302 2328 0 2.40738e-06 
3222 4164 0 4.69491e-06 
2224 3093 0 3.9039e-06 
2224 1023 0 7.94216e-06 
4428 4164 0 3.33449e-06 
3257 3158 0 3.68012e-06 
3257 166 0 4.2213e-06 
2720 507 0 5.5584e-06 
1193 1853 0 2.20629e-06 
1193 3093 0 2.34711e-06 
723 2598 0 5.98717e-07 
723 1349 0 1.76807e-07 
723 1536 0 2.18766e-06 
1143 4748 0 2.19543e-06 
1143 2068 0 4.45482e-07 
2373 4174 0 8.67583e-08 
3609 65 0 3.89247e-06 
360 2638 0 3.35173e-06 
360 1776 0 1.90836e-06 
2638 3352 0 2.49872e-06 
3352 2922 0 2.11434e-06 
3352 1188 0 4.69099e-06 
621 1307 0 2.26913e-06 
621 3350 0 2.04894e-06 
3133 2656 0 5.02317e-06 
3133 2940 0 5.44401e-06 
1418 2940 0 3.86995e-06 
1307 3979 0 4.20647e-06 
1307 3423 0 3.354e-06 
2990 3423 0 3.56287e-06 
936 4485 0 3.89082e-06 
4164 4773 0 6.53517e-06 
3158 3847 0 1.53713e-06 
3158 1159 0 9.32913e-06 
3158 1083 0 8.82501e-06 
2328 1853 0 2.82864e-06 
2328 3423 0 4.8588e-06 
2328 1023 0 3.40565e-07 
2111 1853 0 7.21741e-07 
3093 507 0 6.40084e-06 
3093 1023 0 2.59425e-06 
3093 4114 0 5.0114e-06 
507 4118 0 5.74583e-06 
1853 1427 0 1.60657e-07 
4748 1536 0 5.44047e-07 
4748 1427 0 4.55611e-06 
1349 4359 0 3.21932e-06 
1536 2088 0 1.35529e-07 
1536 4295 0 3.32972e-06 
3403 3016 0 7.47422e-07 
3403 1931 0 1.50368e-06 
3403 3441 0 1.94747e-06 
4396 2088 0 3.69042e-06 
4776 3322 0 2.23237e-06 
4776 3329 0 2.51901e-06 
3322 4647 0 3.00062e-06 
3322 1931 0 1.39445e-07 
4647 211 0 3.8986e-06 
3177 4636 0 5.24881e-07 
2706 1774 0 5.54578e-06 
2706 1521 0 9.69077e-07 
2706 2375 0 6.12631e-06 
1684 398 0 3.27669e-06 
3893 1858 0 2.4042e-07 
3893 4397 0 2.86029e-07 
2656 1776 0 8.6831e-07 
2656 3350 0 6.21761e-06 
2656 3062 0 3.4201e-06 
2940 3062 0 3.91423e-07 
2940 885 0 5.12082e-06 
1424 3847 0 1.26111e-06 
2382 3371 0 4.00733e-06 
4485 3847 0 1.67727e-06 
4485 3371 0 5.61872e-06 
4485 1544 0 3.74346e-06 
3847 3728 0 7.54964e-07 
3847 81 0 4.34417e-07 
565 1118 0 2.40824e-06 
3423 2495 0 5.01085e-06 
3423 3305 0 3.46302e-06 
1023 3375 0 5.22409e-06 
1023 1337 0 7.54286e-06 
4118 1331 0 6.89875e-06 
4118 4114 0 5.06737e-06 
4518 2607 0 1.42115e-06 
1984 1427 0 5.08189e-06 
1984 1593 0 1.94948e-07 
4359 3329 0 1.30365e-06 
4359 1631 0 4.13224e-06 
1427 4295 0 4.46224e-06 
1427 1337 0 3.65487e-06 
3329 4295 0 3.18981e-06 
3329 3126 0 2.25583e-06 
3329 1577 0 1.79897e-06 
3441 1892 0 5.22577e-06 
3441 4003 0 4.41978e-07 
2088 2068 0 2.44037e-06 
399 2505 0 8.45291e-07 
2068 1615 0 9.90748e-07 
4636 1488 0 1.83368e-07 
4636 2615 0 5.48937e-07 
2420 2615 0 2.64524e-06 
2135 1778 0 3.26525e-06 
398 1462 0 1.22057e-06 
3507 2503 0 2.6589e-07 
4267 3350 0 2.00922e-06 
4267 2448 0 9.13004e-07 
1776 1405 0 2.7642e-06 
57 3350 0 5.94351e-06 
3350 1830 0 2.44429e-06 
1858 3605 0 7.25648e-07 
885 2893 0 4.38067e-06 
3979 1799 0 7.83991e-06 
3979 2527 0 6.7503e-06 
3979 3180 0 7.88543e-07 
3371 4773 0 4.8239e-06 
1118 1799 0 5.49052e-06 
1118 2057 0 2.10325e-06 
2495 3180 0 4.24636e-06 
2495 2332 0 4.20459e-06 
81 1083 0 1.84104e-06 
81 2086 0 2.59084e-06 
4773 1083 0 8.89295e-06 
4773 3236 0 9.6205e-06 
1083 1331 0 4.47978e-07 
1337 3310 0 6.33454e-06 
1337 4218 0 5.7237e-06 
4114 4295 0 4.89404e-06 
4114 3375 0 4.38501e-06 
4114 4041 0 3.18985e-06 
1892 3590 0 6.25448e-06 
3484 4667 0 1.19286e-06 
4295 4667 0 7.8922e-06 
3126 572 0 2.50705e-06 
4003 3119 0 1.67116e-06 
2505 2304 0 2.41764e-06 
1615 2743 0 6.93778e-07 
1615 3859 0 5.15323e-08 
2615 2941 0 1.61258e-07 
3475 1264 0 2.19079e-06 
3475 4161 0 4.5507e-06 
4487 3653 0 3.59264e-06 
4487 3986 0 2.75335e-06 
4487 2503 0 6.04293e-06 
2503 1778 0 2.79842e-06 
2503 3252 0 4.23868e-06 
4161 202 0 9.59895e-06 
4161 3000 0 1.4292e-06 
1405 4397 0 3.27555e-06 
3387 2829 0 3.33964e-06 
3252 1830 0 5.19061e-06 
4397 1062 0 2.16654e-06 
1830 772 0 5.63614e-06 
2527 772 0 4.44909e-06 
3062 925 0 3.31521e-06 
2893 1062 0 6.39994e-07 
2893 3199 0 3.20434e-06 
3180 249 0 5.40575e-06 
3180 1599 0 4.35592e-06 
2332 238 0 3.48846e-06 
2332 1599 0 6.26325e-07 
2332 4221 0 1.17208e-06 
1544 238 0 2.03681e-06 
1544 1768 0 2.01325e-06 
3305 2057 0 4.11865e-06 
3305 3053 0 1.72584e-06 
3305 4218 0 3.79422e-07 
3236 3375 0 1.8273e-06 
3236 3053 0 8.49274e-06 
3236 2490 0 4.7204e-06 
3236 2942 0 1.73617e-06 
3375 3053 0 7.35395e-06 
3375 4218 0 4.51079e-06 
1331 1768 0 6.78298e-06 
1331 2942 0 4.21941e-06 
2116 777 0 5.02571e-06 
2116 2086 0 4.72281e-06 
2116 1768 0 3.60944e-06 
3310 2057 0 1.71679e-06 
3310 1165 0 7.35401e-06 
1593 2823 0 2.13508e-07 
4667 521 0 7.81323e-06 
1631 4041 0 4.75207e-06 
1577 1332 0 2.51948e-06 
1577 4041 0 2.82502e-06 
1577 2244 0 1.80994e-06 
572 3119 0 3.67528e-06 
572 2776 0 2.32288e-06 
2341 2823 0 7.74051e-08 
1332 2941 0 2.53171e-07 
1960 4607 0 1.15842e-06 
2941 4607 0 2.91226e-07 
3986 552 0 4.94345e-06 
3986 202 0 6.89145e-06 
3986 3073 0 7.01021e-06 
202 4500 0 2.79022e-06 
353 1958 0 5.76223e-08 
353 3073 0 5.79667e-07 
353 2352 0 9.67938e-07 
1958 1780 0 1.83993e-06 
1780 925 0 3.029e-06 
1780 2470 0 2.24969e-06 
925 238 0 3.48603e-06 
925 645 0 2.80449e-06 
1062 3267 0 3.53909e-07 
3605 3172 0 4.30685e-08 
772 645 0 6.63606e-06 
238 4221 0 1.42153e-06 
238 1028 0 5.03131e-06 
249 2057 0 1.481e-06 
3199 1768 0 6.53862e-06 
3199 1028 0 5.03584e-06 
3199 1589 0 4.33259e-06 
2057 1060 0 2.23513e-06 
3053 1599 0 4.15794e-06 
3053 2259 0 8.63117e-06 
2942 3783 0 4.26301e-06 
4218 2687 0 5.76011e-06 
3590 2996 0 6.05896e-06 
3166 646 0 4.23575e-06 
3166 3119 0 4.89901e-06 
3166 587 0 7.41523e-06 
1165 521 0 2.24164e-06 
1165 3755 0 4.6223e-06 
4041 3783 0 8.02524e-06 
3119 777 0 4.27397e-06 
2244 2776 0 1.19554e-06 
2244 1653 0 3.92924e-06 
2304 4553 0 1.25882e-06 
53 2544 0 3.99755e-06 
4607 3831 0 7.51273e-07 
2801 1313 0 3.19332e-06 
882 1879 0 5.14878e-06 
3073 2570 0 4.62661e-06 
3073 724 0 6.89289e-06 
1044 845 0 1.17017e-05 
1044 3000 0 6.56394e-06 
1044 1821 0 1.56292e-06 
1044 3769 0 8.16276e-06 
1313 914 0 5.9945e-06 
3000 2079 0 2.41756e-06 
3000 2470 0 1.20754e-06 
90 3425 0 2.21983e-06 
90 606 0 2.45524e-06 
3425 3271 0 2.59708e-06 
3425 1879 0 3.37945e-06 
914 469 0 9.77107e-06 
2079 354 0 9.32117e-07 
2581 3399 0 7.85034e-07 
469 4681 0 9.70248e-06 
645 2721 0 6.29559e-06 
645 354 0 2.37241e-06 
645 415 0 7.78424e-06 
4221 1572 0 2.23748e-06 
1028 2221 0 6.22491e-06 
1599 2721 0 5.73503e-06 
2259 4600 0 6.68508e-06 
2259 872 0 3.59695e-06 
2259 2969 0 6.04908e-06 
2490 1572 0 4.88411e-06 
1060 4523 0 2.34828e-06 
2143 1815 0 7.94231e-06 
1518 1589 0 1.61588e-06 
2687 2969 0 5.8721e-06 
3783 66 0 3.10303e-06 
3783 1815 0 9.81599e-06 
2996 3155 0 3.35813e-06 
2996 3768 0 1.6032e-06 
2996 587 0 4.96093e-06 
521 2830 0 7.78168e-06 
4077 587 0 9.75092e-07 
1176 66 0 7.33123e-07 
2776 1653 0 2.14855e-06 
2776 2245 0 7.83211e-07 
4553 2270 0 3.47042e-06 
4553 2447 0 7.29671e-07 
1653 517 0 2.31228e-06 
1653 2447 0 3.41315e-06 
2245 3143 0 1.30654e-06 
4111 2544 0 1.53651e-06 
3831 3937 0 1.01727e-06 
2570 3838 0 4.55619e-06 
2570 3050 0 3.89013e-06 
3769 2188 0 8.98566e-06 
3769 104 0 9.19011e-07 
3769 4318 0 1.21299e-05 
724 3655 0 4.21077e-06 
1879 104 0 4.26105e-06 
3838 2470 0 2.44491e-06 
3838 2504 0 1.18594e-06 
606 2606 0 3.01934e-06 
606 4496 0 1.10435e-06 
4461 2352 0 3.0814e-06 
2352 338 0 2.13187e-06 
2352 1573 0 1.79163e-06 
338 4363 0 2.97127e-06 
354 2606 0 1.13378e-06 
1783 3174 0 4.70947e-06 
1783 573 0 4.25563e-06 
4148 4681 0 1.30092e-07 
4148 4365 0 2.01751e-06 
415 3267 0 2.87351e-06 
415 3381 0 4.90539e-06 
415 2766 0 3.52002e-06 
3267 3174 0 3.00775e-06 
4681 2721 0 8.56809e-06 
4681 4517 0 1.8966e-06 
2721 872 0 2.83703e-06 
2721 1572 0 4.27694e-06 
2721 2162 0 8.41464e-06 
3174 3172 0 4.2427e-06 
3174 2667 0 5.9343e-06 
3174 2171 0 4.20172e-06 
872 4062 0 2.01149e-06 
2221 4531 0 5.25613e-06 
1572 2281 0 3.12967e-06 
1572 4599 0 4.32387e-06 
900 2281 0 4.57505e-06 
1589 1123 0 4.98991e-06 
2969 1432 0 8.621e-06 
4523 2553 0 2.16603e-06 
4523 3576 0 6.75607e-07 
587 3029 0 7.94981e-06 
2830 2270 0 5.2662e-06 
2830 2553 0 8.94318e-06 
2459 4198 0 6.94046e-07 
3755 3576 0 1.52564e-06 
66 4301 0 1.89123e-06 
2270 2447 0 3.58941e-06 
2270 4566 0 7.21697e-07 
512 517 0 1.46861e-06 
2447 3143 0 1.49636e-06 
2447 3844 0 2.37464e-06 
2544 2642 0 3.83022e-06 
1825 3070 0 6.98362e-06 
3937 2066 0 5.74492e-07 
2504 844 0 8.37946e-07 
2504 3050 0 1.4861e-06 
104 3967 0 4.07097e-06 
4318 2594 0 6.77855e-06 
4318 1065 0 8.17187e-06 
4318 1988 0 3.53604e-06 
2606 1573 0 3.56011e-06 
2606 2247 0 3.97887e-06 
2606 2323 0 1.18378e-06 
1573 1986 0 4.9169e-06 
1573 4363 0 3.39661e-06 
1573 4517 0 2.94983e-06 
4517 2162 0 1.52357e-06 
4517 3647 0 2.96328e-06 
4363 3389 0 2.24368e-06 
2766 1626 0 4.40458e-06 
2162 4062 0 1.11503e-06 
2162 1750 0 7.39052e-06 
1815 2684 0 1.18452e-05 
1815 4535 0 9.04454e-06 
4100 3029 0 1.50801e-07 
4100 3891 0 4.13318e-07 
3768 1353 0 1.364e-06 
1181 1779 0 1.67944e-06 
1181 1600 0 6.15185e-07 
4301 4198 0 2.77907e-06 
4301 263 0 2.67818e-06 
517 1600 0 1.31955e-06 
3143 1737 0 2.832e-07 
844 4033 0 1.65046e-07 
3050 2247 0 1.03428e-07 
3655 1986 0 4.03199e-06 
3655 4033 0 6.17246e-07 
3655 1642 0 1.4849e-06 
2247 1065 0 5.30534e-06 
2247 3558 0 6.03074e-06 
4496 3806 0 2.38372e-06 
2594 573 0 4.51969e-06 
2323 3647 0 1.21369e-06 
3381 3898 0 4.05794e-06 
3381 407 0 5.44875e-07 
4365 4062 0 1.39671e-06 
4531 3287 0 3.77737e-06 
4062 2439 0 4.01766e-06 
4062 4191 0 2.04068e-06 
2281 3248 0 4.38743e-06 
2281 1170 0 3.23358e-06 
1626 1123 0 5.01859e-06 
1626 2684 0 3.02132e-06 
1626 1793 0 3.17168e-06 
1626 1108 0 5.76402e-06 
1123 580 0 4.74811e-06 
1432 4599 0 4.13972e-06 
1432 4535 0 3.6579e-06 
1432 2250 0 4.95851e-06 
1432 4191 0 9.29757e-06 
4599 4074 0 7.53969e-07 
2684 1108 0 1.07517e-05 
4535 1874 0 8.62107e-06 
3891 1510 0 1.64131e-06 
3891 1258 0 1.75548e-07 
2553 350 0 8.05772e-06 
2553 1874 0 7.37584e-06 
2553 232 0 8.15475e-07 
3029 3105 0 3.09247e-06 
3029 3897 0 2.54676e-06 
4198 232 0 2.50327e-06 
1600 1147 0 3.05416e-06 
1600 3855 0 2.2554e-07 
3844 286 0 1.27406e-06 
3844 1816 0 3.15354e-06 
263 346 0 1.2878e-06 
2642 1882 0 5.5028e-06 
3967 2071 0 2.24389e-06 
4033 3558 0 7.06573e-06 
1642 1263 0 3.93078e-07 
3806 3407 0 7.66411e-07 
3898 4047 0 1.89748e-06 
2126 2439 0 1.65674e-06 
3647 2439 0 1.73188e-06 
2439 4191 0 2.08536e-06 
407 1793 0 2.57526e-06 
1793 1510 0 1.57454e-06 
4191 1170 0 2.32221e-07 
1874 350 0 5.01493e-06 
2909 741 0 8.20758e-07 
4913 1635 0 8.67708e-05 
1141 1859 0 0.000710537 
1141 284 0 0.00017749 