ITEM: TIMESTEP
19050000
ITEM: NUMBER OF ENTRIES
12474
ITEM: BOX BOUNDS ff ff ff
-0.01 0.45
-0.15 0.15
-0.08 0.1
ITEM: ENTRIES c_ppc[1] c_ppc[2] c_ppc[3] c_ppc[4] 
1671 331 0 0.000470749 
639 9270 0 0.000277002 
8180 1485 0 4.05395e-05 
16960 17985 0 1.5055e-06 
2700 2228 0 4.54596e-06 
4012 737 0 3.36504e-06 
7357 6167 0 3.29091e-07 
11778 15572 0 3.36188e-06 
4324 5246 0 0.000160085 
12644 5246 0 5.60515e-05 
2449 13301 0 8.44774e-05 
168 6330 0 0.00010432 
13301 5581 0 0.000246528 
1343 5150 0 7.50319e-05 
17665 7403 0 0.000357076 
17665 11168 0 8.97436e-05 
292 11798 0 6.79163e-07 
1475 18523 0 7.51162e-06 
15455 818 0 0.000325798 
15455 1033 0 0.00011969 
15455 8814 0 1.72974e-05 
3106 16291 0 2.7535e-05 
17836 4747 0 1.3825e-06 
15757 10773 0 3.24599e-06 
10749 15029 0 3.70942e-05 
18531 10954 0 6.72351e-06 
9640 2295 0 2.73916e-06 
18523 14715 0 3.53488e-06 
17704 12569 0 1.16159e-05 
10773 7958 0 2.58935e-06 
10773 2788 0 3.23004e-06 
15553 16379 0 3.07803e-06 
2295 5817 0 6.74113e-06 
2527 5817 0 6.95443e-06 
14715 2788 0 5.5087e-06 
15029 12263 0 2.71745e-05 
15095 855 0 1.76539e-05 
14509 5958 0 2.3812e-05 
18852 12743 0 2.66465e-07 
5817 13918 0 1.26009e-06 
5817 8960 0 7.96206e-06 
113 4625 0 9.47913e-06 
3949 5958 0 2.14488e-05 
11954 2832 0 4.25552e-06 
11954 12497 0 7.67453e-07 
3840 12427 0 3.1672e-06 
12497 1375 0 9.33374e-07 
4025 5289 0 4.88189e-06 
15926 10371 0 1.1487e-06 
1375 1587 0 1.26542e-06 
3465 5043 0 5.26353e-05 
10371 6378 0 8.87083e-07 
6378 12556 0 2.09378e-06 
6378 8176 0 2.58837e-06 
2381 2005 0 2.91087e-06 
2381 10316 0 1.60338e-06 
15948 4435 0 8.37682e-06 
12556 75 0 1.41827e-06 
12556 2005 0 1.55324e-06 
12556 2992 0 1.21056e-06 
837 10316 0 1.8573e-06 
10316 12945 0 1.77857e-06 
15704 3632 0 1.66739e-06 
12945 8393 0 2.05726e-06 
12945 10292 0 7.92019e-07 
10207 3632 0 6.7201e-07 
7607 8627 0 3.01067e-06 
3632 1684 0 8.61759e-07 
13183 4870 0 7.89761e-06 
3738 819 0 9.56309e-07 
11101 10292 0 6.58833e-07 
12203 6803 0 8.29864e-06 
14518 8623 0 1.15455e-07 
10292 9900 0 1.05802e-06 
10292 8106 0 5.06718e-06 
9900 1684 0 5.982e-07 
13760 10625 0 2.34289e-06 
13760 10834 0 1.09708e-06 
6163 11623 0 9.47459e-07 
15723 1684 0 1.29658e-06 
1684 1372 0 2.16241e-06 
1684 1397 0 1.02262e-06 
14961 9867 0 2.69197e-06 
10834 14427 0 1.06192e-06 
14427 11813 0 1.7223e-06 
14427 6426 0 1.34842e-06 
14368 4485 0 1.2714e-06 
11623 1397 0 1.02867e-06 
9261 12428 0 9.55382e-07 
9261 4485 0 2.41688e-06 
5798 3519 0 3.79564e-07 
1824 12502 0 1.24116e-05 
4979 13837 0 3.51244e-06 
15349 5950 0 1.73548e-06 
11381 15824 0 1.39645e-05 
7879 2341 0 1.24604e-06 
7879 13357 0 1.95974e-06 
7879 1720 0 1.37599e-06 
10636 2341 0 1.70266e-08 
269 14927 0 3.06093e-06 
2341 12291 0 1.97727e-06 
7683 1804 0 1.80836e-06 
4485 1295 0 5.68282e-07 
2377 17456 0 1.86899e-06 
17143 14350 0 1.1488e-06 
17143 8295 0 1.92087e-07 
17143 14627 0 9.17047e-07 
1504 860 0 6.30866e-07 
13357 1720 0 2.07007e-06 
13357 15769 0 3.44757e-06 
15824 8412 0 9.80311e-06 
15824 5926 0 1.99912e-05 
15824 915 0 1.19692e-05 
656 11916 0 1.63775e-06 
1720 6893 0 1.49465e-06 
6148 14927 0 5.00303e-07 
1804 10428 0 2.48295e-06 
13523 5926 0 1.84825e-06 
7889 6917 0 6.43189e-07 
7889 15629 0 3.62919e-07 
15246 5876 0 9.44014e-07 
12291 4167 0 1.09041e-06 
17456 7427 0 2.58208e-06 
16741 13371 0 8.02613e-07 
14164 2923 0 7.90898e-07 
13371 14627 0 1.22839e-06 
10646 7752 0 1.44013e-06 
15769 14815 0 3.22464e-06 
4773 11832 0 9.55094e-07 
13606 9088 0 2.02613e-07 
6973 14927 0 4.13187e-06 
6973 3787 0 4.1662e-06 
6738 16143 0 2.60569e-06 
12461 11139 0 5.41639e-07 
14927 15629 0 9.20706e-07 
5926 3075 0 6.79054e-06 
5926 11647 0 8.42097e-06 
11916 10928 0 4.09537e-06 
15587 5849 0 1.31846e-06 
6917 12804 0 1.28014e-06 
10428 17646 0 2.95241e-06 
5876 270 0 1.01046e-06 
7427 12885 0 1.23539e-06 
3075 14363 0 1.98901e-06 
3075 11647 0 7.90089e-07 
3075 16893 0 8.14627e-07 
3075 4202 0 2.55097e-06 
13690 5849 0 7.87554e-07 
4236 1957 0 1.66501e-06 
4236 12885 0 1.79348e-06 
4236 5849 0 1.77708e-06 
14363 2872 0 1.84575e-06 
15099 5662 0 1.24228e-05 
5492 15311 0 5.77814e-06 
5492 15342 0 5.17059e-06 
17331 16876 0 2.77359e-06 
17331 8843 0 6.00272e-06 
767 14815 0 7.03487e-06 
767 11527 0 2.85641e-06 
15311 14815 0 4.10396e-06 
8843 17562 0 1.70585e-05 
14815 3787 0 7.68933e-06 
14815 7463 0 2.55988e-06 
14815 4005 0 3.41044e-06 
16634 9088 0 1.04805e-06 
16634 1331 0 1.937e-06 
7752 16525 0 1.36992e-06 
3787 9165 0 6.95047e-06 
17193 928 0 1.86452e-06 
16525 577 0 1.80986e-06 
3547 13289 0 1.08145e-06 
4283 16143 0 3.88805e-06 
4283 9165 0 5.17988e-06 
4283 12804 0 1.82642e-06 
7606 15018 0 2.02549e-06 
14966 915 0 4.69384e-06 
915 2888 0 1.54172e-05 
4505 11 0 3.82457e-07 
16143 650 0 9.11027e-07 
11139 17646 0 1.89964e-06 
11139 13554 0 2.29049e-06 
11647 3164 0 1.12592e-06 
11647 17671 0 7.55988e-07 
17218 15857 0 2.998e-07 
15629 15261 0 2.64042e-06 
15629 11 0 2.11477e-06 
10928 6622 0 1.9889e-06 
10928 321 0 3.66164e-07 
10928 12940 0 4.18593e-06 
15261 12885 0 4.11593e-06 
15261 15857 0 1.81048e-06 
15261 2687 0 1.44412e-06 
15261 12278 0 2.7008e-06 
12885 2923 0 4.677e-06 
10640 9182 0 7.43881e-07 
5849 15857 0 1.06983e-06 
12352 2446 0 1.33154e-06 
17470 9689 0 1.35369e-06 
17470 270 0 2.01159e-06 
17470 15829 0 1.67683e-06 
11409 7377 0 3.38453e-06 
11409 4202 0 3.65648e-06 
16358 15342 0 3.30544e-06 
15342 13732 0 6.44558e-06 
3592 4609 0 4.33307e-06 
11680 1331 0 1.19137e-06 
11680 7525 0 4.0482e-07 
3920 4609 0 7.91586e-07 
1331 15068 0 3.52028e-06 
4696 1905 0 2.71014e-06 
6479 10577 0 3.18345e-07 
7463 12548 0 3.99474e-06 
12548 3667 0 1.73331e-06 
16488 9285 0 2.45071e-06 
16488 3229 0 3.82157e-06 
12611 13289 0 5.7801e-06 
12611 13159 0 4.97601e-06 
12611 16520 0 3.87678e-06 
12611 783 0 1.06137e-06 
4005 8812 0 2.28008e-06 
4005 5632 0 7.20542e-07 
4005 11301 0 3.69881e-06 
4005 7535 0 4.3573e-07 
3667 9165 0 3.70086e-06 
13289 15734 0 1.14293e-06 
8812 11 0 2.55252e-06 
8812 15299 0 1.23157e-06 
12872 15018 0 7.85098e-07 
9285 8517 0 8.08924e-07 
13159 8517 0 1.00174e-06 
9663 4275 0 1.30877e-06 
577 6794 0 2.17881e-06 
577 9974 0 1.76404e-06 
15018 10968 0 1.90419e-06 
15018 4591 0 1.62145e-06 
15018 7069 0 1.33077e-06 
3164 2071 0 1.28354e-06 
2888 17671 0 2.65038e-06 
2888 11285 0 9.62145e-06 
11 7898 0 2.22563e-06 
12804 650 0 9.19082e-07 
12804 7898 0 1.39424e-06 
12804 13998 0 1.47867e-06 
6794 15857 0 1.81149e-06 
6794 4275 0 1.78846e-06 
6794 5727 0 3.43123e-06 
17646 270 0 2.79681e-06 
17646 4591 0 2.97491e-06 
13554 1294 0 2.50734e-06 
17671 9552 0 2.80896e-06 
8121 7653 0 1.4013e-07 
270 4202 0 1.50602e-06 
270 15829 0 5.54442e-08 
4202 1294 0 4.01384e-06 
17093 5727 0 5.13533e-07 
6082 12278 0 1.71818e-06 
6082 5680 0 2.04339e-06 
6082 4909 0 2.11125e-07 
2446 7918 0 1.52122e-06 
11516 18912 0 0.000153216 
16506 2865 0 1.6299e-06 
16775 4609 0 1.40134e-06 
13732 8596 0 4.11681e-06 
13732 8597 0 3.35562e-06 
4609 12211 0 1.18758e-06 
12211 9851 0 1.0722e-06 
12211 9630 0 1.54385e-06 
10577 5632 0 2.6701e-07 
8596 5632 0 4.64682e-07 
8596 15140 0 2.34047e-06 
5632 4889 0 9.07909e-07 
16520 11257 0 3.47487e-06 
12710 11166 0 7.63282e-07 
7535 4889 0 1.91038e-07 
7535 9035 0 1.66582e-06 
783 15734 0 4.35789e-06 
783 4491 0 2.9913e-06 
783 8275 0 1.98711e-06 
9974 7898 0 8.61322e-07 
9974 8679 0 2.81238e-06 
7898 10968 0 1.80246e-06 
10968 10752 0 2.04542e-06 
4275 10129 0 9.77935e-07 
4591 9738 0 1.34845e-06 
4591 7653 0 1.91759e-06 
15015 7918 0 1.70913e-06 
15015 2071 0 2.82361e-06 
15015 12107 0 8.72296e-07 
10072 1294 0 1.06779e-06 
5501 6932 0 3.02847e-06 
5501 7653 0 2.07206e-06 
5501 16738 0 2.57264e-06 
5727 5680 0 2.99563e-06 
5727 7811 0 2.35985e-06 
5727 15597 0 1.533e-06 
12278 6762 0 2.80264e-06 
12278 12907 0 6.08839e-08 
7918 9648 0 1.12949e-06 
1294 15829 0 1.78193e-06 
1294 14112 0 4.71333e-06 
9552 5717 0 1.19945e-06 
9552 2835 0 2.99834e-06 
15829 241 0 1.81269e-06 
15897 2865 0 1.48662e-05 
1361 4114 0 6.39071e-06 
2865 7875 0 3.11994e-06 
8597 13365 0 2.11149e-06 
8597 3766 0 3.63469e-06 
839 10128 0 7.36314e-07 
12094 8214 0 3.50018e-07 
12094 2875 0 5.12854e-07 
15140 8326 0 4.73593e-07 
15140 8161 0 2.42824e-06 
15140 9724 0 3.25791e-06 
2432 3229 0 2.97954e-06 
2432 7381 0 2.36502e-06 
2432 14011 0 2.69574e-06 
3229 8264 0 4.5255e-06 
8214 1905 0 1.80386e-06 
8214 9777 0 1.06056e-06 
7381 10752 0 2.23646e-06 
7381 9724 0 1.85824e-06 
12273 6828 0 3.88666e-06 
12273 9724 0 1.13782e-06 
12273 9035 0 3.27698e-06 
10752 5157 0 6.39936e-07 
10752 6776 0 5.04075e-07 
4491 2071 0 2.09686e-06 
4491 11285 0 2.5398e-06 
4491 9777 0 2.96545e-06 
6828 6932 0 3.19449e-06 
6828 2039 0 1.95795e-06 
6828 7056 0 2.66454e-06 
11576 7056 0 6.09813e-07 
7069 6776 0 1.071e-06 
7069 14970 0 5.39065e-07 
2071 16201 0 2.34974e-06 
2071 1750 0 1.27951e-07 
11285 10718 0 4.70793e-06 
11285 10381 0 7.96493e-06 
11285 9472 0 1.80222e-06 
9738 8687 0 1.68466e-06 
9738 6437 0 1.24392e-06 
11056 6762 0 9.05458e-07 
6762 17141 0 2.86639e-06 
6762 10825 0 1.42291e-07 
7653 3073 0 1.04863e-06 
7653 12526 0 2.22035e-06 
12107 8687 0 3.06791e-07 
3953 14112 0 2.25504e-06 
16738 12907 0 2.2906e-06 
16738 5781 0 2.07427e-06 
12471 5680 0 2.07914e-06 
7811 15169 0 7.16021e-07 
7811 7407 0 2.34711e-06 
12907 4909 0 2.0557e-06 
12907 15169 0 7.13276e-07 
5781 9648 0 2.65525e-06 
5781 12526 0 2.02047e-06 
9648 1285 0 3.48032e-06 
2835 14112 0 1.98161e-06 
2835 1285 0 3.13758e-06 
7452 10393 0 1.42123e-07 
7452 9769 0 1.72721e-06 
13365 16481 0 1.97508e-06 
6926 2429 0 1.68402e-06 
451 8264 0 2.73873e-06 
451 8704 0 1.37455e-06 
10128 9630 0 3.14699e-06 
9630 7191 0 1.12152e-06 
9630 14698 0 6.96082e-07 
3766 8161 0 4.1355e-06 
8161 553 0 1.79966e-06 
2834 14011 0 1.10483e-06 
14011 1865 0 1.55441e-06 
8264 11257 0 7.26802e-07 
8264 16289 0 2.63802e-06 
2875 9777 0 6.19427e-06 
2875 4215 0 5.4771e-06 
2256 7727 0 7.99513e-07 
14614 10381 0 3.84813e-06 
14614 9119 0 5.13949e-06 
4889 12481 0 1.13487e-06 
9724 2039 0 1.67018e-06 
9724 5960 0 7.35003e-07 
5157 12862 0 9.94096e-07 
8275 9777 0 3.04776e-06 
9777 10381 0 4.56055e-06 
7727 9035 0 3.60948e-06 
2039 7056 0 8.23743e-07 
6776 7056 0 6.60958e-07 
6776 10221 0 4.3413e-07 
10381 8895 0 5.93801e-06 
9035 15104 0 2.83461e-06 
7056 11092 0 2.31125e-06 
16201 8687 0 1.5507e-06 
16201 1750 0 2.93318e-06 
16201 7006 0 2.66384e-06 
16201 57 0 1.23023e-06 
8679 17141 0 1.43101e-06 
8679 13117 0 2.53247e-06 
17141 14646 0 1.80693e-06 
17141 11092 0 1.89468e-06 
8687 15955 0 3.27773e-06 
1750 14112 0 3.63983e-06 
1750 9090 0 9.3569e-07 
9472 6232 0 1.93149e-06 
9472 8545 0 1.18327e-06 
15597 15872 0 2.58885e-07 
15597 15104 0 2.87711e-07 
13975 12572 0 6.155e-07 
10825 6437 0 1.49454e-06 
10825 15963 0 1.81856e-06 
3073 3898 0 1.69095e-06 
14112 9115 0 1.92595e-06 
14112 13055 0 4.93915e-06 
15872 2159 0 4.51847e-07 
12526 2603 0 3.07346e-06 
12526 14199 0 1.27943e-06 
12526 14265 0 3.41068e-06 
1285 241 0 1.91281e-06 
1285 9115 0 2.43395e-06 
10973 10431 0 1.27292e-06 
15963 6071 0 1.95403e-06 
405 4509 0 0.000110271 
16304 11430 0 2.1335e-05 
13696 15035 0 1.82079e-06 
8914 1739 0 1.05426e-06 
9769 5889 0 2.05159e-06 
15035 5093 0 4.79998e-06 
15035 13931 0 3.57829e-06 
16598 8252 0 7.24974e-07 
9064 5024 0 2.71367e-07 
14922 8175 0 7.76221e-07 
14922 14698 0 2.14923e-06 
2429 1865 0 1.63503e-06 
2429 8378 0 2.96137e-06 
8704 7318 0 2.17653e-06 
16481 4189 0 9.82854e-07 
1865 5225 0 1.21738e-06 
1865 16289 0 4.67648e-07 
13796 12754 0 5.59665e-07 
4215 14523 0 1.25515e-06 
553 5960 0 8.54285e-07 
553 3753 0 1.21366e-06 
5960 15247 0 4.08916e-07 
13325 8009 0 1.18219e-07 
12754 12862 0 4.43292e-07 
16884 10258 0 1.06651e-06 
13175 7006 0 1.50197e-06 
13175 701 0 9.8876e-07 
13175 9202 0 2.9718e-06 
12481 13899 0 7.72827e-07 
12862 10221 0 1.14134e-06 
15247 14646 0 1.2521e-06 
15247 9436 0 3.68536e-07 
57 10221 0 1.49574e-06 
57 11064 0 3.58032e-07 
7006 15532 0 2.77174e-06 
13117 14646 0 8.64682e-07 
13117 12572 0 1.91564e-06 
13117 7138 0 2.76053e-06 
14646 11092 0 1.48524e-06 
10221 3711 0 2.00553e-06 
10221 13104 0 1.42897e-06 
7877 15104 0 6.05051e-07 
15104 13310 0 2.78621e-06 
11092 3711 0 3.08564e-06 
11092 2603 0 4.43803e-06 
15955 2218 0 6.53573e-07 
9090 12514 0 1.81177e-07 
13323 5208 0 3.96548e-06 
13310 14137 0 1.02901e-06 
13310 12593 0 2.88364e-06 
13310 5584 0 1.6676e-06 
13310 15878 0 1.44933e-06 
12572 15456 0 1.39945e-06 
3898 12922 0 6.429e-07 
15456 2603 0 3.67392e-06 
15456 1685 0 7.7918e-07 
15456 12593 0 3.04223e-06 
2603 17072 0 4.36084e-06 
14199 11710 0 1.06039e-06 
9115 5828 0 2.66921e-06 
13055 6309 0 1.60928e-06 
13055 13377 0 5.02323e-06 
2159 3698 0 1.49801e-06 
1685 12472 0 1.90058e-06 
17072 4172 0 9.71774e-07 
17072 6071 0 4.76551e-07 
17072 11784 0 4.74002e-06 
17072 2740 0 2.05181e-06 
14265 3504 0 3.84597e-06 
1837 3888 0 1.21558e-06 
7303 6924 0 1.34117e-05 
5889 10387 0 6.56648e-07 
5225 15072 0 1.88275e-07 
5225 3753 0 1.75307e-06 
7645 16505 0 1.40128e-06 
16289 15043 0 2.80112e-07 
4425 5584 0 5.21374e-07 
3711 12498 0 2.3902e-06 
8695 11447 0 1.16677e-07 
12593 4197 0 2.34228e-06 
13377 7593 0 6.84919e-06 
13793 7193 0 5.72329e-08 
9167 4312 0 1.10576e-05 
1739 10387 0 1.43195e-07 
8617 5024 0 5.22079e-07 
8617 11894 0 4.00625e-07 
13931 9524 0 3.29031e-07 
8378 11894 0 4.79497e-07 
10789 7054 0 1.49806e-07 
9524 13263 0 1.46981e-06 
11894 3753 0 5.94848e-07 
15072 7318 0 2.39315e-07 
7318 12835 0 3.29816e-07 
3297 13263 0 1.99245e-06 
13263 13899 0 1.48969e-06 
16505 12929 0 2.37031e-06 
1512 13899 0 5.0501e-06 
13899 13143 0 4.7353e-06 
13899 7052 0 6.69964e-07 
12929 15217 0 3.10013e-06 
12929 12948 0 1.16101e-06 
13143 9436 0 4.84806e-06 
13143 7138 0 8.58632e-07 
9436 15217 0 3.79411e-06 
9436 12498 0 3.3746e-06 
15532 11064 0 1.32631e-06 
15532 15913 0 1.37416e-06 
3384 7052 0 2.86763e-06 
7052 7138 0 2.7109e-06 
13104 11447 0 1.23194e-06 
11064 12514 0 1.55964e-07 
12498 2401 0 6.88695e-07 
2218 12922 0 4.30066e-07 
12922 8135 0 6.50566e-07 
3698 15878 0 1.957e-06 
15878 10704 0 1.68742e-06 
8135 2740 0 1.25609e-06 
8135 3888 0 2.17302e-07 
10704 4197 0 9.93657e-07 
10704 12472 0 1.32524e-06 
10704 3243 0 7.35431e-07 
1927 17134 0 6.45983e-07 
17134 3731 0 4.77728e-07 
16422 14138 0 2.3254e-08 
10276 7882 0 0.000318691 
2103 14580 0 5.51234e-07 
14580 17343 0 8.84852e-07 
14580 15755 0 6.74638e-07 
18807 6591 0 2.88572e-07 
18807 18647 0 1.02052e-05 
17340 18647 0 8.49617e-06 
15329 13526 0 1.39086e-06 
3351 592 0 1.23725e-05 
3351 9330 0 6.7301e-06 
18624 15990 0 9.45769e-07 
15990 9085 0 2.69512e-06 
15650 18393 0 2.55521e-07 
592 12329 0 3.10928e-05 
4868 5143 0 3.44551e-06 
18393 1266 0 2.2302e-06 
2106 18511 0 2.41093e-06 
5887 12329 0 2.19127e-05 
10946 18272 0 3.54384e-06 
18511 18726 0 9.9213e-07 
15389 18804 0 9.42193e-06 
5143 17270 0 2.37712e-06 
5143 15380 0 8.87429e-08 
5143 12202 0 1.7728e-06 
16400 7435 0 3.91897e-07 
16400 7099 0 2.57617e-06 
16400 9814 0 2.59836e-07 
17007 447 0 4.45476e-06 
17270 14929 0 6.68388e-08 
2693 5666 0 9.48924e-07 
4186 18388 0 1.02338e-06 
4186 18726 0 3.0771e-06 
9820 1939 0 1.85883e-06 
9820 92 0 1.12329e-06 
1939 1024 0 2.01258e-06 
11421 5666 0 2.08693e-06 
11421 17991 0 1.92596e-06 
11421 7099 0 5.71225e-07 
5666 18388 0 1.89641e-06 
5666 18374 0 3.57258e-07 
5666 17619 0 4.51225e-06 
18388 4702 0 1.82841e-06 
9757 92 0 1.86115e-06 
9757 4702 0 1.08853e-06 
9757 13312 0 1.53019e-06 
92 15932 0 2.21602e-07 
1024 15361 0 7.9024e-07 
10248 17991 0 2.00619e-06 
10248 10518 0 2.5091e-06 
17991 14803 0 1.71025e-06 
4702 15932 0 3.06637e-06 
4702 8439 0 3.01717e-06 
10518 15939 0 2.0549e-06 
15932 15361 0 3.29783e-06 
15361 1902 0 9.40351e-07 
15939 15840 0 4.66813e-06 
15939 10235 0 2.84859e-06 
1802 17661 0 1.21734e-06 
14048 3828 0 1.9931e-06 
14048 18374 0 2.7267e-06 
17338 18044 0 7.02866e-07 
17338 18374 0 3.57681e-07 
15560 8342 0 1.25949e-06 
15560 1604 0 8.67738e-06 
8342 10179 0 2.58263e-06 
8342 9534 0 2.48348e-06 
3828 11115 0 1.11199e-06 
3828 5161 0 3.84358e-06 
14956 18044 0 5.21204e-07 
14956 2051 0 7.56221e-06 
18044 16512 0 1.73299e-06 
10179 16263 0 2.1345e-06 
3233 16263 0 4.21708e-06 
3029 485 0 4.61752e-06 
3029 15840 0 5.80039e-06 
11115 16512 0 5.36976e-07 
16512 13042 0 1.85561e-06 
16263 8923 0 3.73984e-06 
16263 13603 0 2.19404e-06 
16263 17254 0 9.06924e-07 
5738 9720 0 2.47031e-07 
5738 4064 0 2.18063e-07 
13042 14506 0 6.22865e-06 
13042 1635 0 5.09507e-06 
17751 8923 0 4.39748e-06 
17751 7439 0 2.0022e-06 
17751 11452 0 2.78563e-06 
17751 1635 0 4.92714e-06 
17751 8502 0 4.23982e-06 
8923 15778 0 3.33317e-06 
13603 15778 0 1.99529e-06 
485 11223 0 2.31626e-06 
485 9720 0 5.30842e-06 
485 17400 0 1.88498e-06 
14506 17479 0 6.24845e-06 
14506 7439 0 1.94044e-06 
14506 13399 0 3.32727e-06 
14506 3195 0 1.77319e-06 
11223 9720 0 4.3293e-06 
9720 17069 0 5.7357e-06 
9720 12958 0 4.22792e-06 
9720 6864 0 2.27978e-06 
17069 10327 0 3.32969e-06 
17069 15700 0 4.22086e-06 
10327 17479 0 3.24338e-06 
10327 2043 0 1.1929e-06 
17479 15700 0 4.3595e-06 
17479 13399 0 8.57254e-07 
17479 1180 0 2.41372e-06 
15778 2129 0 2.62007e-06 
12958 10999 0 5.82189e-06 
12958 3872 0 3.26882e-06 
15700 2070 0 4.70588e-06 
13399 13124 0 3.32867e-06 
15023 13124 0 2.30406e-06 
15023 13662 0 2.19221e-06 
15023 15894 0 1.076e-06 
2129 7070 0 1.15993e-06 
10999 2328 0 2.35404e-06 
10999 2070 0 5.94279e-06 
10999 12037 0 2.73456e-06 
1180 15808 0 2.36312e-06 
1180 9251 0 1.37249e-06 
13124 13937 0 2.20685e-06 
13124 14311 0 2.46342e-06 
2328 13113 0 3.09885e-06 
2070 15808 0 7.20299e-06 
6342 17753 0 2.59484e-06 
13113 1489 0 1.76217e-06 
13113 17247 0 2.86857e-06 
12037 16992 0 1.15689e-06 
12037 14247 0 4.2937e-06 
12037 4571 0 7.07222e-06 
16992 15808 0 2.69423e-06 
16992 7566 0 2.59033e-06 
16992 7808 0 1.06487e-06 
15808 13937 0 1.80394e-06 
15808 9823 0 8.14318e-06 
13937 1893 0 1.41533e-06 
1489 14247 0 4.61368e-06 
1489 12303 0 1.93218e-06 
1489 15866 0 1.74056e-06 
1489 836 0 3.45555e-06 
14247 7566 0 1.98131e-06 
14247 15518 0 1.45531e-06 
7566 11498 0 2.05765e-07 
9823 16500 0 7.84472e-06 
9823 7738 0 1.82295e-06 
1893 12443 0 3.28837e-07 
1893 16500 0 2.14454e-06 
1431 4956 0 2.53414e-06 
1431 16276 0 2.67062e-06 
17753 17455 0 2.85136e-06 
17753 5416 0 9.45322e-07 
12303 15719 0 2.25459e-06 
4956 17455 0 2.81461e-06 
4956 9700 0 4.03686e-06 
4956 16500 0 9.82464e-07 
17455 3052 0 1.01688e-06 
5416 4653 0 1.16981e-07 
5416 3052 0 5.28076e-07 
8205 2978 0 1.32515e-06 
8205 836 0 3.0393e-06 
15719 16041 0 2.85432e-06 
15719 8737 0 3.03981e-06 
16041 8480 0 4.80743e-06 
16041 2253 0 6.3838e-07 
4086 8480 0 4.35012e-06 
4086 11867 0 4.84597e-06 
9700 13486 0 3.08548e-06 
9700 16500 0 8.34794e-06 
9700 14981 0 8.68994e-06 
3052 11255 0 1.55435e-06 
3052 3982 0 1.0917e-06 
13486 11255 0 2.94255e-06 
14327 4383 0 7.48966e-07 
13526 18782 0 1.58735e-06 
13526 2478 0 3.25713e-06 
9330 13755 0 4.25133e-06 
9330 14365 0 3.49748e-06 
9330 11922 0 3.97387e-06 
12329 15687 0 4.74484e-05 
12329 18804 0 2.57314e-05 
6247 5642 0 7.11906e-06 
18726 5460 0 1.67234e-06 
18726 13312 0 2.11045e-06 
18726 11742 0 2.48648e-06 
18374 8020 0 3.72911e-06 
15840 4064 0 9.62704e-07 
15840 2545 0 2.32527e-06 
15840 8470 0 6.2506e-06 
4064 2109 0 1.48812e-06 
1635 3850 0 6.99048e-06 
13598 2043 0 3.52432e-07 
13598 10044 0 9.3179e-08 
2043 7484 0 1.48263e-06 
2043 1948 0 7.2034e-09 
13662 14731 0 1.52871e-06 
14311 3217 0 2.96809e-06 
14311 9251 0 3.14644e-06 
14311 17279 0 4.28116e-06 
7070 16276 0 3.32541e-06 
7070 5778 0 2.91854e-06 
7070 8408 0 3.0831e-07 
7070 3171 0 1.42697e-06 
12443 9327 0 1.19364e-06 
12443 17279 0 2.07253e-06 
16276 9327 0 1.90812e-07 
11867 7738 0 4.09907e-06 
11867 8821 0 2.3e-06 
11867 8257 0 2.39863e-06 
2978 8737 0 6.72893e-07 
14981 8821 0 3.44792e-06 
14981 1336 0 1.22351e-06 
7958 18782 0 2.38443e-06 
18782 8083 0 2.69051e-07 
15755 16657 0 3.70878e-06 
13755 15076 0 5.22271e-06 
18839 18804 0 1.75661e-06 
6618 3359 0 1.20374e-06 
14629 1266 0 1.20256e-06 
14629 12650 0 5.18941e-06 
18804 11742 0 2.4852e-07 
18272 7579 0 2.66867e-06 
447 10651 0 2.59613e-06 
447 13719 0 2.47208e-06 
9573 18795 0 1.52064e-06 
5460 18736 0 1.97551e-06 
5460 1338 0 3.29167e-07 
10651 8951 0 2.19953e-06 
12202 7173 0 4.2745e-06 
2814 17202 0 3.08436e-06 
2814 13024 0 1.48333e-06 
17202 8621 0 5.06656e-07 
17202 17619 0 3.27897e-06 
17202 7579 0 1.0982e-06 
13312 8439 0 3.08216e-06 
16538 18262 0 7.17242e-07 
16538 5027 0 2.1135e-06 
13024 16478 0 6.88524e-07 
17619 8020 0 5.32888e-06 
17619 18795 0 2.95074e-06 
18736 17757 0 3.05807e-06 
8951 17757 0 2.54069e-07 
8951 13897 0 5.6472e-07 
18262 10235 0 1.07963e-06 
8020 15846 0 9.90372e-07 
8020 16281 0 6.10632e-06 
8020 15050 0 4.84797e-06 
8439 18671 0 3.3055e-06 
17757 9534 0 3.71215e-07 
14803 15846 0 2.2139e-06 
14803 17864 0 3.10105e-06 
15846 4150 0 8.50518e-07 
16281 1604 0 7.20898e-06 
16281 2903 0 4.17958e-06 
16281 17272 0 2.6028e-06 
1604 9534 0 1.12145e-06 
1604 3183 0 5.05633e-06 
1604 13496 0 5.78089e-06 
9534 282 0 2.26121e-06 
9534 3183 0 9.70493e-07 
10235 1164 0 2.55126e-06 
17661 2903 0 2.72757e-06 
17661 17864 0 1.98183e-06 
17661 4150 0 1.03667e-06 
2903 11396 0 2.15069e-06 
2903 15300 0 3.5435e-06 
17864 2109 0 3.58754e-06 
2051 16682 0 2.88625e-06 
2051 11396 0 6.98015e-06 
17272 3850 0 2.82889e-06 
3183 3850 0 2.16228e-06 
3183 11133 0 4.97273e-06 
2109 10064 0 3.38366e-06 
5161 10439 0 1.30182e-06 
5161 16857 0 3.93693e-06 
16682 1557 0 3.16272e-06 
3850 18602 0 2.16713e-06 
3850 6341 0 5.37243e-06 
3850 13701 0 4.81465e-06 
11133 18602 0 1.71028e-06 
11133 17254 0 5.11374e-06 
11133 7763 0 2.03746e-06 
2545 17400 0 2.59962e-06 
2545 12407 0 4.97705e-06 
10439 2431 0 1.2595e-06 
18602 13939 0 4.10627e-07 
17254 7479 0 1.91996e-06 
17254 14522 0 4.12976e-06 
10064 6864 0 2.48357e-06 
10064 1236 0 2.5786e-06 
7484 7748 0 2.01792e-06 
7484 1948 0 1.38133e-07 
7484 8398 0 2.44044e-06 
17400 12746 0 1.63348e-06 
6864 4325 0 1.12645e-06 
6864 14044 0 4.47115e-07 
3195 8502 0 1.9527e-06 
3195 15894 0 1.19734e-06 
3195 1948 0 1.94109e-06 
8502 14731 0 2.3995e-06 
8502 1557 0 2.99588e-06 
8418 14731 0 1.73229e-06 
12746 3872 0 1.91508e-06 
14731 9295 0 3.51382e-06 
14731 7040 0 2.31829e-06 
9295 2725 0 3.16672e-06 
9295 5778 0 2.42486e-06 
9295 14522 0 2.60878e-06 
2725 5778 0 1.47936e-06 
2725 14522 0 1.26594e-06 
3872 17009 0 2.53898e-06 
4325 10869 0 2.00108e-06 
4325 15516 0 5.70824e-07 
3217 1948 0 2.69581e-06 
15894 896 0 1.8855e-06 
10869 11956 0 2.95683e-06 
10869 3550 0 3.43175e-06 
10869 15516 0 2.15085e-06 
11956 9251 0 3.66613e-06 
11956 14233 0 2.08483e-06 
896 7040 0 3.37291e-06 
896 17279 0 3.67924e-06 
7040 3171 0 4.46908e-06 
7040 7050 0 5.12067e-07 
17247 3550 0 2.96556e-06 
17247 15866 0 5.97126e-07 
17247 17009 0 2.76394e-06 
17247 14412 0 2.30565e-06 
3550 15518 0 3.1007e-06 
9251 7808 0 1.86799e-08 
9251 16132 0 1.38787e-06 
9327 11473 0 8.06134e-07 
9327 17963 0 1.2055e-06 
4571 9661 0 4.50529e-06 
4571 6796 0 4.06657e-06 
7808 11498 0 1.47986e-06 
7808 11205 0 1.31993e-06 
17279 7738 0 6.21272e-06 
15518 11498 0 8.02782e-07 
15518 16234 0 3.25351e-06 
11498 16048 0 1.57945e-06 
11498 2253 0 6.25301e-08 
11205 7738 0 2.26171e-06 
11205 16132 0 1.84523e-06 
11205 9730 0 1.94594e-06 
7738 16899 0 4.59359e-06 
836 16234 0 3.25903e-06 
836 10124 0 3.29995e-06 
836 12285 0 3.97935e-07 
16234 16048 0 4.23237e-07 
16234 11707 0 2.84358e-06 
16234 718 0 1.77686e-06 
16048 11707 0 2.80375e-06 
10124 9453 0 2.59922e-06 
2253 9730 0 4.08761e-07 
8821 5088 0 1.53485e-06 
8821 7818 0 3.18584e-06 
8821 16899 0 3.17204e-06 
5088 14383 0 9.61132e-08 
8471 2334 0 3.22587e-07 
11991 1336 0 1.68205e-06 
9453 11707 0 3.9316e-06 
7818 8257 0 4.69629e-06 
14050 2028 0 2.84994e-07 
11866 4547 0 2.53108e-07 
10722 6084 0 4.98346e-06 
10722 5591 0 6.42033e-06 
15687 8033 0 2.21802e-05 
12650 3359 0 2.09383e-06 
12650 5591 0 8.22805e-06 
3359 6878 0 2.90043e-07 
15869 7579 0 7.17451e-07 
15869 2765 0 1.0934e-06 
13811 14638 0 3.70035e-06 
13719 17251 0 1.85239e-06 
5642 3235 0 3.17555e-06 
5642 14638 0 5.15253e-06 
11742 10997 0 2.60045e-06 
7579 18325 0 3.28827e-06 
953 15805 0 2.26903e-06 
18795 15050 0 4.10914e-06 
18795 14006 0 3.87883e-06 
3143 5800 0 8.92234e-06 
15805 2180 0 8.99249e-06 
13897 8639 0 1.96187e-06 
16478 9793 0 9.2111e-07 
16478 18370 0 2.59359e-06 
15050 18565 0 6.55341e-06 
1735 14811 0 1.19297e-06 
13818 9633 0 7.34487e-07 
18671 15338 0 5.11457e-06 
7216 13496 0 1.95377e-06 
4150 10989 0 2.8189e-06 
4150 16857 0 1.59603e-06 
4150 15300 0 3.41652e-06 
13496 640 0 4.66373e-06 
1164 8125 0 3.52831e-07 
1164 14811 0 6.8119e-07 
1164 8138 0 1.8635e-06 
8125 10989 0 2.7113e-06 
8125 8470 0 2.08742e-06 
3242 6749 0 1.96484e-06 
3242 7763 0 2.30606e-06 
6749 11978 0 7.73325e-08 
8470 15864 0 6.46536e-06 
16857 11396 0 2.19574e-06 
16857 8816 0 4.98526e-06 
16857 15305 0 3.78854e-06 
11396 11963 0 5.30705e-06 
11396 8369 0 5.53276e-06 
6341 15196 0 3.93448e-06 
7763 330 0 5.10509e-07 
7763 5178 0 2.88322e-06 
18729 8177 0 2.95864e-06 
18729 18704 0 3.00123e-06 
18729 16841 0 2.49655e-06 
12407 1072 0 4.24766e-06 
12407 15305 0 5.76602e-06 
18704 13939 0 3.79895e-06 
2431 15305 0 1.46396e-06 
2431 14073 0 1.56145e-06 
1072 14044 0 4.32525e-06 
7748 1557 0 1.75172e-06 
1557 319 0 3.02654e-06 
319 13939 0 3.58439e-06 
319 330 0 9.73931e-07 
319 14844 0 3.07539e-06 
319 15798 0 1.6017e-06 
13939 5953 0 1.31436e-06 
13939 14862 0 3.61304e-07 
14044 1236 0 4.34974e-06 
14044 10356 0 5.64455e-06 
14044 7786 0 9.47955e-07 
1236 8398 0 5.12838e-06 
1236 15561 0 5.67417e-07 
1948 2497 0 3.34415e-06 
14522 72 0 1.46881e-06 
14522 5953 0 2.78875e-06 
6529 7050 0 1.96035e-06 
10356 17009 0 4.10183e-06 
10356 5371 0 1.52446e-06 
10356 13391 0 2.81401e-06 
17009 7180 0 4.13502e-06 
17009 328 0 1.3353e-06 
14648 9661 0 1.23993e-06 
3171 7770 0 2.57762e-06 
7180 6796 0 3.39286e-06 
7180 15516 0 3.28731e-06 
7180 328 0 8.46242e-07 
9661 1223 0 3.62051e-06 
6386 16132 0 2.04324e-07 
6386 1641 0 1.27688e-06 
6386 16734 0 8.54747e-07 
11473 1641 0 1.61804e-06 
14412 6220 0 2.07462e-06 
6796 718 0 5.7503e-07 
6796 17152 0 3.90937e-06 
16132 1032 0 6.64799e-07 
14061 1032 0 3.02733e-07 
2577 9730 0 2.22686e-06 
2577 718 0 1.75585e-06 
9730 8257 0 4.04564e-06 
9730 5068 0 1.00102e-06 
9730 8780 0 2.9355e-06 
16899 8257 0 3.3931e-06 
16899 3197 0 1.71924e-06 
16899 14377 0 2.28761e-06 
16899 3416 0 2.67943e-06 
12281 2334 0 1.72099e-07 
12281 5215 0 8.07592e-07 
12285 2262 0 6.10526e-07 
12285 6220 0 7.6937e-07 
11707 14428 0 3.90273e-06 
11707 5068 0 2.22574e-06 
3197 13892 0 1.94532e-06 
3197 4633 0 1.9148e-06 
1336 13953 0 4.36325e-07 
6084 2788 0 6.14097e-06 
6084 18557 0 1.10539e-05 
8083 4159 0 2.86119e-06 
5591 6092 0 4.92095e-06 
14305 14638 0 4.11953e-06 
14305 4159 0 1.10994e-06 
12864 18165 0 1.20997e-05 
14638 8450 0 8.7063e-06 
18165 10997 0 6.26466e-06 
2765 6092 0 8.21793e-06 
2765 12992 0 1.00818e-06 
9857 18814 0 2.56114e-06 
15868 6782 0 4.63075e-06 
18325 1354 0 5.12653e-06 
14006 8456 0 1.32495e-06 
14006 8450 0 5.82306e-06 
14006 1354 0 8.64354e-07 
8511 10508 0 7.36181e-07 
6782 5800 0 7.92118e-06 
12544 4628 0 1.40753e-06 
10865 5800 0 7.56293e-06 
2180 5800 0 6.10499e-06 
8639 13666 0 2.80323e-06 
9633 7262 0 2.60467e-06 
9633 15683 0 1.56692e-06 
15300 11963 0 3.09466e-06 
15300 18565 0 4.28367e-06 
10883 15864 0 6.13554e-06 
10883 15305 0 3.84841e-06 
10883 18664 0 2.65683e-06 
10883 7262 0 5.96274e-06 
8816 11963 0 2.03207e-06 
8816 4759 0 6.27872e-06 
8816 3585 0 2.2063e-07 
11963 15302 0 4.09415e-06 
11963 18698 0 4.66872e-06 
11963 3585 0 1.0595e-06 
15196 6329 0 3.03564e-06 
15196 15302 0 2.54268e-06 
15864 16480 0 7.41052e-06 
15305 14907 0 2.57708e-06 
16841 3124 0 2.13996e-06 
16841 7739 0 8.99123e-07 
8369 8398 0 5.00796e-06 
8369 14907 0 6.4729e-06 
8369 7406 0 4.63063e-06 
13701 330 0 1.24933e-06 
13701 16168 0 5.47824e-06 
13701 18698 0 2.49419e-06 
8274 4496 0 3.872e-07 
14073 7153 0 1.1002e-06 
14073 15561 0 2.54313e-06 
8398 2497 0 3.50592e-06 
16168 7406 0 4.82605e-06 
16168 15798 0 2.96813e-06 
16168 17522 0 5.07503e-06 
2497 5479 0 1.716e-06 
2497 18512 0 3.09894e-06 
5953 3601 0 3.14509e-06 
4985 15516 0 2.29154e-06 
4985 14219 0 3.91908e-07 
11752 1641 0 2.3374e-06 
11752 17522 0 1.50231e-06 
14844 7050 0 2.31489e-06 
14844 3601 0 9.89642e-07 
7050 1641 0 3.77553e-07 
7050 2916 0 2.48678e-06 
15759 13096 0 1.80464e-06 
15516 7786 0 2.12027e-06 
15516 14219 0 1.31414e-06 
328 13391 0 3.96657e-06 
328 8904 0 4.46423e-06 
328 1405 0 5.76852e-07 
17963 7716 0 1.03968e-06 
17963 18494 0 2.10277e-06 
17963 11683 0 1.18047e-06 
7770 5488 0 1.78559e-06 
8904 718 0 2.85218e-06 
8904 17152 0 4.95942e-06 
8904 12529 0 1.51446e-06 
3348 17152 0 4.31358e-06 
16734 15656 0 5.49542e-07 
718 14428 0 2.35583e-06 
15656 16356 0 2.15539e-07 
7716 5215 0 4.14533e-07 
6220 14724 0 1.24369e-06 
14377 3416 0 1.78685e-06 
14377 10295 0 3.06691e-06 
14377 16356 0 2.76319e-06 
3416 15703 0 1.38344e-06 
3416 13953 0 8.40186e-07 
3416 17603 0 3.15684e-06 
5215 17777 0 1.32675e-06 
14428 7747 0 4.17078e-06 
14428 2876 0 2.33537e-06 
5068 10295 0 2.44481e-06 
5068 1936 0 2.38875e-06 
5068 7190 0 1.56834e-06 
10295 9702 0 2.32198e-06 
13953 17777 0 5.10594e-07 
17777 17594 0 5.17151e-07 
7747 2311 0 5.02891e-07 
2311 2876 0 1.29126e-06 
9947 13892 0 9.47988e-07 
9947 16493 0 8.03429e-07 
7335 17594 0 1.73472e-06 
5935 279 0 8.94277e-07 
5935 14837 0 4.6636e-07 
18557 18296 0 3.67258e-05 
11481 4159 0 1.04198e-05 
15199 3955 0 8.38628e-07 
15199 4949 0 2.86707e-07 
15199 1279 0 2.45179e-06 
6092 17503 0 7.02075e-06 
8450 12387 0 6.67909e-06 
15034 5800 0 3.10434e-07 
12054 16621 0 1.87466e-07 
3534 15683 0 3.03946e-06 
10508 18565 0 6.20521e-06 
10508 6772 0 5.52743e-06 
5800 1225 0 4.06355e-06 
4628 8138 0 2.05347e-06 
4628 3110 0 2.90297e-06 
18565 4759 0 8.38988e-06 
18565 15839 0 6.93047e-08 
15338 640 0 3.67772e-06 
15338 8119 0 6.29598e-06 
13666 6329 0 3.1597e-06 
18664 8138 0 1.12484e-06 
18664 8749 0 4.88725e-06 