ITEM: TIMESTEP
20000000
ITEM: NUMBER OF ENTRIES
4149
ITEM: BOX BOUNDS ff ff ff
-0.01 0.45
-0.15 0.15
-0.08 0.1
ITEM: ENTRIES c_ppc[1] c_ppc[2] c_ppc[3] c_ppc[4] 
3102 781 0 2.72663e-07 
2855 92 0 0.000110238 
867 2863 0 0.000642548 
3403 674 0 7.46253e-05 
480 477 0 0.000500014 
1061 228 0 0.00018729 
218 21 0 1.36345e-05 
4352 21 0 1.88112e-05 
4728 4793 0 7.17233e-06 
4728 1541 0 3.55376e-05 
4864 1383 0 4.05096e-05 
4281 3313 0 2.81647e-05 
4281 4246 0 3.22643e-05 
1768 4785 0 8.2508e-06 
3313 130 0 8.50422e-06 
3672 655 0 2.26276e-06 
2297 1841 0 1.63997e-05 
2297 4520 0 7.71921e-06 
4774 1039 0 6.19299e-06 
4774 1069 0 3.986e-06 
4090 3838 0 1.68934e-05 
1039 1627 0 1.36218e-05 
4216 4052 0 2.98571e-06 
294 4013 0 9.62043e-06 
294 2851 0 3.01236e-06 
940 571 0 2.26452e-06 
3836 3844 0 6.79474e-06 
3836 2302 0 3.07598e-07 
3836 4807 0 8.15043e-06 
3844 2089 0 1.01199e-05 
4013 4431 0 1.10757e-05 
446 2302 0 8.37614e-06 
446 272 0 8.177e-06 
446 571 0 1.22821e-05 
2302 565 0 4.85719e-06 
2302 1490 0 3.89578e-06 
4052 2089 0 2.62101e-06 
2089 3334 0 1.32817e-05 
2089 2063 0 1.68341e-06 
4431 272 0 2.81628e-06 
4431 2982 0 4.35357e-06 
4431 3104 0 1.92131e-06 
2771 272 0 7.72277e-06 
2771 2313 0 3.0064e-06 
2771 4746 0 8.17927e-06 
565 4165 0 4.20923e-06 
565 1514 0 2.584e-06 
3334 2988 0 1.20718e-05 
3579 272 0 4.48084e-06 
3579 3639 0 3.72507e-06 
1546 1127 0 1.24676e-06 
1546 2981 0 3.79179e-06 
2982 3340 0 1.08645e-05 
2982 3104 0 1.66653e-05 
2313 4410 0 4.93073e-06 
4165 1124 0 1.07057e-05 
4165 4540 0 2.28586e-05 
4165 1514 0 1.07672e-05 
3639 3630 0 5.81257e-06 
3476 3630 0 3.58888e-06 
3476 215 0 2.31961e-05 
3476 4410 0 2.49051e-05 
1124 3285 0 1.60295e-05 
1124 2129 0 3.61783e-06 
3285 1127 0 1.26429e-05 
3285 3125 0 1.38569e-05 
3285 502 0 1.51076e-05 
3285 3742 0 4.7161e-07 
3285 3617 0 1.14507e-05 
4025 3340 0 1.48351e-05 
4025 2023 0 8.6596e-06 
4025 2772 0 1.30028e-05 
3630 2023 0 8.21417e-06 
215 4540 0 2.138e-05 
215 1980 0 2.60487e-05 
215 663 0 1.01152e-05 
2023 4302 0 2.50537e-06 
2023 2772 0 7.79235e-06 
3090 663 0 1.69831e-05 
1980 2942 0 4.86234e-06 
2942 1539 0 7.99553e-06 
2942 4390 0 9.05638e-06 
2779 407 0 3.39349e-05 
4823 1432 0 1.2902e-05 
1432 4164 0 3.72796e-06 
1017 562 0 1.70142e-06 
817 1670 0 1.95044e-06 
817 1383 0 1.43946e-05 
272 2308 0 5.18462e-06 
272 3145 0 8.35859e-06 
3340 2433 0 1.45809e-05 
3340 1162 0 1.95182e-06 
4540 4394 0 2.61308e-05 
1592 3635 0 8.38091e-05 
2591 4246 0 1.91423e-05 
4246 1671 0 1.40506e-05 
130 2282 0 6.31075e-06 
2282 442 0 2.19493e-06 
4856 4892 0 1.57349e-05 
4856 3162 0 2.21431e-06 
4785 4520 0 2.2765e-05 
4785 2851 0 1.63206e-05 
1069 775 0 8.77374e-06 
4520 4807 0 1.56404e-05 
4520 2461 0 1.21561e-05 
4520 3478 0 6.1874e-06 
4892 4479 0 2.07449e-05 
2851 4193 0 1.85916e-05 
4807 1385 0 1.11853e-05 
1231 1490 0 9.68893e-06 
1231 2567 0 6.41306e-06 
1231 1349 0 4.05506e-06 
4479 2216 0 1.46453e-05 
4193 2308 0 1.74912e-05 
571 2461 0 9.95437e-06 
1490 1385 0 6.79293e-06 
2567 3402 0 1.8948e-06 
2567 91 0 5.2503e-06 
2308 3104 0 1.65824e-05 
2063 1514 0 2.02707e-06 
2063 1650 0 1.26299e-05 
2063 354 0 1.57477e-05 
1650 89 0 1.02551e-05 
1650 2981 0 2.49671e-06 
89 3742 0 8.08468e-06 
89 1444 0 3.55955e-06 
3104 3145 0 1.82022e-06 
3104 3932 0 1.53014e-05 
3145 2433 0 5.23172e-06 
3145 4480 0 7.82365e-06 
4746 2830 0 9.37885e-06 
1514 2981 0 8.53835e-07 
1514 1352 0 3.89975e-06 
2981 3742 0 4.94789e-06 
4410 2433 0 7.88e-06 
4410 4480 0 2.45615e-05 
2641 2830 0 3.39016e-06 
3742 1195 0 9.81611e-06 
3742 62 0 8.87372e-06 
2433 4089 0 1.56271e-05 
2433 3932 0 1.73454e-05 
2129 4178 0 3.35869e-06 
4089 663 0 9.46814e-06 
4089 4394 0 1.256e-05 
4089 4564 0 7.19561e-06 
4394 2704 0 9.53073e-06 
4394 4159 0 2.01417e-05 
4394 2643 0 1.99331e-05 
3617 302 0 1.72437e-05 
3617 62 0 1.44751e-05 
3617 4513 0 1.42311e-05 
4302 3776 0 7.89817e-07 
4302 1952 0 4.7122e-06 
663 2643 0 1.57483e-05 
2704 1539 0 9.8127e-06 
2772 3776 0 1.84428e-05 
1539 3236 0 1.19296e-05 
4390 3622 0 9.71099e-06 
1671 2173 0 2.06964e-05 
1671 4880 0 2.24266e-06 
2173 775 0 2.43942e-05 
3478 2029 0 1.83157e-06 
2626 3012 0 4.84779e-06 
1385 4858 0 1.22135e-05 
1349 354 0 1.9438e-06 
1349 91 0 8.90927e-06 
1349 4192 0 2.25586e-06 
354 4858 0 1.8012e-05 
91 1444 0 1.15331e-05 
91 1352 0 2.56905e-06 
1321 2722 0 2.55225e-06 
1321 3932 0 5.2862e-06 
1321 3997 0 2.68874e-06 
579 4858 0 1.01031e-05 
579 4480 0 1.21358e-05 
579 3997 0 2.33811e-06 
1444 3338 0 3.57039e-06 
1444 3756 0 9.41135e-06 
2830 1970 0 1.57268e-07 
2830 4628 0 9.2097e-06 
1352 1970 0 1.22813e-05 
1352 3756 0 1.34095e-05 
1352 4628 0 2.89653e-06 
3756 62 0 1.69905e-05 
3932 2703 0 1.85138e-05 
3932 676 0 8.03883e-06 
4480 1447 0 1.35018e-05 
4480 4160 0 2.53106e-05 
62 3988 0 1.57109e-05 
62 4513 0 1.64598e-05 
62 2159 0 2.88282e-06 
4178 3988 0 5.74557e-06 
4178 4159 0 8.89173e-07 
4178 3236 0 1.05124e-05 
4178 2565 0 3.78525e-06 
2643 1447 0 7.07779e-06 
2643 1952 0 5.91778e-06 
2643 2565 0 1.19802e-05 
2643 3757 0 2.30254e-05 
3236 3624 0 6.81373e-06 
4513 3622 0 1.5203e-05 
4513 2673 0 9.92781e-06 
4513 3717 0 7.31009e-06 
3776 4564 0 9.50005e-06 
3776 3697 0 1.57846e-05 
1952 4564 0 3.74139e-06 
4919 1496 0 2.96181e-05 
457 3673 0 7.40149e-06 
633 4192 0 5.29302e-07 
2029 1588 0 5.37116e-06 
3012 2186 0 1.99396e-06 
1780 4435 0 5.24034e-06 
2186 2531 0 4.25345e-06 
4192 2132 0 3.13751e-06 
4435 3997 0 1.16748e-05 
986 4858 0 1.0232e-05 
986 1970 0 1.10462e-05 
986 2132 0 8.13049e-06 
3338 2216 0 7.22149e-06 
3338 4161 0 6.80513e-06 
3338 3181 0 2.77523e-06 
3997 4858 0 2.40936e-05 
3997 4735 0 2.61328e-05 
3997 4670 0 5.11152e-06 
3997 4213 0 4.6847e-06 
1970 4161 0 1.00887e-06 
1970 3021 0 7.37494e-06 
676 887 0 7.9559e-06 
676 1447 0 1.17621e-05 
676 849 0 1.27335e-05 
4628 3988 0 1.63645e-05 
4628 4159 0 1.96566e-05 
4628 3021 0 1.87875e-05 
1447 4159 0 1.97342e-05 
1447 4564 0 2.28376e-05 
1447 3675 0 1.78358e-05 
4159 4160 0 1.86361e-06 
3697 4564 0 2.12966e-05 
3697 2455 0 2.05649e-05 
2565 3249 0 9.26408e-06 
2565 3624 0 1.09755e-05 
3757 3675 0 2.9936e-05 
2673 511 0 3.14048e-06 
4050 781 0 1.20981e-06 
4050 2847 0 3.5949e-06 
4880 3175 0 5.793e-06 
1471 1126 0 3.53023e-05 
1471 601 0 5.26846e-05 
1471 4901 0 2.96334e-05 
4901 1126 0 1.49262e-05 
4901 3487 0 1.73483e-05 
1588 3432 0 1.95754e-06 
1588 2160 0 1.208e-05 
2160 4735 0 1.3925e-05 
2160 3432 0 2.32626e-06 
2160 4088 0 7.41865e-06 
4161 2132 0 1.16194e-06 
4161 4468 0 1.2762e-05 
3540 43 0 5.34432e-06 
3540 1123 0 9.13177e-08 
4735 2703 0 2.61339e-05 
3021 665 0 3.65125e-06 
3021 1684 0 1.55384e-05 
2703 489 0 2.69944e-05 
849 4875 0 1.17312e-05 
4160 1252 0 2.36845e-05 
1123 2159 0 1.29263e-06 
4340 1622 0 4.53639e-06 
4340 400 0 5.14382e-06 
3249 2712 0 4.24405e-06 
3249 284 0 3.79595e-06 
2159 284 0 1.53282e-05 
2940 650 0 5.50099e-06 
3675 400 0 1.67321e-05 
3675 2746 0 2.0974e-05 
3624 538 0 1.32541e-05 
3624 1232 0 2.12502e-06 
2112 898 0 2.04542e-05 
2195 2531 0 7.07784e-06 
2195 566 0 8.18044e-06 
2531 966 0 7.34769e-06 
2531 2972 0 5.70769e-08 
966 665 0 6.41285e-06 
2132 549 0 8.48866e-06 
3487 4832 0 1.19584e-05 
3487 2538 0 3.10946e-06 
4832 3181 0 8.66931e-06 
4832 1259 0 1.19712e-05 
665 4468 0 8.46351e-06 
665 2231 0 4.20443e-06 
4468 4082 0 1.26132e-06 
4468 314 0 1.60824e-05 
4468 1173 0 2.16865e-05 
4875 4473 0 4.22691e-06 
4875 2231 0 7.49889e-06 
4082 1662 0 7.28505e-06 
4082 4629 0 1.10273e-05 
3892 387 0 1.38024e-06 
3892 4043 0 3.89824e-06 
1252 1684 0 1.9252e-05 
1252 387 0 2.68242e-06 
1252 4450 0 1.55686e-05 
1622 387 0 1.40643e-06 
1622 2746 0 5.95799e-06 
3730 2243 0 6.09336e-06 
489 650 0 2.26151e-05 
489 3797 0 6.21462e-06 
284 348 0 1.03342e-05 
284 538 0 1.30842e-05 
284 3584 0 1.5496e-05 
650 2455 0 2.24841e-05 
650 3797 0 9.18017e-06 
650 2510 0 1.6594e-05 
400 538 0 6.53029e-06 
400 346 0 1.60608e-05 
348 3530 0 7.40834e-06 
348 3731 0 7.25715e-06 
4422 2999 0 1.47604e-06 
2999 1232 0 1.62405e-06 
566 4088 0 5.28157e-06 
566 830 0 3.43052e-06 
1119 3138 0 9.91743e-06 
4088 4473 0 5.70508e-06 
4088 269 0 7.20945e-06 
549 1358 0 3.54727e-06 
549 1907 0 1.22952e-05 
549 1173 0 7.82002e-07 
2538 1173 0 1.36968e-05 
4473 4103 0 6.70832e-06 
2231 1533 0 8.19828e-06 
1684 1907 0 2.56646e-05 
1684 1862 0 1.09374e-05 
387 4368 0 3.69907e-06 
314 3584 0 1.5902e-05 
4043 3797 0 9.52382e-06 
4450 2746 0 7.39928e-06 
4450 1609 0 3.05666e-06 
4450 4224 0 9.9839e-06 
3584 1862 0 1.54297e-05 
3584 4406 0 5.92012e-07 
3584 4544 0 4.32218e-06 
3584 1648 0 2.05669e-05 
3797 2746 0 1.46875e-05 
3797 3807 0 8.39423e-06 
3797 2715 0 1.13703e-05 
3797 4368 0 8.71386e-06 
2746 2055 0 1.39903e-05 
4406 1667 0 3.24451e-06 
2055 891 0 1.39975e-05 
1667 810 0 1.47134e-05 
1667 346 0 1.15184e-05 
3731 810 0 9.82115e-06 
3731 108 0 7.17754e-06 
3731 3939 0 2.7329e-06 
810 3939 0 1.3245e-05 
1851 3137 0 8.09672e-06 
1358 3138 0 2.89601e-06 
1358 1533 0 3.9453e-06 
1048 1999 0 1.53498e-06 
4103 4787 0 3.27416e-06 
4103 269 0 3.51171e-06 
4103 4017 0 5.25868e-06 
1533 563 0 3.12596e-06 
1907 1904 0 1.99438e-05 
1907 1338 0 1.18026e-05 
1907 1909 0 1.42435e-05 
1173 1887 0 1.73298e-05 
4787 3674 0 3.44717e-06 
1609 1909 0 1.86887e-07 
1887 4544 0 1.90982e-05 
4368 3792 0 6.89757e-06 
4368 3593 0 3.8466e-06 
1862 346 0 1.48719e-05 
1862 3231 0 1.65338e-05 
346 1510 0 1.02064e-05 
1648 108 0 1.17295e-05 
1648 4544 0 9.86555e-06 
1648 1053 0 1.71098e-05 
3807 2510 0 6.65019e-06 
3807 3941 0 1.27025e-06 
2715 4176 0 1.73085e-05 
2715 4224 0 5.80596e-06 
2715 3593 0 1.49169e-05 
2510 4470 0 1.49132e-05 
2807 4456 0 2.06875e-05 
3137 830 0 2.88349e-07 
830 269 0 1.35305e-05 
4912 3734 0 2.43776e-05 
559 1999 0 1.18126e-05 
559 3115 0 4.43968e-05 
559 937 0 4.66623e-06 
1999 4866 0 4.02349e-06 
1904 1908 0 1.95939e-05 
1338 2471 0 9.11003e-06 
1338 1217 0 9.05729e-06 
1559 1156 0 2.65347e-06 
1909 3231 0 1.25671e-05 
1909 825 0 8.54455e-06 
3792 2459 0 5.69361e-06 
3231 4748 0 7.53417e-06 
3231 4516 0 8.98651e-06 
3231 4484 0 8.27215e-06 
4544 2329 0 1.02195e-05 
4544 1128 0 8.33984e-07 
4544 4048 0 7.30441e-06 
3593 2001 0 1.28106e-05 
4516 2329 0 1.08828e-05 
1510 891 0 9.1289e-06 
1510 3136 0 6.2024e-06 
2329 3939 0 1.89822e-05 
2329 342 0 1.1697e-06 
1053 4259 0 9.59246e-06 
3939 3763 0 4.9253e-06 
3939 2374 0 1.22659e-05 
4470 1098 0 9.236e-06 
891 3763 0 1.00527e-05 
891 3093 0 5.50339e-06 
3438 1908 0 6.76618e-06 
3438 2548 0 5.69744e-05 
2671 1908 0 8.0684e-06 
1908 1901 0 1.81152e-05 
1660 4017 0 1.09591e-06 
1660 2829 0 8.65874e-07 
4866 2471 0 2.61886e-06 
4017 3498 0 4.08027e-06 
2471 1128 0 1.14996e-05 
2459 4484 0 3.51582e-06 
2459 2001 0 1.53244e-06 
2459 2075 0 6.7476e-06 
4048 4484 0 2.56075e-06 
1128 374 0 9.45165e-06 
4748 1899 0 1.55088e-06 
4748 266 0 1.08977e-05 
374 4496 0 5.07075e-06 
1098 267 0 4.05159e-06 
1098 182 0 8.14454e-06 
3136 342 0 7.11939e-06 
3136 77 0 6.62344e-06 
3093 1835 0 5.7349e-06 
3093 2578 0 9.12159e-06 
1209 342 0 1.29154e-06 
2165 139 0 8.54351e-06 
2276 825 0 3.46719e-06 
825 2880 0 4.61946e-06 
825 2075 0 2.74923e-06 
1217 4484 0 3.48252e-06 
1217 2146 0 2.52623e-06 
1217 2107 0 6.15221e-06 
1156 617 0 4.15105e-06 
4484 2075 0 5.79646e-06 
4484 484 0 8.05956e-06 
617 1441 0 4.42585e-07 
617 2367 0 4.73247e-06 
3498 267 0 5.03115e-06 
2001 1428 0 1.23549e-05 
2001 3194 0 1.10291e-05 
1899 2428 0 2.05211e-06 
1899 4496 0 2.60355e-06 
267 145 0 2.17181e-06 
267 4375 0 2.59652e-06 
4496 342 0 1.34687e-06 
266 182 0 1.07612e-05 
266 574 0 7.9889e-06 
182 4375 0 3.49571e-06 
182 889 0 7.38245e-06 
342 4259 0 9.1387e-06 
342 2578 0 3.64504e-06 
4259 4091 0 1.95896e-06 
4690 889 0 4.24563e-06 
2578 1211 0 8.07394e-06 
139 1134 0 2.22456e-05 
126 2829 0 3.60756e-06 
126 2599 0 9.19696e-06 
1901 2880 0 1.59966e-05 
1901 3273 0 3.24011e-05 
1901 4699 0 8.81714e-06 
3439 577 0 1.02879e-05 
2829 4167 0 9.27878e-06 
2107 3391 0 2.21711e-06 
4095 1428 0 6.61064e-06 
4095 145 0 1.00165e-05 
4095 4167 0 1.96417e-05 
2075 1428 0 7.31049e-06 
2075 2428 0 1.98542e-06 
2075 2876 0 1.03017e-05 
1441 4162 0 5.49711e-06 
1428 2584 0 1.33294e-05 
484 707 0 9.34377e-06 
145 3194 0 8.11166e-06 
145 1976 0 6.83796e-06 
145 3461 0 8.99037e-06 
4214 2367 0 6.42386e-06 
2367 2253 0 1.02676e-05 
2367 4820 0 2.65859e-06 
3194 4375 0 3.73589e-08 
3194 574 0 1.21355e-05 
77 4653 0 9.90214e-07 
77 2543 0 1.02968e-05 
4375 2658 0 1.45221e-06 
4375 3461 0 3.17747e-06 
4091 1110 0 3.93618e-07 
574 889 0 2.19907e-06 
574 4653 0 7.91477e-06 
574 990 0 1.98989e-05 
574 3704 0 1.01399e-05 
1835 2994 0 6.30842e-06 
2658 889 0 1.69527e-06 
2658 1326 0 2.54583e-06 
1134 3273 0 2.80427e-05 
1134 4889 0 2.89845e-05 
1134 1938 0 2.44713e-05 
4699 419 0 7.23085e-06 
4699 2358 0 1.4267e-05 
3391 2298 0 1.92816e-05 
419 2584 0 7.86911e-06 
1258 4840 0 4.12634e-06 
4167 2358 0 2.30518e-05 
4167 1976 0 1.71447e-05 
4162 2541 0 4.46448e-06 
4162 1481 0 2.176e-06 
2876 2543 0 1.24255e-05 
2876 2541 0 1.38327e-05 
2543 535 0 3.58569e-06 
3461 4182 0 8.74566e-06 
3461 3704 0 6.07836e-06 
3461 172 0 5.61695e-06 
4653 4182 0 4.43138e-06 
1110 707 0 4.66687e-06 
1110 3335 0 3.93851e-06 
4820 2262 0 4.57777e-06 
2994 1534 0 2.55929e-06 
2994 2426 0 3.66265e-06 
2994 3163 0 2.60343e-06 
1211 3335 0 8.8209e-06 
1326 3163 0 1.3605e-06 
990 3163 0 6.09778e-06 
1534 3947 0 2.7881e-06 
4889 1391 0 1.00396e-05 
4232 2336 0 1.66426e-05 
3474 2298 0 1.65862e-05 
3474 2235 0 4.0343e-05 
2358 3857 0 2.45045e-05 
2541 3105 0 4.86088e-06 
2541 3110 0 7.66642e-06 
1976 434 0 8.29285e-06 
1976 2895 0 4.59755e-06 
2584 4182 0 5.92067e-06 
2584 4221 0 6.14551e-06 
707 149 0 9.32391e-06 
4182 709 0 1.13824e-05 
4221 2013 0 1.01847e-06 
3995 4673 0 1.08383e-05 
3704 172 0 1.78653e-06 
3704 3856 0 6.76397e-06 
3335 4198 0 1.48214e-06 
3335 1945 0 9.7505e-06 
172 2251 0 4.93926e-06 
3163 2426 0 3.44052e-08 
3163 3856 0 8.6938e-06 
3163 3589 0 6.99485e-06 
4198 2016 0 8.51715e-06 
4198 2957 0 3.51274e-06 
4198 1003 0 2.44067e-06 
3588 3656 0 2.24994e-06 
3857 391 0 3.18332e-05 
3857 4566 0 3.43785e-05 
2290 366 0 2.65329e-07 
4665 562 0 1.94984e-06 
3110 149 0 2.0064e-06 
3110 1479 0 1.7727e-06 
434 4566 0 2.44662e-05 
434 2841 0 1.3227e-05 
149 2102 0 1.80035e-06 
149 4741 0 1.1075e-05 
4840 122 0 2.48721e-06 
2013 2484 0 3.13536e-07 
2013 2549 0 3.60688e-06 
2102 4324 0 4.26888e-06 
709 2426 0 1.40953e-06 
709 3856 0 1.53746e-05 
709 1734 0 8.88976e-06 
535 4265 0 3.81163e-06 
4324 1945 0 5.65704e-06 
4324 4739 0 4.87207e-07 
2426 3486 0 6.01906e-06 
2340 3956 0 1.0793e-06 
1945 3956 0 5.92568e-06 
1945 3118 0 1.16406e-05 
3856 3259 0 8.18001e-06 
3856 3312 0 1.01377e-05 
3856 1749 0 9.34166e-06 
3956 3118 0 4.34949e-07 
3956 1997 0 9.52509e-07 
2251 3454 0 3.93277e-06 
3589 3486 0 6.49188e-06 
3947 4436 0 3.96237e-06 
2526 1479 0 1.07504e-06 
1731 366 0 6.42468e-06 
391 768 0 2.25602e-05 
366 3333 0 7.8966e-07 
304 3637 0 3.65852e-08 
4282 3087 0 5.30217e-06 
3333 122 0 2.87978e-06 
4566 370 0 2.69943e-05 
4264 4851 0 1.77653e-06 
2484 4244 0 1.46731e-07 
2903 3710 0 2.76476e-06 
4741 3921 0 7.10162e-06 
4741 4851 0 6.53143e-06 
4741 2467 0 6.70661e-06 
2841 1734 0 2.17908e-06 
2841 543 0 7.89751e-06 
2549 1327 0 4.00043e-06 
2549 2263 0 5.12642e-06 
4265 822 0 4.42961e-06 
3259 543 0 9.64394e-06 
3486 2263 0 5.30887e-06 
3118 1055 0 1.14067e-05 
3118 3434 0 9.76166e-06 
3118 1603 0 6.47153e-06 
4436 248 0 3.90427e-07 
1081 2749 0 3.82476e-05 
768 1108 0 1.20729e-05 
2032 2387 0 1.06973e-05 
4252 690 0 2.10524e-06 
2338 557 0 7.38373e-06 
2338 3571 0 1.49793e-05 
3637 3710 0 1.1481e-05 
2700 3602 0 1.44485e-06 
4244 3511 0 7.54756e-07 
690 2969 0 5.20836e-06 
370 3908 0 2.70484e-05 
4851 2193 0 8.05236e-06 
4851 2969 0 5.73498e-06 
1734 4005 0 8.65007e-06 
3921 114 0 9.40197e-06 
886 3434 0 3.46625e-06 
886 1275 0 4.90052e-06 
543 2683 0 3.96085e-06 
2263 2371 0 1.82499e-06 
2263 615 0 5.06601e-06 
1749 615 0 4.83539e-06 
1749 2683 0 1.17866e-06 
3454 1335 0 5.9546e-06 
2749 2248 0 2.83771e-05 
2064 557 0 4.96317e-06 
876 2257 0 6.49175e-06 
2215 812 0 2.81543e-06 
3571 4005 0 5.6948e-06 
3571 1693 0 7.46215e-06 
3571 1849 0 3.26898e-06 
3602 2193 0 6.37987e-06 
3602 4053 0 6.41366e-06 
2969 3541 0 9.38243e-06 
2969 4175 0 3.60244e-07 
4005 1849 0 4.44643e-06 
2467 138 0 1.15112e-05 
2467 3541 0 1.35994e-06 
3908 4556 0 1.87402e-05 
2371 4290 0 3.63243e-06 
615 4556 0 6.01041e-06 
615 4068 0 3.1911e-06 
615 4587 0 3.15957e-06 
1269 822 0 1.34989e-06 
1269 1047 0 3.48843e-06 
1033 822 0 3.96294e-06 
1033 4068 0 4.95788e-06 
114 822 0 5.25779e-06 
114 2573 0 4.20693e-06 
114 4247 0 3.40884e-06 
3434 1287 0 1.04039e-05 
2683 1335 0 6.00818e-06 
2683 3272 0 1.49174e-06 
822 934 0 4.22715e-06 
934 248 0 1.00591e-05 
934 4630 0 7.48352e-06 
4677 4633 0 1.15478e-06 
3488 3796 0 2.07218e-06 
2182 2387 0 9.81132e-07 
2257 4348 0 7.39963e-06 
4273 2755 0 4.59961e-06 
1013 2387 0 1.11245e-05 
1013 3396 0 1.06277e-05 
2333 1849 0 3.59786e-06 
2333 1114 0 6.632e-06 
2387 1693 0 1.10344e-05 
1693 3261 0 1.15577e-05 
4053 4348 0 7.61845e-06 
4053 3962 0 4.06824e-07 
3261 3541 0 9.68587e-06 
1849 3277 0 3.81305e-06 
3668 3014 0 6.60204e-07 
1275 4175 0 8.68222e-06 
4587 4290 0 1.20367e-06 
4587 1316 0 2.27484e-06 
4556 3272 0 7.50466e-06 
4290 4753 0 4.83959e-06 
138 2573 0 3.05261e-07 
138 4247 0 1.33199e-05 
138 649 0 1.0599e-05 
4247 453 0 5.20687e-06 
4247 4449 0 1.43077e-05 
4247 1850 0 3.86371e-06 
3272 4068 0 6.24559e-06 
4068 3605 0 3.59983e-06 
4068 508 0 4.39389e-06 
2891 2631 0 5.05488e-06 
1335 3657 0 9.68054e-06 
4630 508 0 4.76194e-06 
3089 2755 0 1.8977e-06 
3796 2177 0 4.19986e-06 
2667 3992 0 3.70663e-06 
4000 2517 0 5.76231e-06 
2177 3800 0 6.69591e-06 
4348 753 0 4.51043e-06 
4348 572 0 9.78761e-06 
4348 2083 0 4.38105e-06 
3396 2925 0 6.4904e-06 
177 1892 0 8.52845e-06 
177 1316 0 6.12543e-06 
177 3502 0 5.85003e-07 
231 1892 0 6.54108e-06 
231 127 0 4.77126e-06 
231 4660 0 4.76984e-06 
1316 4034 0 4.38716e-06 
1316 3014 0 2.21993e-06 
4175 3541 0 8.35695e-06 
4175 3413 0 4.83334e-06 
4175 1346 0 1.04048e-05 
3277 4034 0 4.83853e-06 
3277 2539 0 7.2738e-06 
3277 3653 0 2.00241e-06 
3541 127 0 6.33257e-06 
3541 3753 0 1.27023e-05 
1116 2573 0 5.66999e-06 
1116 127 0 4.41232e-06 
1116 3014 0 4.68928e-06 
1116 4753 0 2.67125e-06 
649 3753 0 7.79025e-06 
649 3969 0 1.75816e-05 
2539 3605 0 8.35124e-08 
2539 3572 0 5.14096e-06 
2573 293 0 7.71619e-06 
4336 2291 0 6.17372e-07 
3657 4022 0 9.55553e-06 
508 2074 0 6.76297e-07 
2631 364 0 3.5319e-06 
2631 781 0 7.38905e-07 
4633 453 0 1.16639e-06 
4633 1850 0 3.46975e-06 
4262 2295 0 9.51708e-06 
3800 1892 0 9.91112e-06 
3800 2090 0 3.39653e-06 
3800 2083 0 8.82192e-06 
2083 4838 0 9.46365e-06 
1114 4277 0 7.34434e-06 
3502 3968 0 1.8913e-06 
3502 4277 0 4.14396e-06 
3502 3280 0 3.24802e-06 
3121 590 0 3.37853e-06 
1346 232 0 1.20798e-05 
590 3969 0 7.29613e-06 
590 567 0 4.62498e-06 
3653 1709 0 3.05568e-06 
3014 1164 0 5.06319e-06 
127 4660 0 3.34006e-06 
3969 1014 0 1.45031e-05 
3969 2044 0 3.07585e-07 
3969 916 0 6.13996e-06 
2865 1714 0 1.96413e-07 
3753 1413 0 1.26255e-05 
3753 2044 0 1.31327e-06 
4753 1714 0 5.02644e-06 
4753 4673 0 2.34882e-06 
293 4511 0 8.8477e-06 
293 2847 0 1.74074e-06 
1714 1492 0 6.94944e-06 
1714 4673 0 8.63308e-06 
1714 3572 0 4.36288e-06 
1850 4511 0 5.15531e-06 
2074 4022 0 5.0776e-07 
2619 2090 0 9.96936e-06 
3761 3952 0 1.32065e-05 
2517 2481 0 6.10762e-06 
572 1819 0 8.10517e-06 
572 409 0 2.64193e-06 
2481 2429 0 9.03843e-06 
597 1819 0 2.08318e-06 
4277 2127 0 1.35911e-06 
4277 694 0 1.01032e-05 
4277 3601 0 1.96887e-06 
2429 2133 0 1.15023e-05 
2133 567 0 7.44378e-06 
2133 1790 0 8.08546e-06 
4838 1014 0 9.86259e-06 
4838 3722 0 9.42339e-06 
4838 4148 0 7.51867e-07 
2127 1709 0 1.52907e-06 
4660 1164 0 6.25056e-06 
4660 3910 0 6.54271e-06 
1014 826 0 8.73123e-06 
3968 1164 0 1.30507e-06 
1164 4381 0 5.39197e-06 
582 2151 0 2.19307e-06 
1413 2044 0 6.18737e-06 
1413 2268 0 1.32979e-05 
1413 3423 0 1.23528e-06 
1413 2151 0 5.8424e-06 
2044 4511 0 4.49119e-06 
2044 1387 0 6.36128e-06 
3572 158 0 5.45471e-06 
4673 2268 0 1.11702e-05 
4511 2976 0 6.55565e-06 
4511 1387 0 7.08929e-06 
4511 3937 0 1.98995e-06 
2847 2213 0 4.42408e-06 
4022 13 0 1.1457e-05 
2213 821 0 4.55884e-06 
4177 4138 0 3.46662e-06 
3722 3310 0 1.15232e-05 
3280 2017 0 4.08768e-06 
3910 3444 0 9.12892e-06 
1709 306 0 7.18915e-07 
1709 158 0 8.89971e-06 
916 1387 0 6.09825e-06 
2151 2268 0 4.54328e-06 
2151 1240 0 5.81612e-06 
2151 662 0 5.75784e-06 
4381 2268 0 3.91725e-06 
4381 562 0 4.31392e-06 
1387 1240 0 9.30065e-06 
1387 3937 0 1.59461e-06 
3937 2976 0 1.67191e-06 
3937 2168 0 4.43729e-06 
1497 1095 0 8.11753e-06 
1497 3449 0 4.17555e-06 
1067 3996 0 9.84351e-06 
3996 4037 0 9.79553e-06 
3996 2020 0 5.15017e-06 
4037 694 0 1.1936e-05 
4138 2017 0 3.48282e-06 
4138 3648 0 4.47006e-06 
1545 597 0 2.51732e-06 
3601 2017 0 1.55549e-06 
3601 1814 0 8.49246e-06 
3601 2314 0 9.06203e-06 
3601 1974 0 7.01627e-06 
2017 694 0 1.1804e-05 
2017 3444 0 7.19472e-06 
2017 3648 0 9.10767e-06 
3444 3648 0 1.12208e-05 
3444 3557 0 9.55525e-06 
1790 662 0 9.28195e-06 
1790 3557 0 6.45288e-06 
826 232 0 5.52457e-06 
826 2872 0 6.37287e-06 
826 895 0 1.69003e-06 
2314 1709 0 8.53864e-06 
1521 567 0 4.4079e-06 
1521 1014 0 7.90976e-06 
1521 662 0 7.66003e-06 
1521 895 0 6.3636e-06 
306 4526 0 2.68954e-06 
306 4363 0 2.87035e-06 
306 3256 0 1.55631e-06 
4727 1164 0 4.55627e-06 
4727 3910 0 3.65598e-06 
4727 1954 0 5.80292e-06 
662 1226 0 1.05657e-05 
158 4363 0 8.78675e-06 
158 3989 0 9.79291e-06 
158 1708 0 5.62769e-06 
4363 1088 0 1.90729e-07 
4363 3660 0 7.88768e-06 
3660 2268 0 1.24033e-05 
3660 1663 0 1.2759e-05 
1240 3632 0 2.74781e-06 
1240 2579 0 6.9457e-06 
1240 4672 0 1.05614e-05 
3632 3423 0 1.32759e-06 
3632 2168 0 3.98155e-06 
3632 4689 0 6.43301e-06 
3632 4672 0 4.48671e-06 
896 2563 0 8.79312e-06 
13 2126 0 1.09658e-05 
4689 4050 0 3.25448e-06 
3043 2169 0 1.71813e-05 
3043 2608 0 2.16888e-05 
3043 270 0 8.81009e-06 
3888 3098 0 4.6429e-06 
803 3531 0 3.34358e-07 
3531 2458 0 7.6227e-06 
3531 104 0 6.33278e-07 
1814 4170 0 8.03133e-06 
3648 1974 0 7.42961e-07 
3648 3098 0 8.09147e-06 
3648 3860 0 5.5091e-06 
3648 112 0 1.00762e-05 
2629 1819 0 1.0585e-05 
2629 3585 0 1.02595e-05 
3310 3237 0 8.82132e-06 
3310 804 0 9.33326e-06 
1974 3860 0 9.04978e-06 
1974 2798 0 4.71589e-06 
2872 895 0 6.30382e-07 
2872 3585 0 4.63644e-06 
2872 2974 0 3.76952e-06 
4526 3280 0 4.74457e-06 
4526 2205 0 1.54616e-06 
4526 2328 0 2.78749e-06 
3557 4738 0 9.79793e-06 
895 3203 0 1.58137e-06 
895 1427 0 5.28164e-06 
895 739 0 8.26225e-06 
1708 1776 0 4.27795e-06 
1708 396 0 2.83076e-06 
4672 2151 0 3.5746e-06 
4672 1954 0 6.72908e-06 
2579 3177 0 8.76875e-06 
2563 562 0 1.92346e-06 
2563 1663 0 3.69756e-06 
2563 3641 0 5.16031e-06 
2168 3567 0 7.99513e-06 
3989 2126 0 7.25602e-06 
3989 396 0 5.99651e-06 
2126 4417 0 1.28699e-05 
1375 893 0 2.27297e-06 
1375 2890 0 2.29877e-06 
2169 1285 0 7.95538e-06 
1981 1407 0 1.98379e-05 
2020 4170 0 4.05676e-06 
1465 1629 0 6.61485e-06 
4170 539 0 5.48889e-06 
3098 1785 0 8.384e-06 
3703 3357 0 3.50541e-06 
3703 804 0 4.06284e-06 
112 1812 0 8.2406e-06 
112 2687 0 4.97564e-06 
3585 2687 0 3.12301e-06 
3585 2812 0 9.15137e-06 
2328 1695 0 7.7323e-07 
2328 1560 0 6.73771e-07 
1427 2812 0 4.84254e-06 
1427 69 0 1.08145e-06 
260 4738 0 6.86997e-06 
260 1776 0 7.11601e-06 
260 459 0 2.79678e-06 
1954 3326 0 7.68971e-06 
1954 3283 0 2.79283e-06 
1226 3250 0 1.12437e-05 
1663 3036 0 1.02679e-06 
1663 3283 0 7.7331e-06 
1663 4462 0 9.77269e-06 
4736 3250 0 1.01161e-06 
3641 3613 0 8.36849e-06 
3641 4084 0 7.65129e-06 
3567 3129 0 1.5139e-06 
3567 2050 0 8.90646e-06 
396 4417 0 6.55584e-06 
2009 2890 0 3.31896e-06 
3613 264 0 3.08748e-06 
4179 4054 0 4.06321e-07 
1285 3303 0 1.24358e-05 
3700 907 0 4.8533e-06 
553 200 0 3.97789e-06 
270 4619 0 1.59152e-06 
270 1505 0 5.02503e-06 
200 4619 0 2.4622e-06 
200 3544 0 4.03079e-06 
4619 3357 0 2.69073e-06 
4619 1810 0 4.19541e-06 
3357 2687 0 3.71787e-06 
3357 3616 0 9.67061e-07 
2926 71 0 5.7814e-06 
539 1625 0 6.31571e-06 
539 752 0 7.70035e-06 
804 4530 0 7.0896e-06 
804 843 0 1.21011e-05 
1625 2798 0 6.38458e-06 
3860 4276 0 6.03227e-06 
3860 1489 0 8.22072e-06 
2687 992 0 8.68906e-06 
4276 1706 0 5.36862e-06 
2798 4531 0 7.05572e-06 
4786 2812 0 8.5652e-06 
4786 521 0 9.10794e-06 
4531 1776 0 8.23232e-06 
4531 2947 0 5.14496e-06 
69 3250 0 4.0761e-06 
739 3691 0 5.05914e-06 
4738 3283 0 8.92269e-06 
4738 521 0 8.60832e-06 
3326 2948 0 8.2129e-06 
1776 4101 0 6.40727e-06 
3283 4084 0 1.0597e-05 
3283 3025 0 2.14264e-06 
3250 1929 0 3.30585e-07 
3250 4693 0 6.59453e-06 
3250 320 0 1.17628e-05 
3177 1683 0 6.83498e-07 
3177 320 0 1.01546e-05 
4462 2625 0 4.49123e-06 
4462 1482 0 6.78515e-06 
2813 4693 0 2.9116e-06 
2813 4087 0 3.4524e-07 
4417 2049 0 1.6062e-05 
4054 2601 0 2.03876e-07 
654 3229 0 2.72465e-06 
309 9 0 2.34663e-06 
1505 1810 0 8.47341e-07 
3544 3917 0 5.2687e-06 
3544 9 0 5.19148e-06 
9 3616 0 5.4832e-06 
1810 4530 0 7.25099e-07 
1810 3616 0 1.4343e-06 
1785 1713 0 9.30539e-06 
1812 3616 0 7.01254e-06 
1812 1753 0 6.22381e-06 
2331 1713 0 4.73741e-06 
843 2802 0 6.29887e-06 
843 2963 0 1.11988e-05 
1489 1233 0 8.48777e-06 
2812 3691 0 6.06876e-06 
2812 4133 0 7.33395e-06 
2812 221 0 2.49883e-06 
3691 2963 0 6.14363e-06 
3691 2222 0 5.97389e-06 
521 1680 0 7.46089e-06 
521 2240 0 4.56067e-06 
459 4400 0 1.65602e-06 
459 4509 0 4.0716e-06 
1683 1511 0 1.71376e-06 
1683 1929 0 1.76918e-06 
3025 4400 0 1.67603e-06 
4101 4084 0 6.87895e-06 
4084 4509 0 1.01073e-05 
4084 4659 0 5.62782e-07 
4693 2625 0 4.70538e-07 
4693 2489 0 7.37878e-06 
4693 2815 0 2.60338e-06 
320 1371 0 1.06999e-05 
320 2585 0 1.3801e-05 
2050 2585 0 1.17358e-05 
264 1482 0 3.07134e-06 
264 388 0 2.3877e-06 
3216 338 0 2.83863e-06 
3229 2958 0 1.64683e-06 
3229 3732 0 5.05015e-07 
2958 958 0 2.31271e-06 
2958 2103 0 1.01075e-06 
75 752 0 5.91373e-06 
2103 3917 0 9.75159e-07 
3917 752 0 1.4082e-06 
3917 1242 0 6.33276e-06 
71 3387 0 4.22932e-06 
752 997 0 7.6725e-06 
1890 328 0 2.00029e-06 
1890 1242 0 2.38818e-06 
1713 1379 0 5.55012e-06 
1713 3074 0 6.47199e-06 
1713 3784 0 4.54483e-06 
3616 328 0 1.67159e-06 
3616 3422 0 2.88935e-06 
2802 878 0 3.58668e-06 
2802 1640 0 3.32015e-06 
1753 992 0 5.63896e-06 
1753 1379 0 3.31217e-06 
1753 162 0 9.22427e-06 
1706 3625 0 2.93663e-06 
992 4133 0 5.5132e-06 
992 221 0 5.05746e-06 
992 141 0 6.33473e-06 
4133 221 0 2.64283e-06 
4133 3422 0 1.23654e-06 
4133 3364 0 1.01643e-05 
221 2222 0 6.60673e-06 
221 2240 0 7.10191e-06 
2222 1929 0 1.33985e-06 
2222 1631 0 5.99778e-06 
1680 3226 0 7.92013e-06 
2240 4400 0 7.48617e-06 
2947 933 0 2.95079e-06 
4400 4509 0 3.05134e-06 
4400 3597 0 6.68329e-06 
2948 3500 0 7.52254e-06 
2948 2489 0 3.22581e-06 
1929 3500 0 2.34931e-06 
4509 3597 0 1.67164e-06 
4509 1022 0 1.1224e-05 
1371 3006 0 1.31919e-05 
4659 1482 0 3.34407e-06 
4659 336 0 3.69629e-06 
2625 2593 0 1.5459e-06 
2625 3659 0 8.05981e-06 
2815 3172 0 3.20118e-06 
2815 1362 0 4.01527e-06 
2585 2857 0 1.88896e-05 
1482 3659 0 8.19702e-06 
3172 2767 0 3.84363e-06 
2049 2117 0 1.59812e-05 
3768 2462 0 8.63494e-07 
3914 1686 0 3.79261e-06 
3914 3281 0 3.27472e-06 
3914 3456 0 3.30825e-06 
3732 3281 0 1.59631e-06 
3732 1118 0 3.99036e-06 
4585 3387 0 3.41503e-06 
4585 1281 0 7.72022e-06 
4585 1751 0 3.95719e-06 
1989 1281 0 5.3306e-06 
1989 3004 0 8.833e-07 
725 3159 0 1.69146e-06 
3387 3870 0 5.7218e-06 
1751 878 0 3.34564e-08 
1751 328 0 3.14493e-06 
1751 2941 0 9.56248e-06 
1242 1379 0 2.14882e-06 
1242 1210 0 4.46561e-06 
328 4704 0 6.24016e-06 
328 162 0 9.96652e-06 
3074 471 0 6.85113e-06 
3422 162 0 2.60282e-07 
3364 1640 0 9.52785e-06 
3364 4694 0 7.90387e-06 
1233 3412 0 6.60493e-06 
1233 4291 0 9.09755e-06 
141 3412 0 6.13373e-06 
141 809 0 3.20666e-06 
3226 744 0 2.7613e-06 
3226 471 0 8.98616e-06 
933 744 0 6.03318e-06 
933 3597 0 6.67239e-06 
3500 2953 0 4.79687e-06 
3500 809 0 4.5952e-06 
1022 2634 0 5.13736e-06 
1022 2130 0 1.13404e-05 
1022 1390 0 1.16948e-05 
2593 2634 0 3.21931e-06 
2593 2809 0 4.0209e-06 
2489 1362 0 5.06429e-06 
2489 2809 0 6.7e-06 
336 2117 0 1.06748e-05 
336 2234 0 2.5125e-06 
2634 388 0 2.60878e-06 
2634 2014 0 2.63412e-06 
2634 2399 0 5.00879e-06 
1362 3659 0 8.16338e-06 
1362 234 0 2.28891e-06 
1362 240 0 6.83935e-06 
3659 1842 0 1.04451e-05 
2117 1742 0 1.61876e-05 
388 2399 0 5.52447e-06 
3999 2719 0 3.65929e-06 
2719 630 0 5.88757e-06 
3626 3918 0 1.17887e-05 
762 4347 0 8.68879e-07 
762 842 0 1.50973e-06 
486 1281 0 1.93454e-05 
3077 42 0 4.48413e-06 
42 2118 0 4.21981e-06 
3281 1977 0 4.90235e-06 
1281 3758 0 7.20361e-06 
3159 1977 0 3.70402e-06 
1118 997 0 5.67835e-06 
1118 2524 0 5.76902e-06 
3004 3870 0 8.59225e-06 
3004 4386 0 7.5482e-06 
3004 3930 0 3.19006e-06 
3870 1640 0 8.75925e-06 
3870 3279 0 5.80868e-06 
3870 1867 0 4.65642e-06 
997 1076 0 6.53307e-06 
4704 4125 0 7.21256e-06 
4704 806 0 5.86444e-06 
2060 162 0 8.12969e-06 
2060 1867 0 7.46772e-06 
3784 1379 0 9.55711e-07 
3784 1076 0 2.38122e-06 
1379 3412 0 9.74368e-07 
1379 162 0 2.43257e-06 
162 3412 0 1.02557e-05 
162 3148 0 3.89072e-06 
162 2066 0 1.17416e-05 
3279 1640 0 7.06333e-06 
3279 2990 0 7.45465e-06 
3412 4686 0 1.02589e-05 
471 1698 0 8.26481e-06 
471 193 0 6.22037e-06 
4361 2990 0 2.63141e-06 
1631 2953 0 2.28933e-07 
1631 4694 0 4.10709e-06 
1631 1491 0 9.98222e-07 
809 4686 0 4.47833e-06 
809 3868 0 4.65914e-06 
744 193 0 2.95553e-06 
192 3599 0 5.44937e-06 
2953 3320 0 5.47988e-06 
3597 2809 0 7.93313e-06 
3597 1390 0 8.46508e-06 
3006 591 0 8.65614e-06 
3006 3199 0 6.59198e-06 
2809 2014 0 2.00129e-06 
2809 4168 0 7.87145e-06 
2809 240 0 5.66811e-06 
234 3199 0 2.79744e-06 
2857 630 0 6.4991e-07 
2857 1204 0 1.48506e-05 
2857 4416 0 1.38687e-05 
2399 625 0 5.87982e-06 
1842 2853 0 8.43816e-06 
842 133 0 1.11945e-06 
3867 2690 0 1.32097e-06 
2690 3456 0 3.96228e-06 
2690 3042 0 5.32552e-06 
3042 1423 0 7.51194e-06 
3456 32 0 4.67866e-06 
3758 3930 0 4.14106e-06 
3758 3521 0 3.13546e-06 
1977 1051 0 5.95352e-07 
32 4386 0 3.89219e-06 