ITEM: TIMESTEP
9000000
ITEM: NUMBER OF ENTRIES
16258
ITEM: BOX BOUNDS ff ff ff
-0.01 0.45
-0.15 0.15
-0.08 0.1
ITEM: ENTRIES c_ppc[1] c_ppc[2] c_ppc[3] c_ppc[4] 
16350 15564 0 1.05408e-07 
30259 26895 0 7.92182e-08 
26895 22195 0 1.27161e-07 
26895 24318 0 4.9695e-08 
30373 15733 0 4.56742e-07 
22195 830 0 1.39033e-07 
29855 6034 0 8.36489e-08 
24318 27025 0 2.22991e-07 
24318 11652 0 7.94113e-08 
27025 24211 0 1.64875e-07 
27025 25247 0 3.09217e-08 
830 24211 0 3.87669e-08 
15733 22804 0 4.49806e-07 
11652 22865 0 8.65036e-08 
11652 25247 0 2.61734e-07 
24211 23861 0 1.25858e-07 
22804 6369 0 2.58431e-07 
31146 21928 0 1.02821e-07 
25247 12295 0 3.37929e-07 
23961 27310 0 5.21829e-08 
6369 22052 0 2.3243e-07 
22052 29124 0 1.70608e-07 
21928 33249 0 8.04963e-08 
12129 16051 0 1.1109e-07 
29124 31563 0 1.85147e-07 
14872 3380 0 2.12957e-08 
14872 16051 0 1.67228e-08 
14847 2175 0 1.09335e-07 
3885 14729 0 4.35997e-08 
31563 22818 0 9.58456e-08 
31177 34061 0 4.22656e-07 
1676 26732 0 1.00465e-07 
4440 28887 0 1.27927e-07 
3380 6415 0 2.8312e-08 
3380 19273 0 7.10645e-08 
16051 2175 0 1.15101e-07 
2175 19448 0 2.10354e-07 
20860 19032 0 8.47555e-08 
14729 22795 0 1.1218e-07 
20038 159 0 1.13117e-07 
22818 22506 0 4.21006e-08 
25874 18926 0 6.55347e-08 
4045 11050 0 8.13963e-08 
28887 33018 0 1.10909e-07 
19032 17094 0 1.06345e-07 
15644 13659 0 7.30794e-08 
15644 20849 0 9.56184e-08 
11050 13659 0 1.24486e-07 
26732 29456 0 9.27268e-08 
33018 27100 0 5.5254e-08 
33018 16619 0 1.50877e-07 
19273 12456 0 1.37922e-07 
19273 11091 0 1.32544e-07 
12456 19448 0 1.2187e-07 
12456 6873 0 1.3859e-09 
19448 17094 0 1.0225e-07 
19448 18997 0 1.95283e-07 
17094 3508 0 8.40925e-08 
8960 3508 0 3.843e-08 
23153 21706 0 1.47239e-07 
25499 6528 0 4.26717e-08 
13659 18912 0 1.53911e-07 
29456 9908 0 1.86573e-08 
11091 6873 0 1.00549e-09 
11091 715 0 1.8032e-07 
18997 1696 0 5.30713e-08 
18997 540 0 1.80221e-07 
3508 1696 0 7.09134e-08 
3508 9477 0 6.58709e-08 
20852 10520 0 1.07754e-08 
20849 5985 0 1.88845e-07 
9908 25334 0 2.81877e-08 
16619 11948 0 1.90779e-07 
6873 1086 0 1.4913e-08 
1696 3608 0 7.4189e-08 
26242 22221 0 1.73772e-08 
26242 22090 0 6.18532e-08 
6528 22221 0 8.62964e-08 
5985 21945 0 2.35244e-07 
18912 25334 0 9.10338e-08 
18912 21917 0 1.80299e-07 
25334 19641 0 8.21273e-08 
25334 189 0 9.33441e-08 
11948 20469 0 2.35171e-07 
715 1086 0 5.83713e-08 
715 5603 0 1.90166e-07 
1086 4359 0 1.12696e-08 
1086 665 0 7.29518e-08 
540 4359 0 1.51797e-07 
15205 3753 0 2.09686e-07 
22221 21945 0 4.3145e-08 
22221 10692 0 8.16365e-08 
21917 12396 0 1.78683e-07 
19641 12967 0 2.21978e-09 
5603 1820 0 1.87062e-07 
4359 2136 0 7.98875e-08 
3753 3305 0 1.19263e-07 
22090 10692 0 3.93281e-08 
21945 21162 0 2.36509e-07 
12396 17101 0 9.73777e-08 
189 12529 0 1.31908e-07 
20469 7602 0 2.72975e-07 
1820 2203 0 4.51562e-08 
1820 703 0 1.56309e-07 
665 2203 0 1.06118e-07 
2136 3611 0 7.36689e-08 
3305 3291 0 9.0058e-08 
20495 11194 0 9.43777e-08 
10692 24923 0 8.23015e-08 
21162 1196 0 2.47409e-07 
12529 14015 0 1.45534e-07 
7602 12679 0 2.97853e-07 
2203 2717 0 1.64154e-07 
24923 14351 0 4.88949e-08 
24923 1196 0 1.9714e-07 
17101 18179 0 8.21294e-08 
14015 7239 0 1.39231e-07 
4672 8492 0 4.30856e-08 
12679 8492 0 1.00847e-07 
12679 9700 0 2.89199e-07 
703 3886 0 1.60523e-07 
3291 4080 0 8.30278e-08 
3291 4721 0 4.53155e-08 
6640 8941 0 2.42879e-08 
14351 5743 0 8.25044e-09 
1196 3425 0 2.56117e-07 
18179 9388 0 8.36538e-08 
3886 4109 0 1.79576e-07 
2717 2948 0 1.75261e-07 
6925 2468 0 1.23862e-07 
4080 2233 0 1.61865e-07 
4721 1339 0 5.48558e-11 
2139 10369 0 5.02158e-08 
8941 5743 0 2.05392e-08 
8941 8936 0 6.69269e-09 
3425 10608 0 2.5574e-07 
7239 1551 0 1.02274e-07 
7239 2411 0 2.31384e-08 
9700 2411 0 5.36899e-08 
9700 8342 0 3.13289e-07 
2948 4998 0 1.56697e-07 
2233 2021 0 1.36801e-07 
5743 2363 0 2.04498e-08 
10608 210 0 2.19031e-07 
10608 906 0 1.43428e-07 
9388 210 0 1.95297e-07 
1551 12458 0 6.86426e-08 
2411 6975 0 2.59751e-08 
8342 1879 0 3.40284e-07 
4109 5663 0 1.92218e-07 
4998 1139 0 1.58847e-07 
2468 3788 0 1.60292e-07 
2021 3441 0 1.46789e-07 
2363 9335 0 1.8491e-07 
210 12458 0 9.91329e-08 
210 7690 0 4.44901e-07 
6975 1974 0 5.57183e-08 
5663 6176 0 2.62345e-07 
3788 8359 0 2.15723e-07 
2449 11526 0 1.39522e-07 
9204 3828 0 4.09398e-07 
11418 22 0 2.23761e-08 
906 905 0 1.69044e-07 
12458 16658 0 8.53722e-08 
1974 456 0 7.23361e-08 
1879 7759 0 3.65786e-07 
1139 977 0 1.97646e-07 
3441 4108 0 1.1562e-07 
3828 233 0 1.16345e-07 
9335 15459 0 2.06067e-07 
905 14661 0 1.81911e-07 
905 15459 0 1.43669e-07 
7690 14661 0 4.85622e-07 
7759 456 0 3.0003e-07 
7759 5311 0 2.26304e-07 
6176 6699 0 5.32453e-07 
8359 616 0 2.62346e-07 
11526 589 0 2.11869e-07 
456 6265 0 3.33764e-07 
456 430 0 2.21598e-07 
977 3436 0 3.49605e-07 
4108 12507 0 6.03342e-08 
15459 14079 0 4.22203e-08 
15459 16372 0 2.59559e-07 
14661 16372 0 5.0564e-07 
14661 6265 0 6.01494e-07 
6699 14493 0 7.93621e-07 
616 3436 0 3.01254e-07 
616 13184 0 6.70477e-08 
589 15591 0 1.59507e-07 
589 13508 0 2.9407e-08 
14079 19919 0 1.0724e-07 
16372 16598 0 4.39168e-07 
6265 15564 0 4.8741e-07 
15564 430 0 1.04825e-07 
15564 8358 0 4.87874e-07 
14493 8382 0 7.47576e-07 
3436 8093 0 5.90537e-07 
13184 8093 0 2.77462e-07 
15591 13256 0 1.3165e-07 
925 16598 0 2.65907e-07 
925 21182 0 2.05835e-07 
16598 15523 0 2.83405e-07 
8358 6543 0 4.8142e-07 
21182 12946 0 1.91272e-07 
15523 1903 0 2.15159e-07 
8382 8093 0 3.2936e-07 
8382 15387 0 8.53461e-08 
8382 15467 0 5.92293e-07 
15387 8093 0 3.79373e-07 
15387 17557 0 1.11889e-07 
15387 19837 0 1.74309e-07 
11891 13256 0 3.24062e-08 
1903 28236 0 1.32434e-07 
15467 15647 0 7.72973e-08 
28236 15414 0 1.06227e-07 
23088 584 0 2.65781e-07 
23088 18259 0 2.45958e-07 
18259 15414 0 1.79966e-07 
5009 584 0 6.12186e-08 
23191 7863 0 9.576e-07 
26357 13616 0 8.68763e-07 
2039 2616 0 3.03276e-05 
2616 10235 0 9.20073e-05 
566 7283 0 9.48035e-05 
7283 2302 0 6.52172e-05 
2302 13379 0 8.43152e-05 
562 27 0 1.84045e-05 
13379 24961 0 4.40298e-05 
24961 8124 0 7.13702e-05 
23214 2474 0 0.000142308 
2344 6167 0 2.98875e-05 
4265 21544 0 3.51494e-05 
482 4208 0 1.55575e-05 
3266 4208 0 7.54483e-05 
4208 998 0 6.27388e-05 
4935 13976 0 1.52633e-05 
18527 13976 0 9.42743e-05 
998 3188 0 2.00759e-05 
4260 34672 0 7.24468e-07 
27903 21858 0 2.62962e-06 
29763 30583 0 2.07279e-06 
2431 11907 0 2.09356e-06 
2431 21858 0 1.29269e-06 
11907 12348 0 6.12827e-07 
16765 884 0 9.92812e-06 
21905 5600 0 3.57489e-07 
22855 5489 0 2.98066e-07 
22855 13605 0 3.02797e-08 
19334 20846 0 9.60331e-07 
25643 31039 0 1.03898e-06 
3854 3732 0 1.73272e-06 
5489 17779 0 4.79322e-06 
3732 7693 0 1.88665e-06 
28295 8402 0 1.09982e-06 
6693 8402 0 1.69838e-06 
6693 31637 0 1.99158e-06 
25611 17779 0 2.96378e-06 
25611 785 0 4.21397e-07 
30531 5849 0 6.07964e-09 
4446 14734 0 2.49651e-06 
4446 10944 0 6.03206e-06 
8715 8762 0 1.19493e-06 
7693 23436 0 1.71892e-06 
7693 19213 0 1.09733e-06 
14734 21053 0 1.29039e-07 
22005 16530 0 2.2804e-06 
23436 14430 0 6.14758e-07 
22237 15304 0 9.83166e-07 
22237 6623 0 2.69073e-06 
14430 13646 0 1.33062e-06 
14430 8762 0 6.13034e-07 
35359 33317 0 8.94539e-08 
359 28237 0 7.25613e-08 
359 20874 0 7.44856e-08 
24773 18887 0 1.29383e-06 
24773 29173 0 9.12779e-07 
24773 29407 0 1.18119e-06 
4791 18506 0 9.6936e-07 
4791 9036 0 1.64385e-07 
31445 29424 0 1.29447e-07 
3845 20971 0 2.68739e-07 
3845 21053 0 6.17532e-07 
3845 7980 0 3.50261e-07 
2737 24669 0 3.88267e-07 
2737 9389 0 4.48348e-07 
15304 1870 0 1.64804e-06 
13646 22151 0 9.92204e-07 
13646 18917 0 1.03313e-06 
10119 28999 0 2.40227e-07 
33053 22193 0 9.03002e-07 
16384 23537 0 4.91242e-07 
18887 22495 0 1.17139e-06 
18887 16503 0 4.30217e-07 
20971 7278 0 5.80801e-07 
22151 1870 0 6.96906e-07 
22151 20766 0 8.58118e-07 
22193 34132 0 2.95216e-07 
22193 24908 0 8.3461e-07 
21838 33209 0 1.21272e-06 
22495 14832 0 8.75112e-07 
22495 21484 0 2.6454e-07 
22495 25409 0 3.63938e-07 
15511 14832 0 2.49187e-07 
16062 7278 0 6.83737e-07 
16062 11480 0 4.76782e-07 
24669 6651 0 1.93654e-07 
12953 29709 0 8.15723e-07 
28415 16985 0 1.21346e-06 
28415 7870 0 8.25725e-07 
7088 4401 0 1.53173e-07 
32800 27294 0 1.99557e-08 
16272 16224 0 2.50497e-07 
16272 7631 0 1.33759e-06 
14832 10125 0 4.06969e-07 
14832 17245 0 7.39567e-07 
8115 6651 0 5.41619e-07 
15681 11565 0 1.91177e-07 
15681 20148 0 3.65171e-07 
24908 8297 0 3.26429e-07 
24908 24716 0 4.36572e-07 
27351 12144 0 2.26642e-06 
27351 4605 0 2.15069e-06 
21484 16224 0 6.70321e-07 
21484 10125 0 7.46551e-07 
21484 25409 0 8.89818e-08 
21484 25388 0 3.6178e-07 
5480 9462 0 5.42952e-07 
5480 11480 0 4.57143e-07 
30187 11191 0 5.13938e-07 
30187 187 0 9.53808e-07 
8297 11276 0 3.44487e-07 
4401 12594 0 2.2141e-09 
12144 10164 0 2.40402e-06 
16224 9452 0 3.7224e-07 
3034 10125 0 4.29687e-07 
3034 9452 0 6.99399e-07 
3034 1958 0 9.24645e-08 
3034 3473 0 3.07317e-07 
3034 25388 0 6.03013e-07 
10125 9462 0 9.6235e-07 
10125 24931 0 2.21024e-07 
9462 1958 0 2.85634e-07 
9462 7125 0 9.4637e-07 
17123 4946 0 1.92102e-07 
17123 21809 0 4.19389e-07 
11191 11133 0 1.76907e-07 
11191 20269 0 6.23669e-07 
29358 15311 0 2.64241e-07 
6045 17792 0 5.86767e-07 
4346 30241 0 5.19148e-07 
10164 25293 0 6.80781e-08 
10164 15947 0 1.91834e-06 
9452 3473 0 1.45166e-06 
1958 6495 0 4.73093e-07 
7125 16921 0 5.4073e-07 
7125 20269 0 1.17291e-06 
7125 21488 0 3.16063e-08 
31434 12786 0 7.52657e-07 
31434 16539 0 3.3751e-07 
31434 11625 0 9.77241e-07 
12786 25293 0 3.83509e-07 
12786 6232 0 9.33334e-08 
23516 19538 0 1.64603e-07 
12056 23095 0 9.50862e-07 
12056 5564 0 3.62613e-07 
3473 6495 0 1.61233e-06 
3473 4400 0 1.07511e-06 
6495 22389 0 1.64456e-06 
2935 27932 0 2.94169e-07 
20269 7392 0 1.47242e-06 
20269 10023 0 1.65528e-07 
7392 18100 0 4.86437e-08 
7392 87 0 1.35279e-06 
7392 15479 0 9.82776e-07 
18100 1956 0 2.92854e-07 
21008 18034 0 7.29406e-07 
21008 12138 0 9.54597e-07 
21008 3977 0 2.23424e-08 
18034 510 0 9.46793e-07 
23095 4427 0 8.68007e-07 
23095 4400 0 2.43692e-07 
22389 20388 0 1.27451e-06 
22389 13131 0 8.42714e-07 
87 10178 0 2.68702e-07 
87 4805 0 2.04408e-07 
87 15040 0 1.27039e-06 
10178 15040 0 1.48757e-07 
10178 22932 0 1.3784e-07 
30368 24852 0 4.78022e-07 
31444 691 0 6.72877e-07 
12138 12137 0 1.32199e-06 
31571 31248 0 6.11905e-07 
31571 3821 0 5.94015e-07 
12099 19225 0 4.23175e-07 
12099 12077 0 1.5295e-07 
4427 8498 0 3.13948e-07 
4427 23613 0 1.86154e-06 
4427 22702 0 1.01792e-06 
4427 3682 0 5.19979e-07 
20388 8951 0 1.22162e-06 
4805 8951 0 4.92587e-07 
4805 25273 0 3.56275e-07 
15040 22188 0 7.68126e-07 
15040 22932 0 6.22182e-07 
15040 25930 0 2.12857e-06 
1276 31248 0 6.58477e-07 
1276 22188 0 7.14782e-07 
31248 12137 0 4.41294e-07 
3821 17054 0 5.66226e-07 
3821 32029 0 1.03494e-06 
17054 4598 0 9.91764e-08 
17054 19225 0 6.0584e-07 
17054 29698 0 3.6657e-07 
22857 8498 0 3.75326e-07 
22857 23016 0 9.40497e-07 
8498 23226 0 5.98411e-07 
7545 23613 0 6.14754e-07 
7545 23016 0 8.86114e-07 
7545 3682 0 5.14893e-07 
7545 23222 0 7.3266e-08 
23613 22502 0 2.40632e-06 
23613 8611 0 1.92836e-06 
22502 8951 0 1.68912e-07 
22502 10855 0 2.3478e-06 
22502 21184 0 6.79221e-07 
8951 15029 0 1.12618e-06 
8951 25770 0 4.10116e-07 
15029 28267 0 1.12341e-06 
22188 15783 0 3.97767e-07 
22188 3910 0 3.19309e-07 
5313 6604 0 7.71621e-07 
24506 14834 0 1.399e-06 
4598 15056 0 3.32473e-07 
4598 3936 0 3.59275e-07 
19225 10049 0 3.86406e-07 
19225 14896 0 5.56829e-08 
23016 8267 0 7.53987e-07 
11881 13255 0 8.90718e-07 
11881 8611 0 1.12694e-06 
11881 22152 0 3.71562e-07 
10855 10248 0 2.53867e-06 
10855 21142 0 3.78019e-07 
28267 15783 0 7.87725e-07 
28267 10248 0 1.57288e-06 
28267 8048 0 1.8183e-06 
28267 13699 0 4.00176e-07 
15783 25930 0 7.28853e-07 
10935 18989 0 1.12248e-08 
10935 14349 0 8.61e-07 
15056 29681 0 6.12955e-07 
15056 7489 0 3.84639e-07 
31918 14896 0 8.42332e-07 
31918 7489 0 6.38078e-07 
31918 3936 0 5.55442e-07 
5493 3990 0 9.2456e-07 
13255 3990 0 1.45817e-06 
13255 11897 0 2.00377e-06 
10248 5183 0 1.6436e-06 
10248 13829 0 2.24166e-06 
8048 18989 0 2.00999e-06 
8048 23098 0 5.14681e-07 
18989 21886 0 2.15845e-06 
18989 3910 0 1.00378e-06 
18989 13983 0 1.25467e-06 
18989 27542 0 3.26136e-07 
19231 6604 0 1.45411e-06 
29681 19599 0 7.69206e-07 
7489 7260 0 2.9668e-07 
7489 12801 0 1.0351e-06 
7489 11889 0 8.10702e-07 
7260 16746 0 6.7137e-07 
7260 11889 0 8.37242e-07 
11389 3990 0 3.00213e-07 
11389 4429 0 1.77632e-06 
3990 17446 0 5.90342e-07 
3990 16100 0 1.30835e-06 
17446 4435 0 1.01263e-06 
17446 4429 0 1.44554e-06 
17446 23353 0 6.19232e-07 
17446 2473 0 1.51689e-06 
4435 22152 0 7.92442e-07 
4435 21142 0 5.93403e-07 
5183 22122 0 1.54992e-06 
5183 21142 0 4.94432e-07 
5183 9402 0 2.51753e-06 
22122 21527 0 1.5465e-06 
23098 18243 0 2.51701e-06 
23098 13829 0 2.73263e-06 
21886 19599 0 1.90197e-06 
21886 27972 0 6.28239e-07 
19599 3148 0 1.11483e-06 
19599 14112 0 1.8172e-06 
19599 8010 0 2.28755e-07 
12801 16746 0 2.05162e-07 
12801 14112 0 1.024e-06 
12801 15646 0 6.12276e-08 
16746 12168 0 8.63377e-07 
16746 9168 0 5.39912e-07 
4429 10919 0 1.09573e-06 
4429 11735 0 1.00723e-06 
23353 10919 0 2.632e-06 
23353 9402 0 3.19327e-06 
23353 20699 0 1.24442e-06 
3810 3148 0 6.15526e-08 
3810 3199 0 9.14642e-08 
3148 6711 0 1.04883e-06 
14112 12168 0 1.42919e-06 
12168 5010 0 1.80888e-06 
12168 22708 0 4.19799e-07 
12168 8135 0 1.39128e-06 
9168 5707 0 5.72829e-07 
9168 30642 0 1.98002e-08 
8051 10919 0 2.57322e-06 
8051 5901 0 9.96285e-07 
8051 13965 0 1.0976e-06 
8051 20111 0 2.48607e-06 
8051 20606 0 7.88559e-07 
10919 16834 0 9.34739e-07 
6378 5901 0 8.27774e-07 
6378 20699 0 1.13001e-06 
6378 22277 0 3.78805e-07 
2309 13711 0 1.69616e-07 
16704 18243 0 7.48106e-07 
16704 11944 0 6.29537e-07 
16704 21527 0 8.28609e-07 
16704 18766 0 5.95517e-07 
18243 6711 0 2.04022e-06 
18243 16567 0 1.39834e-06 
6711 4428 0 1.17e-06 
6711 7808 0 1.5852e-06 
6711 3199 0 6.38936e-07 
8010 13233 0 5.13295e-07 
5010 31378 0 1.47448e-06 
5010 11982 0 7.53655e-07 
31378 26644 0 1.34149e-06 
31378 11776 0 5.18087e-07 
5901 17340 0 7.13066e-07 
18986 4206 0 7.2704e-07 
18986 20699 0 6.80558e-07 
11944 4206 0 4.88549e-07 
11944 3655 0 2.69571e-07 
11944 12683 0 4.47346e-07 
16567 3655 0 1.16729e-06 
16567 7808 0 1.61652e-06 
16567 21482 0 2.16801e-07 
16567 18766 0 6.03858e-07 
4428 25005 0 1.13851e-06 
4428 7808 0 1.07943e-06 
4428 5834 0 1.91317e-06 
25005 5457 0 7.50969e-07 
25005 23057 0 1.2121e-06 
22708 11776 0 6.51373e-07 
22708 23057 0 4.96133e-07 
11776 11894 0 3.88021e-07 
11776 11481 0 7.00016e-07 
13965 3857 0 3.44858e-07 
13965 18383 0 1.41301e-07 
13965 5092 0 8.86747e-07 
17340 19901 0 4.20109e-07 
17340 6430 0 8.75505e-07 
14740 22277 0 8.48206e-07 
14740 20072 0 1.29259e-06 
4206 21264 0 7.58343e-07 
4206 978 0 4.42114e-07 
3655 12683 0 7.04266e-07 
3655 14719 0 6.9398e-07 
7808 5457 0 1.59192e-06 
7808 22425 0 1.79924e-06 
5457 10140 0 1.04441e-06 
5457 12523 0 9.18271e-07 
5457 24626 0 1.4532e-06 
23057 11894 0 7.54593e-07 
23057 119 0 8.64982e-07 
11894 25809 0 3.76508e-07 
11894 20328 0 4.88846e-07 
11894 5401 0 2.94251e-07 
2523 7832 0 3.19139e-07 
2523 5092 0 1.24504e-06 
2523 17550 0 8.02509e-07 
3857 202 0 2.46418e-07 
19901 202 0 2.43485e-07 
19901 13292 0 5.51065e-07 
21264 12683 0 1.25391e-06 
21264 13292 0 1.11341e-06 
21264 20072 0 6.78714e-08 
21264 14432 0 3.20663e-07 
12683 19140 0 1.25849e-06 
12683 20221 0 7.71381e-08 
12683 12023 0 3.04057e-07 
19140 15796 0 1.24542e-06 
21482 22425 0 2.46407e-07 
21482 14719 0 7.38235e-07 
22425 180 0 1.78619e-06 
10140 12523 0 1.00311e-06 
10140 14548 0 1.36086e-06 
10140 13178 0 6.50439e-07 
12523 25809 0 5.20823e-07 
12523 17721 0 8.78243e-07 
25809 25862 0 5.97854e-07 
20328 20053 0 3.52147e-07 
202 7832 0 8.21274e-08 
202 532 0 1.62039e-07 
13292 18990 0 5.86373e-07 
13292 4151 0 1.12935e-06 
15796 180 0 1.21533e-06 
180 14548 0 9.96805e-07 
180 11626 0 1.55076e-06 
180 10753 0 7.68994e-07 
25862 24689 0 9.36849e-07 
25862 25955 0 7.9784e-07 
25862 13084 0 9.23932e-07 
532 16461 0 1.69295e-07 
532 5017 0 3.10977e-07 
18990 13891 0 4.62534e-07 
18990 11675 0 3.21223e-07 
14548 11626 0 1.5128e-06 
14548 5624 0 1.27245e-06 
14548 18646 0 4.46714e-07 
24689 5624 0 9.46143e-07 
16461 5389 0 5.80273e-07 
16461 151 0 7.24872e-07 
16461 4151 0 1.19181e-06 
13891 17934 0 4.90188e-07 
13891 7676 0 3.2352e-08 
17934 15327 0 8.98004e-07 
17934 3327 0 1.02857e-06 
11626 14956 0 2.79039e-06 
11626 3743 0 1.12083e-06 
5624 2219 0 3.34677e-07 
5624 1167 0 1.14846e-06 
5624 12599 0 2.12288e-07 
25955 16022 0 9.52867e-07 
25955 7207 0 6.85867e-07 
16022 21993 0 3.27154e-07 
12827 12038 0 1.27117e-06 
12827 5045 0 4.04598e-07 
15851 12038 0 8.636e-07 
5389 3695 0 6.62932e-07 
5389 5017 0 4.43293e-07 
151 8749 0 4.38027e-07 
151 3695 0 6.83667e-07 
8749 7676 0 4.84309e-07 
8749 14959 0 4.97038e-08 
7676 7445 0 5.05228e-07 
7445 5314 0 2.02321e-07 
7445 13779 0 4.62312e-07 
14956 2219 0 4.86336e-07 
14956 7068 0 2.68156e-06 
14956 13779 0 7.58896e-07 
2219 13271 0 4.77326e-07 
2219 8304 0 5.5863e-08 
1167 7207 0 5.21126e-07 
1167 13271 0 1.2345e-06 
1167 21968 0 8.95685e-07 
7207 7442 0 5.24171e-07 
21993 28323 0 5.06171e-07 
5314 7068 0 1.10411e-06 
5314 13779 0 1.57704e-06 
13271 10964 0 5.45544e-07 
7442 16064 0 7.1185e-07 
7442 10964 0 5.85419e-07 
35294 34972 0 6.70909e-07 
21858 9207 0 4.04534e-06 
21858 16656 0 1.83884e-06 
884 1458 0 6.53482e-06 
10565 5600 0 7.94829e-06 
27966 17976 0 1.83928e-05 
34795 30365 0 4.10856e-06 
12348 9207 0 7.65672e-07 
12348 24135 0 2.50856e-07 
5600 4751 0 2.89727e-07 
5524 23063 0 3.19439e-06 
20846 34143 0 5.29312e-07 
13150 6744 0 2.73197e-06 
31039 2281 0 8.65884e-07 
4751 2281 0 1.5964e-08 
17779 24135 0 3.4293e-06 
8402 32597 0 9.47728e-07 
8402 20896 0 9.87433e-07 
785 32096 0 1.11801e-07 
785 935 0 1.61891e-07 
10944 6623 0 3.13281e-06 
10944 33868 0 1.89732e-06 
10944 10064 0 5.66226e-06 
16530 32257 0 1.94084e-06 
16530 10064 0 2.49784e-06 
31637 20896 0 1.61487e-06 
6623 17367 0 8.69531e-07 
8762 20326 0 1.48317e-06 
8762 34300 0 2.09094e-06 
18506 29173 0 4.506e-07 
18506 935 0 8.1062e-07 
21053 31844 0 1.42272e-07 
21053 26043 0 7.91447e-07 
29519 16075 0 3.92128e-07 
26103 20326 0 1.95754e-06 
29173 30685 0 4.96478e-07 
9036 4524 0 6.26024e-07 
29424 12263 0 8.2107e-07 
7980 12263 0 2.00079e-07 
8243 26043 0 4.97716e-08 
1870 2079 0 1.09811e-06 
1870 27022 0 1.41175e-06 
34399 34724 0 4.55895e-07 
29407 16503 0 1.13655e-06 
24534 19923 0 2.70868e-07 
9389 6651 0 6.68961e-07 
9389 32106 0 8.54671e-08 
9389 6564 0 2.77067e-07 
28999 16985 0 5.37727e-07 
28999 240 0 9.12896e-07 
23537 12544 0 4.779e-07 
7631 25409 0 6.31141e-07 
7631 28549 0 7.98681e-07 
16503 25409 0 3.52899e-07 
16503 6912 0 1.08509e-06 
19923 17245 0 3.49467e-07 
19923 6912 0 6.30671e-07 
7278 11480 0 6.29932e-07 
7278 24251 0 8.45175e-07 
7278 26108 0 3.22907e-07 
6651 29709 0 6.17081e-07 
20766 31300 0 2.45315e-07 
20766 27022 0 3.82275e-07 
16985 29433 0 1.64954e-07 
16985 5542 0 5.48525e-07 
24716 20148 0 1.27229e-06 
24716 27080 0 1.17525e-06 
24716 13707 0 2.33261e-06 
24716 17809 0 1.06244e-06 
27294 12090 0 1.93719e-06 
25409 17245 0 2.94891e-07 
25409 25388 0 5.82551e-07 
25409 25660 0 1.41565e-07 
11480 27273 0 3.27008e-07 
11480 26983 0 3.65633e-07 
29709 187 0 4.3033e-07 
29709 30760 0 4.73427e-07 
7870 22601 0 7.21592e-07 
20148 11239 0 7.31444e-07 
4605 899 0 9.6424e-07 
4605 13707 0 2.43978e-06 
24047 14331 0 1.1658e-06 
4032 25388 0 5.75449e-07 
17245 24931 0 8.48955e-07 
17245 27273 0 2.85601e-07 
17245 8089 0 7.07113e-08 
4946 21809 0 1.33746e-08 
4946 10621 0 3.0774e-07 
15311 29404 0 2.19565e-07 
25388 8603 0 3.12923e-07 
25388 25660 0 8.19518e-07 
24931 27273 0 5.00273e-08 
24931 8603 0 3.40939e-07 
24931 25230 0 8.59151e-07 
27273 21809 0 2.93209e-07 
21809 24240 0 4.36153e-08 
21809 21488 0 4.6979e-07 
187 24240 0 4.95428e-07 
187 29404 0 5.46024e-07 
28327 1956 0 5.35589e-07 
28327 14697 0 5.30116e-07 
17792 31631 0 9.58165e-07 
11276 27227 0 4.3299e-07 
19538 1535 0 3.91318e-07 
19538 3458 0 7.56308e-07 
8603 4400 0 8.70056e-07 
8603 27250 0 6.74782e-07 
8603 27391 0 2.22358e-07 
24240 10023 0 6.31145e-09 
24240 9671 0 3.6952e-07 
1956 9671 0 3.19459e-08 
1956 10143 0 3.63355e-07 
30241 31631 0 3.76813e-07 
30241 15944 0 6.86893e-07 
11625 27158 0 8.3358e-07 
1535 3977 0 7.68977e-07 
5564 4400 0 1.97075e-06 
4400 25230 0 1.04839e-06 
4400 22702 0 1.43337e-06 
4400 27391 0 1.99242e-07 
4400 16930 0 1.04723e-06 
25230 16690 0 1.10292e-06 
25230 9424 0 5.18767e-07 
16690 21488 0 2.55566e-07 
16690 8624 0 1.08486e-06 
21488 10023 0 6.27488e-07 
10023 8624 0 4.87469e-07 
10023 15479 0 8.30767e-07 
9671 15001 0 4.71592e-07 
10143 15479 0 4.43182e-07 
10143 22932 0 5.2384e-07 
10143 15001 0 4.13769e-07 
6232 3977 0 9.57038e-07 
22702 23226 0 3.40754e-07 
22702 13131 0 5.81922e-07 
22702 3547 0 1.0466e-06 
8624 13131 0 3.90011e-07 
8624 25770 0 1.17249e-06 
8624 16876 0 3.91619e-07 
8624 3423 0 4.13276e-07 
15479 25770 0 3.01684e-07 
15479 13745 0 8.85758e-07 
15479 15001 0 1.93855e-07 
15479 5944 0 7.0966e-07 
22932 26901 0 5.70053e-07 
24852 15944 0 9.64866e-07 
12137 691 0 1.21001e-06 
12137 5946 0 4.14435e-07 
12137 16880 0 1.03099e-06 
23226 8679 0 2.48107e-07 
13131 21184 0 7.38188e-07 
13131 9315 0 7.28799e-08 
25770 9821 0 1.05803e-06 
13745 9821 0 2.81482e-07 
13745 25930 0 9.84121e-07 
26901 691 0 1.2824e-06 
26901 25930 0 1.124e-06 
26901 2011 0 5.38913e-08 
691 31678 0 9.16618e-07 
14834 17156 0 1.96414e-07 
14834 19913 0 1.23464e-06 
10268 3682 0 3.82116e-07 
10268 22302 0 2.00366e-07 
3682 8611 0 3.33678e-07 
3682 3547 0 8.43502e-07 
3682 22252 0 1.62025e-07 
8611 21184 0 7.78404e-07 
8611 9315 0 1.94736e-06 
8611 9627 0 1.25466e-06 
21184 8425 0 1.17993e-06 
21184 3423 0 1.08038e-06 
8425 9821 0 7.27535e-07 
8425 21641 0 7.41326e-07 
8425 5115 0 9.18238e-08 
9821 13699 0 1.2438e-06 
25930 13699 0 7.09793e-07 
25930 28916 0 2.63672e-06 
14349 3910 0 1.1157e-06 
14349 10456 0 1.27349e-06 
23222 3317 0 2.57671e-07 
13699 25877 0 8.76847e-07 
13699 26083 0 6.20805e-07 
3910 25877 0 5.16169e-07 
19060 13983 0 5.87755e-07 
19060 17156 0 4.68665e-07 
6604 23091 0 1.95051e-06 
23091 32029 0 1.39223e-06 
23091 26005 0 2.05106e-06 
8267 20640 0 6.92049e-07 
22152 9627 0 8.32671e-07 
21142 25999 0 2.21364e-07 
21142 19682 0 1.39707e-07 
25999 21641 0 1.52193e-07 
25999 5115 0 1.88736e-07 
13983 27542 0 1.06082e-06 
13983 27972 0 7.79741e-07 
13983 18996 0 1.27907e-06 
13983 25558 0 9.72144e-08 
11889 30642 0 1.49364e-06 
11889 30313 0 1.15835e-06 
11889 26005 0 2.17236e-06 
11889 18508 0 5.34512e-07 
16100 6682 0 4.74414e-07 
16100 21951 0 1.11361e-06 
11897 22405 0 1.07653e-06 
11897 3317 0 1.43879e-06 
11897 6135 0 1.10861e-06 
22405 9402 0 7.31958e-07 
22405 2473 0 4.78824e-07 
22405 22732 0 1.09999e-06 
22405 12776 0 1.5682e-08 
9402 5693 0 1.15759e-06 
9402 17522 0 2.18685e-06 
5693 27735 0 1.76373e-06 
5693 22732 0 1.30394e-06 
27735 13829 0 4.00803e-07 
27735 20279 0 1.63565e-06 
13829 20279 0 1.76743e-06 
13829 14625 0 7.84032e-07 
27542 14625 0 1.62945e-06 
27542 12031 0 1.35711e-06 
27542 12661 0 1.63698e-09 
27972 23711 0 1.16818e-06 
23711 13233 0 3.06672e-07 
23711 8135 0 1.20502e-06 
23711 7506 0 4.47124e-07 
15646 22571 0 4.33408e-07 
30642 11982 0 1.30996e-06 
30642 24382 0 5.56795e-07 
30642 6033 0 7.68374e-07 
2473 5532 0 1.44177e-06 
13711 15528 0 1.15055e-06 
13711 23325 0 1.15576e-06 
21527 18826 0 1.15441e-06 
21527 1425 0 3.06951e-07 
18826 3199 0 1.2779e-06 
18826 3023 0 1.04039e-06 
3199 12031 0 8.70258e-07 
3199 20698 0 5.65145e-07 
13233 12031 0 1.05651e-06 
13233 20698 0 1.71586e-07 
13233 17451 0 6.43294e-07 
8135 24382 0 9.06585e-07 
8135 17451 0 9.04373e-07 
8135 14645 0 6.37363e-07 
11735 8265 0 5.3572e-07 
11735 13845 0 7.69983e-07 
16834 20606 0 1.69776e-06 
16834 15790 0 2.23832e-07 
16834 8622 0 1.61259e-06 
16834 8366 0 2.81724e-07 
20699 22732 0 7.95205e-07 
20699 23325 0 1.45309e-06 
1425 22445 0 4.50482e-07 
1425 2653 0 2.07544e-07 
11982 23130 0 1.31187e-06 
11982 24382 0 4.82582e-07 
11982 6033 0 7.91363e-07 
20606 15790 0 6.96197e-08 
20606 15347 0 2.00345e-06 
22277 8366 0 7.14623e-07 
22277 16531 0 4.93865e-07 
22445 16531 0 6.04278e-07 
18766 6821 0 6.608e-07 
18766 18198 0 1.14791e-07 
18766 2653 0 6.75483e-07 
5834 17451 0 9.72088e-07 
5834 21031 0 5.78485e-07 
5834 7717 0 1.26582e-06 
23130 5401 0 1.355e-06 
23130 27940 0 3.59089e-07 
978 20072 0 9.69084e-07 
978 18198 0 7.64486e-07 
14719 18198 0 1.13374e-06 
14719 5551 0 1.08464e-06 
14719 16397 0 6.32242e-07 
14719 21202 0 4.6394e-07 
24626 21031 0 2.2365e-07 
24626 13178 0 7.83549e-07 
24626 29141 0 1.54679e-06 
119 5401 0 4.44339e-07 
119 17721 0 6.54089e-07 
119 21031 0 3.14199e-07 
119 5395 0 1.07439e-06 
5401 13084 0 1.17675e-06 
5401 6325 0 3.70369e-07 
5092 8676 0 1.96494e-07 
5092 15347 0 1.74884e-06 
5092 14593 0 7.06312e-07 
5092 20006 0 1.8815e-06 
6430 3842 0 9.52992e-07 
6430 20006 0 8.44558e-07 
6430 20150 0 4.10128e-07 
20072 11120 0 1.38185e-06 
12023 14432 0 3.76322e-07 
12023 15218 0 6.18678e-07 
17721 21235 0 3.15455e-07 
13084 21235 0 8.84891e-07 
13084 22373 0 6.7357e-07 
17550 14593 0 6.49559e-08 
20114 15535 0 7.8525e-08 
20114 20150 0 3.74959e-07 
20114 14432 0 2.6844e-07 
20114 21158 0 4.76344e-07 
18246 11833 0 1.03867e-08 
18246 6710 0 7.4895e-08 
4151 9966 0 1.38113e-06 
11675 9086 0 2.63709e-07 
11675 14432 0 2.65333e-07 
11675 15730 0 4.64294e-07 
12038 5017 0 5.5248e-07 
12038 3159 0 1.74208e-06 
12038 11723 0 4.81604e-07 
5017 17623 0 8.71398e-07 
15535 9086 0 3.85986e-08 
15535 10050 0 9.43963e-08 
9086 7479 0 3.08012e-07 
15327 13779 0 1.29384e-06 
15327 2163 0 1.54086e-06 
3743 18646 0 7.77826e-07 
3743 16848 0 6.79761e-07 
10050 7507 0 5.438e-07 
8289 13532 0 1.56812e-07 
13779 15235 0 3.12409e-07 
28323 9048 0 4.61613e-07 
28323 11388 0 9.41407e-07 
28323 24504 0 3.04314e-07 
7507 98 0 1.17819e-07 
10964 21968 0 4.05954e-07 
9048 20311 0 5.23697e-07 
5165 24561 0 3.23738e-05 
27900 1458 0 3.53445e-06 
15252 35484 0 3.47649e-07 
34143 782 0 3.50721e-07 
10849 13755 0 2.19673e-06 
23560 33868 0 1.23279e-06 
23560 24135 0 1.11752e-06 
6744 10064 0 4.17909e-06 
6744 11828 0 1.73419e-06 
33868 5364 0 7.18224e-07 
10064 7359 0 2.8663e-06 
19213 20326 0 1.09754e-06 
20326 26006 0 2.60464e-06 
12985 21755 0 3.28028e-07 
33317 27080 0 9.20822e-07 
33317 21755 0 4.60282e-07 
13625 26820 0 1.48361e-06 
240 26006 0 1.9881e-06 
26820 12090 0 2.7967e-06 
899 4649 0 3.62115e-07 
13707 30647 0 3.62034e-07 
14331 4415 0 9.48332e-07 
32482 3977 0 4.78507e-07 
26588 30834 0 2.85829e-07 
26588 20615 0 1.26506e-06 
5946 19899 0 1.38717e-07 
5946 20035 0 1.20539e-07 
32029 32980 0 5.56107e-07 
4500 31678 0 6.83551e-07 
19682 19567 0 4.6789e-07 
21641 20279 0 6.33181e-07 
25877 14625 0 9.97564e-07 
18996 3389 0 8.5776e-07 
18996 28916 0 2.17274e-06 
18996 11988 0 2.41387e-06 
17156 27613 0 5.64915e-07 
30313 5484 0 3.38409e-07 
20279 2917 0 2.1646e-06 
20279 26955 0 8.68306e-07 
3389 13772 0 8.74241e-07 
3389 21349 0 1.55879e-07 
26005 24573 0 3.93721e-07 
26005 31337 0 1.47628e-06 
17522 22732 0 2.59376e-07 
17522 13444 0 1.85227e-06 
17522 12776 0 8.06568e-07 
17522 11244 0 9.07936e-07 
14625 15528 0 1.65436e-06 
14625 13772 0 2.41594e-07 
6682 21951 0 5.59722e-07 
22732 8622 0 1.61712e-06 
22732 17060 0 5.77102e-07 
22732 18547 0 4.89879e-07 
22732 12729 0 4.02766e-07 
22732 3825 0 1.48077e-06 
15528 18108 0 1.06576e-06 
15528 3023 0 7.54563e-07 
12031 25558 0 2.87796e-07 
12031 16952 0 8.01223e-07 
24382 19578 0 7.56411e-07 
8265 13845 0 5.43133e-07 
17060 16531 0 2.34808e-07 
17060 13522 0 4.84594e-07 
23325 11410 0 1.06656e-06 
6821 3023 0 1.37514e-06 
6821 24264 0 1.30119e-06 
20698 10815 0 2.15785e-07 
17451 14645 0 1.4032e-07 
17451 3741 0 8.96192e-07 
1992 27940 0 1.35373e-07 
8366 3842 0 1.42407e-07 
8366 15438 0 7.26303e-07 
16531 3842 0 5.65658e-07 
16531 22380 0 5.18093e-08 
10815 13930 0 1.19741e-07 
15347 4638 0 7.25494e-07 
15347 10802 0 5.34891e-07 
15347 20501 0 8.47018e-07 
3842 16339 0 1.04714e-06 
18198 10615 0 9.03776e-07 
6325 22373 0 5.32333e-07 
6325 17341 0 5.37548e-07 
6325 18440 0 7.7534e-07 
14593 1761 0 1.47834e-06 
20006 9966 0 9.26128e-07 
20006 4913 0 1.53109e-06 
13930 13178 0 1.90266e-07 
13178 176 0 6.36625e-07 
13178 18646 0 1.99151e-07 
21235 22373 0 1.63255e-07 
21235 6848 0 9.23273e-07 
21235 19839 0 1.0815e-06 
21235 17249 0 2.19226e-07 
21235 20718 0 7.71756e-07 
22373 16320 0 1.42926e-07 
9966 4913 0 8.90714e-07 
5551 2163 0 1.4187e-06 
5551 21202 0 6.66109e-07 
10753 24935 0 8.49775e-07 
176 6848 0 5.82564e-07 
14194 4349 0 3.6882e-07 
15730 2163 0 4.16889e-07 
15730 3327 0 1.70977e-08 
15730 7742 0 2.60558e-07 
2163 6419 0 1.14885e-06 
18646 24935 0 5.97677e-07 
18646 4811 0 7.34358e-07 
6848 11388 0 9.81913e-07 
3159 6710 0 1.63259e-06 
3159 4970 0 6.19243e-07 
3159 17832 0 7.33846e-07 
3327 11330 0 9.88537e-07 
11388 18767 0 4.27441e-07 
5228 1970 0 7.96427e-08 
17623 17832 0 9.10556e-07 
17623 3088 0 6.62153e-07 
17036 15235 0 4.51414e-07 
17036 9454 0 4.47644e-07 
15235 6419 0 3.21692e-07 
21968 18767 0 4.54113e-07 
21968 5844 0 8.16449e-07 
15811 25944 0 2.36759e-05 
20863 35674 0 6.61899e-06 
1229 7244 0 7.72259e-07 
24828 9268 0 1.08739e-06 
10093 8892 0 6.98805e-07 
10093 32597 0 5.74172e-07 
24135 4166 0 1.11387e-06 
9268 34850 0 1.27281e-06 
20896 25654 0 8.01139e-07 
20896 4960 0 1.07198e-06 
18129 15277 0 8.40773e-07 
12723 34300 0 1.64497e-06 
12723 33772 0 2.8772e-06 
31844 17367 0 6.07872e-07 
31844 5364 0 4.70741e-07 
17367 2079 0 1.29719e-06 
30683 2079 0 3.58977e-07 
26006 26337 0 2.75838e-06 
21755 12544 0 8.81102e-08 
4524 28549 0 1.24009e-07 
4524 622 0 5.04202e-07 
27216 2919 0 1.37778e-07 
12263 22584 0 7.44662e-07 
26043 22584 0 1.23915e-06 
32106 11017 0 3.07691e-07 
2079 8665 0 1.63732e-06 
12544 20660 0 1.22754e-08 
28775 31138 0 4.54383e-08 
24251 22584 0 5.35231e-07 
27022 12355 0 1.26169e-06 
29433 17809 0 5.85119e-07 