ITEM: TIMESTEP
20000000
ITEM: NUMBER OF ENTRIES
6300
ITEM: BOX BOUNDS ff ff ff
-0.01 0.45
-0.15 0.15
-0.08 0.1
ITEM: ENTRIES c_ppc[1] c_ppc[2] c_ppc[3] c_ppc[4] 
587 7280 0 0.000110523 
5967 8341 0 8.64701e-05 
8341 2511 0 0.000161237 
996 731 0 0.000113203 
731 244 0 0.000500182 
918 7963 0 5.3324e-06 
9746 4483 0 3.14821e-05 
7083 1112 0 4.94896e-06 
9584 7955 0 1.1695e-06 
9707 125 0 6.54617e-07 
2476 9880 0 1.708e-05 
8672 7413 0 8.92011e-06 
8672 8680 0 3.56276e-06 
7963 3991 0 8.95946e-06 
9456 9871 0 9.93264e-06 
5773 1542 0 1.70755e-05 
4483 6125 0 1.03323e-05 
9501 9935 0 2.70042e-05 
8680 3991 0 1.66902e-05 
2756 6719 0 1.2291e-05 
9923 6043 0 2.2161e-05 
3991 8129 0 1.52691e-05 
3529 3774 0 7.0279e-06 
6719 3774 0 1.74987e-05 
6719 2020 0 2.49037e-05 
707 5350 0 2.00763e-05 
6043 9822 0 2.53478e-05 
3031 8078 0 5.3216e-05 
3604 4117 0 2.87542e-06 
1259 1986 0 2.30275e-05 
9936 8078 0 2.51252e-05 
5017 4093 0 9.79933e-06 
5350 552 0 1.12189e-05 
3774 2907 0 5.16512e-06 
1866 198 0 6.11925e-05 
1916 6831 0 6.39119e-06 
4276 6807 0 3.89243e-06 
8131 7777 0 2.59613e-05 
7728 8913 0 6.35534e-06 
7728 1255 0 1.34539e-05 
9911 3041 0 4.14111e-07 
5252 4656 0 1.09233e-06 
6672 3913 0 2.73703e-07 
6672 9115 0 6.73133e-07 
9197 8383 0 5.08363e-07 
3041 4925 0 1.15579e-05 
2306 1666 0 2.44964e-06 
7251 6786 0 1.28561e-06 
7251 1965 0 4.43815e-06 
7251 7647 0 1.652e-06 
7251 255 0 5.46476e-07 
5458 2861 0 3.3184e-07 
2802 1411 0 2.0879e-06 
3515 3220 0 9.3613e-06 
8073 6873 0 1.45914e-06 
6873 4547 0 3.78075e-06 
4547 3908 0 2.80141e-06 
5412 6269 0 1.19412e-07 
2371 4412 0 4.80081e-07 
6342 5183 0 8.90913e-07 
6342 4466 0 2.60077e-07 
8278 1334 0 4.37018e-07 
3442 7045 0 1.21028e-07 
5183 8158 0 4.92885e-07 
6269 1141 0 2.02445e-06 
7045 2710 0 7.61176e-09 
2249 4708 0 5.73581e-06 
9131 311 0 4.338e-07 
4412 3963 0 4.70913e-07 
3963 1141 0 1.62314e-06 
3963 8538 0 2.10999e-06 
1230 7945 0 8.23525e-07 
311 7301 0 1.3157e-06 
7945 8158 0 1.93809e-06 
7945 7301 0 1.72657e-06 
1141 5728 0 4.29073e-07 
7301 6039 0 2.02792e-06 
7301 5452 0 9.5697e-07 
3137 7246 0 2.11937e-06 
3793 2110 0 4.93311e-07 
890 494 0 2.68474e-06 
3885 5140 0 9.26717e-07 
607 8538 0 2.0928e-07 
4482 1885 0 5.41028e-07 
1334 8488 0 4.17376e-07 
1885 1456 0 2.55147e-06 
8488 6697 0 1.51687e-07 
8488 2941 0 9.20243e-08 
8099 5728 0 2.05814e-07 
8099 2455 0 2.61088e-07 
5728 5994 0 2.08331e-07 
7246 2754 0 5.54844e-06 
7246 1188 0 1.7628e-06 
5088 1808 0 3.73774e-08 
5088 2455 0 4.51335e-07 
5088 1174 0 7.87197e-07 
8190 6161 0 4.37497e-06 
2773 3942 0 6.13442e-06 
8375 1553 0 3.24775e-07 
4567 6480 0 2.03325e-06 
1587 5038 0 5.26149e-08 
5038 6480 0 3.89111e-07 
6480 5994 0 7.63717e-07 
302 8774 0 5.98967e-07 
5994 6511 0 1.77214e-07 
5901 2754 0 3.31267e-06 
8774 3130 0 1.47998e-06 
6511 6363 0 6.8008e-08 
9563 3774 0 8.47973e-06 
8645 4376 0 1.79768e-05 
4799 9770 0 2.57723e-06 
9739 9825 0 4.75273e-06 
4376 9661 0 2.38947e-05 
9825 3880 0 1.58174e-05 
8676 5466 0 4.36031e-06 
6341 4102 0 1.07228e-05 
6254 1132 0 1.82792e-05 
2347 8380 0 4.88427e-06 
2347 5620 0 2.62643e-06 
2347 4102 0 3.23878e-06 
8380 1132 0 6.04202e-06 
1132 9851 0 4.76579e-06 
5620 2369 0 4.3818e-06 
5620 3811 0 1.72909e-06 
7384 8370 0 7.66832e-07 
7384 3992 0 2.92332e-06 
3620 315 0 8.84865e-06 
482 7204 0 3.42099e-06 
482 1775 0 2.28476e-06 
482 1734 0 8.71722e-06 
8370 6449 0 3.24104e-06 
7204 6136 0 7.22425e-06 
2369 8241 0 8.51881e-06 
2369 5392 0 7.66427e-06 
9701 8944 0 2.02195e-06 
1775 6136 0 1.86694e-06 
1775 7775 0 7.97945e-06 
1775 2128 0 6.58567e-06 
6449 5282 0 5.16729e-06 
6928 6175 0 5.09227e-06 
6928 4988 0 3.58357e-06 
6136 4553 0 7.31105e-06 
7775 8241 0 4.58675e-06 
7775 4553 0 5.88021e-06 
7775 9269 0 7.14373e-06 
8241 5282 0 2.90058e-06 
8241 1495 0 7.39302e-06 
5282 2801 0 6.42745e-06 
5282 5771 0 7.08444e-06 
2801 1820 0 7.87299e-06 
1820 4988 0 9.3468e-06 
4553 9269 0 1.635e-06 
4553 8114 0 1.24403e-05 
1495 1937 0 7.8237e-06 
4988 306 0 1.23039e-05 
9269 9140 0 8.44453e-06 
9269 8215 0 3.60388e-06 
5771 8237 0 1.76862e-06 
5771 1937 0 2.59952e-06 
5771 4651 0 6.65537e-06 
8237 2772 0 2.38671e-06 
2772 4544 0 3.32538e-06 
4544 5551 0 1.27791e-06 
4544 5753 0 3.88234e-06 
4544 5724 0 6.66884e-06 
8114 9140 0 3.53604e-06 
8114 7165 0 1.19723e-05 
1937 9140 0 3.05285e-06 
1937 822 0 7.39546e-06 
1937 1594 0 2.35884e-06 
8797 8862 0 4.1463e-06 
8797 8080 0 1.64729e-06 
8797 8447 0 3.95119e-06 
5753 5451 0 4.63218e-06 
5753 5551 0 1.82613e-06 
5753 9709 0 2.71167e-06 
9140 7789 0 9.0943e-06 
4651 8080 0 5.34759e-06 
4651 4941 0 3.72696e-06 
8862 4654 0 5.12762e-06 
5551 4654 0 2.63406e-06 
5551 7583 0 3.89371e-06 
5551 8555 0 2.91105e-06 
7165 371 0 1.10132e-05 
7789 7343 0 9.68528e-06 
7789 371 0 2.06269e-07 
7789 1479 0 5.97064e-06 
822 2390 0 6.25816e-06 
822 9200 0 1.31496e-06 
4941 2390 0 1.91467e-06 
4941 9200 0 2.65948e-06 
8080 360 0 5.05129e-06 
4654 360 0 2.35834e-06 
4654 5417 0 5.56043e-06 
7583 5417 0 3.62772e-06 
7583 8030 0 6.15343e-06 
371 3351 0 1.19639e-05 
371 1429 0 7.17418e-06 
2390 7343 0 1.29749e-06 
2390 8043 0 6.41801e-06 
2390 9200 0 2.78544e-06 
360 5796 0 1.90376e-06 
360 7910 0 4.03093e-06 
7343 8519 0 1.02339e-05 
2098 5796 0 5.96655e-06 
2098 8043 0 5.65255e-06 
2098 3562 0 1.06249e-06 
5796 7910 0 6.26168e-06 
5796 4658 0 2.56596e-06 
5796 8849 0 3.70517e-06 
7910 5417 0 8.05666e-06 
7910 4658 0 2.46577e-06 
5417 6620 0 1.05325e-05 
3351 8519 0 1.14003e-05 
8519 8043 0 7.56001e-06 
8519 4581 0 1.80212e-05 
8519 5445 0 5.50341e-07 
8043 4265 0 1.41363e-06 
6620 6606 0 5.69317e-06 
6620 3277 0 7.6347e-06 
5868 4581 0 4.71975e-06 
5868 6270 0 7.61044e-06 
5082 4340 0 6.25514e-06 
4658 4147 0 3.23437e-06 
4658 2653 0 1.02169e-06 
4658 7359 0 5.39208e-07 
4581 5852 0 1.92192e-05 
4581 4340 0 2.02418e-06 
4147 2594 0 2.69989e-06 
2653 2885 0 7.71016e-07 
2653 4383 0 1.64193e-07 
2885 1611 0 4.33039e-07 
2885 4966 0 9.37558e-07 
2570 1351 0 1.24991e-06 
5852 1776 0 1.58654e-06 
1776 2594 0 5.60286e-06 
1776 4340 0 5.59342e-06 
2594 5245 0 3.03962e-06 
5245 8483 0 2.24559e-06 
8252 1510 0 0.000140866 
8252 5207 0 6.30148e-05 
7234 5725 0 8.8327e-06 
7234 6577 0 9.5219e-06 
7723 2238 0 6.9597e-06 
7723 7459 0 4.95737e-06 
675 6577 0 4.7856e-07 
9898 994 0 8.62447e-06 
9661 2238 0 2.39171e-05 
9661 7287 0 2.22954e-05 
9851 1299 0 2.13021e-06 
995 515 0 2.09095e-06 
4102 3848 0 1.15325e-05 
315 1698 0 2.51779e-05 
1734 2128 0 1.30971e-06 
1734 3848 0 8.99988e-06 
1734 2193 0 8.15726e-06 
1000 9708 0 1.83963e-06 
5392 8953 0 3.27888e-06 
5392 2193 0 3.29017e-06 
5392 9838 0 1.0212e-05 
5392 6214 0 1.73268e-06 
2352 9226 0 6.04544e-06 
2128 8953 0 3.05039e-06 
2128 2735 0 7.46934e-06 
4316 2173 0 2.32729e-06 
8953 5393 0 5.38298e-06 
8953 6214 0 5.03976e-07 
9191 9592 0 3.17917e-06 
1023 4202 0 2.24257e-06 
2173 1204 0 2.58857e-06 
6133 9729 0 1.49028e-06 
5393 5593 0 5.6135e-06 
5393 9112 0 9.09713e-07 
4202 9709 0 1.04678e-06 
5593 8447 0 6.89039e-06 
5593 4086 0 3.78525e-06 
1204 9214 0 1.20255e-06 
1204 7856 0 9.50558e-07 
9709 124 0 5.84141e-06 
9709 6037 0 2.57665e-06 
1594 2563 0 1.16123e-06 
1594 1479 0 2.48824e-06 
8447 386 0 5.89585e-06 
8447 9531 0 2.11698e-06 
5724 5042 0 6.1693e-06 
5724 8555 0 2.21729e-06 
9214 1479 0 1.3094e-07 
9531 9157 0 1.26229e-06 
9531 2639 0 1.27281e-06 
386 1740 0 7.32926e-07 
386 2639 0 1.34445e-06 
8555 8030 0 2.01505e-06 
8555 9099 0 4.95558e-06 
9200 9157 0 4.11236e-06 
3562 2639 0 1.50572e-06 
3562 8849 0 9.56288e-08 
3562 7851 0 1.4201e-06 
3325 2214 0 3.00172e-06 
7614 5445 0 4.66602e-07 
7614 1529 0 2.13307e-06 
8849 2639 0 8.24358e-07 
8849 7851 0 4.88271e-06 
7359 144 0 2.54775e-07 
7320 9060 0 7.02952e-07 
6270 7031 0 6.52551e-06 
6270 4459 0 1.22423e-05 
6270 2927 0 3.04996e-06 
4966 3277 0 4.26154e-06 
4966 3637 0 1.90873e-06 
4340 4459 0 1.14196e-05 
4340 2186 0 9.59549e-06 
4383 8175 0 9.95741e-07 
4383 2473 0 6.18253e-07 
8175 9060 0 7.64067e-07 
1351 4459 0 1.00816e-06 
6577 9924 0 7.53931e-06 
9793 8937 0 1.00926e-05 
9793 3345 0 1.24816e-05 
1427 9603 0 3.3693e-06 
3631 9805 0 1.41594e-05 
9592 124 0 1.76085e-06 
9592 4086 0 5.17763e-07 
9592 7361 0 6.46003e-06 
9592 5289 0 9.94196e-07 
4086 5042 0 5.58681e-06 
4086 3802 0 7.95962e-06 
4086 3265 0 1.13245e-07 
8215 4223 0 1.71638e-06 
5042 4151 0 3.86037e-06 
1479 9157 0 4.63463e-06 
1479 1429 0 5.95275e-06 
1479 828 0 6.57363e-06 
9157 3777 0 5.03121e-06 
9157 1017 0 3.31218e-06 
1429 7031 0 5.10611e-06 
1429 1272 0 8.23563e-06 
7031 3175 0 8.00356e-07 
8539 7754 0 1.69243e-06 
8539 6100 0 6.562e-06 
8539 2214 0 3.6921e-06 
8539 2747 0 1.70189e-06 
8539 6675 0 5.56627e-06 
144 7851 0 2.60338e-06 
144 6029 0 1.66736e-06 
767 4459 0 4.3273e-06 
767 6029 0 3.76824e-06 
767 5408 0 1.57106e-06 
767 4491 0 3.17294e-06 
9060 934 0 1.48615e-06 
4491 2186 0 4.50659e-06 
4491 3311 0 3.33758e-06 
4491 5193 0 3.94321e-07 
5893 2186 0 4.59306e-06 
5893 2473 0 3.50781e-06 
2473 7249 0 2.10396e-06 
9924 9093 0 1.0344e-05 
9924 1214 0 1.2762e-05 
7287 4183 0 2.89455e-06 
3848 9708 0 8.32931e-06 
3848 3345 0 1.4661e-05 
1299 9838 0 6.08513e-06 
1698 1249 0 4.71707e-05 
9838 2193 0 9.10701e-06 
9838 2154 0 1.48362e-05 
2193 8880 0 1.09534e-05 
2735 9718 0 7.06478e-07 
2735 9729 0 9.04924e-07 
2735 1877 0 6.98889e-06 
9807 7751 0 1.81375e-05 
9718 4223 0 2.02284e-06 
9729 8345 0 8.69884e-07 
6944 3802 0 7.13647e-06 
6944 4045 0 8.10719e-06 
6944 8345 0 1.32836e-06 
3802 9777 0 7.60199e-06 
3802 7361 0 5.73711e-06 
7157 4686 0 1.24041e-05 
4223 4045 0 5.32666e-06 
4223 7856 0 3.28405e-06 
4223 7717 0 7.66773e-07 
4045 3777 0 5.62605e-06 
9152 3265 0 5.08037e-06 
5289 2968 0 6.18009e-07 
3198 2931 0 2.26264e-06 
3265 4151 0 6.82943e-06 
3265 1017 0 7.63131e-07 
4151 2931 0 1.28048e-06 
4151 9616 0 6.35746e-06 
4151 9099 0 8.00889e-06 
828 5943 0 2.25091e-07 
828 1474 0 4.9781e-06 
1017 4846 0 3.53248e-06 
1017 6245 0 3.65652e-06 
1017 2095 0 5.8457e-07 
9099 3446 0 5.02934e-06 
9099 8101 0 7.47596e-06 
8101 2214 0 6.01426e-06 
8101 1447 0 3.0919e-06 
8101 7964 0 8.23786e-06 
1272 7786 0 2.91154e-06 
1272 5943 0 6.92467e-06 
1272 7368 0 3.50524e-06 
4846 9616 0 3.21131e-06 
4846 1529 0 3.525e-06 
4846 892 0 1.76636e-06 
9616 3446 0 2.37443e-06 
9616 2095 0 4.75849e-06 
3446 7838 0 4.66523e-06 
2214 8210 0 3.35241e-07 
7851 7838 0 7.55017e-07 
7851 3920 0 6.26694e-06 
7851 3344 0 2.54981e-07 
3175 5943 0 2.46351e-06 
3175 70 0 1.7384e-06 
4878 2927 0 3.27336e-06 
4878 6029 0 3.42835e-06 
4878 1714 0 5.61824e-06 
1529 3344 0 1.72208e-06 
7838 3114 0 3.30151e-06 
2927 3433 0 8.83445e-07 
6029 3311 0 2.41855e-06 
934 3114 0 4.34788e-06 
934 6675 0 5.03912e-06 
6675 6331 0 2.02812e-06 
6675 1075 0 4.05876e-06 
6675 511 0 1.17581e-06 
3311 3114 0 4.45735e-06 
3114 9360 0 1.72377e-06 
3433 2010 0 3.66696e-07 
5408 6079 0 1.6271e-06 
7249 2058 0 1.35499e-06 
2058 870 0 1.21057e-06 
5368 6383 0 1.1615e-06 
5368 6346 0 2.99942e-06 
5193 3341 0 2.5709e-06 
4852 5279 0 9.36076e-06 
3345 2353 0 1.47561e-05 
3345 9488 0 1.06523e-05 
4565 6739 0 6.65608e-07 
1271 7468 0 8.05902e-06 
7468 8880 0 6.7245e-06 
4713 9488 0 7.23648e-06 
1877 925 0 5.63975e-06 
2423 2154 0 1.16146e-05 
2154 9777 0 1.46297e-05 
2154 5331 0 1.54553e-05 
6433 6356 0 6.00531e-06 
8880 8106 0 9.76753e-06 
9777 7361 0 9.98343e-06 
8345 9564 0 7.54993e-06 
7361 9787 0 2.14103e-06 
5413 963 0 4.49404e-06 
1936 8628 0 9.36783e-06 
7717 6130 0 1.0538e-06 
7717 5539 0 1.12385e-06 
5526 6295 0 2.05193e-06 
6295 6245 0 3.76186e-06 
6295 7303 0 7.66687e-06 
159 963 0 1.76793e-06 
4686 2537 0 8.77702e-06 
6245 9763 0 2.83808e-06 
6245 1555 0 1.32567e-06 
7786 4287 0 2.73127e-06 
6773 5757 0 5.01667e-06 
6773 8885 0 3.43345e-06 
5943 892 0 6.09332e-06 
5943 1714 0 4.09192e-06 
892 2095 0 7.48335e-06 
892 1714 0 2.60608e-06 
2095 3920 0 5.28999e-06 
2095 5435 0 5.72908e-06 
2095 5550 0 3.20833e-06 
8885 3920 0 4.06208e-06 
8885 5488 0 2.31239e-06 
8885 9747 0 3.9746e-06 
4687 6288 0 2.6181e-06 
3920 7899 0 6.13139e-06 
5488 9738 0 2.12151e-06 
5488 6331 0 2.80494e-06 
3344 7562 0 6.882e-07 
3344 9360 0 1.11815e-06 
3344 2623 0 7.12638e-07 
70 3657 0 9.41766e-07 
9360 105 0 7.1154e-07 
9360 3341 0 1.47304e-06 
9360 1340 0 3.82141e-06 
105 1075 0 1.10777e-06 
4478 6383 0 4.49504e-07 
870 1075 0 2.42038e-06 
870 3814 0 1.27459e-07 
2010 3172 0 5.17948e-07 
3341 7064 0 4.13326e-07 
3341 4528 0 3.73391e-06 
7064 3595 0 3.69304e-07 
1449 3713 0 2.49521e-06 
5279 3031 0 2.19965e-05 
5279 4669 0 4.80829e-05 
2262 2353 0 2.27719e-05 
2262 4669 0 1.14891e-05 
2353 4835 0 2.10296e-06 
4591 2302 0 6.33469e-05 
6739 9253 0 1.82549e-07 
9488 3644 0 1.55269e-06 
5331 9253 0 4.0566e-06 
5331 5953 0 8.91408e-06 
8106 925 0 6.77495e-06 
8106 9800 0 1.07644e-05 
6584 9892 0 1.23311e-05 
9787 963 0 8.10604e-06 
9787 7303 0 4.18846e-06 
9787 6299 0 3.05472e-06 
963 2873 0 7.1547e-06 
963 8753 0 4.49927e-06 
8628 7735 0 4.65448e-06 
2873 5559 0 3.41077e-06 
2873 1677 0 5.26782e-06 
2873 8117 0 7.36157e-06 
4287 9605 0 9.02515e-07 
9763 1474 0 4.81721e-06 
9763 9756 0 5.20416e-06 
5757 2537 0 5.39426e-06 
5757 814 0 3.72656e-06 
2537 7964 0 1.30078e-05 
2537 9066 0 9.59401e-06 
1474 7368 0 9.4547e-07 
1474 1 0 2.27014e-06 
1474 4141 0 1.19156e-06 
7964 1447 0 6.70657e-06 
7964 9738 0 7.09492e-06 
7964 1861 0 6.34332e-06 
5766 9747 0 3.23209e-06 
9738 1288 0 5.14645e-06 
9738 8494 0 1.05681e-06 
1714 9618 0 6.21211e-06 
1714 9615 0 6.03912e-06 
7562 9615 0 2.14914e-06 
3559 9551 0 1.32067e-06 
9551 7972 0 6.15644e-07 
2816 9618 0 5.13508e-06 
2816 2812 0 4.82006e-06 
8112 2623 0 1.9373e-06 
8112 9321 0 6.39211e-07 
1075 3595 0 2.2107e-06 
1075 1497 0 7.60945e-06 
2623 6473 0 1.00532e-06 
2623 5399 0 1.38812e-06 
6473 6346 0 1.73957e-07 
3713 4528 0 3.64599e-06 
3172 1648 0 6.89811e-06 
6346 1111 0 5.0149e-07 
4669 3946 0 2.8373e-05 
6516 8200 0 7.62137e-06 
8200 5030 0 5.6283e-06 
6356 3817 0 1.30968e-05 
694 3817 0 1.95795e-05 
9800 9756 0 8.37718e-06 
9800 2544 0 1.17101e-06 
9800 1457 0 3.99792e-06 
2876 7303 0 7.92776e-06 
2876 3085 0 3.90817e-07 
9605 4141 0 2.08831e-06 
9756 5115 0 2.01372e-06 
9756 7831 0 6.21598e-06 
7303 8257 0 4.66962e-06 
7303 33 0 3.40297e-06 
8753 9066 0 3.69864e-06 
8257 5435 0 3.38801e-06 
8257 6195 0 6.08093e-06 
1 3481 0 8.01775e-07 
4141 4250 0 4.64888e-06 
4141 5735 0 5.54502e-06 
1677 814 0 2.37346e-06 
1677 5435 0 3.78887e-06 
1677 33 0 2.46196e-06 
1677 6954 0 5.12662e-06 
814 8494 0 2.32389e-06 
6799 1861 0 1.36624e-06 
6799 6288 0 4.03169e-06 
6799 7560 0 9.60153e-07 
5435 5520 0 2.12322e-06 
9747 5550 0 1.29816e-06 
9747 2311 0 3.54084e-07 
9747 6954 0 6.97397e-06 
9147 9618 0 8.28739e-06 
9147 4250 0 5.37467e-06 
9147 1239 0 4.80243e-06 
5550 2311 0 4.0631e-06 
6288 1166 0 4.07235e-06 
6288 2958 0 6.38947e-06 
9615 7053 0 5.20653e-06 
9615 8240 0 7.20282e-06 
9615 7733 0 1.64644e-06 
2311 1288 0 5.52041e-06 
2311 7899 0 2.98687e-06 
2311 1340 0 4.91758e-07 
1288 7972 0 4.58523e-07 
7053 7899 0 7.19304e-06 
7053 5399 0 4.19114e-07 
7053 5069 0 6.59332e-06 
7899 1340 0 6.83557e-06 
5399 9495 0 1.98417e-06 
1340 527 0 3.60298e-06 
1340 7972 0 6.95481e-06 
1340 9252 0 2.99755e-06 
1497 9154 0 9.65679e-06 
1497 7163 0 9.02257e-06 
3657 1648 0 4.43227e-07 
3657 2403 0 1.32789e-06 
2812 1648 0 6.88887e-06 
2812 5069 0 4.99738e-06 
9321 1111 0 1.02315e-06 
9321 7390 0 4.91096e-06 
527 7163 0 4.52352e-06 
527 2811 0 2.52554e-06 
7163 1596 0 7.81011e-06 
7163 3552 0 5.44826e-06 
7163 9036 0 1.91495e-06 
1111 6439 0 3.67726e-07 
4528 9495 0 6.47009e-06 
2811 5271 0 1.58712e-06 
2811 2156 0 1.66344e-06 
3855 3289 0 3.90891e-07 
3522 3788 0 4.86334e-07 
7032 2223 0 2.14471e-05 
4506 678 0 8.12365e-07 
3817 7735 0 2.29195e-05 
3817 1408 0 1.29298e-05 
3817 2881 0 2.7881e-05 
1610 5735 0 3.49658e-06 
1610 7498 0 7.17787e-06 
1610 8741 0 6.68086e-07 
5411 8117 0 1.64336e-05 
8117 7735 0 2.22515e-05 
8117 1503 0 1.32134e-05 
8117 2673 0 1.70015e-06 
5735 1457 0 3.39936e-06 
5735 7469 0 9.57671e-07 
5115 33 0 9.68794e-07 
5115 4288 0 2.64054e-06 
9066 7989 0 5.82122e-06 
4770 3481 0 1.01358e-05 
7831 6195 0 8.76871e-06 
7831 1952 0 6.26022e-06 
7831 8517 0 6.25102e-06 
1503 6776 0 9.19764e-06 
3481 4250 0 4.75171e-06 
3481 8741 0 1.19072e-06 
3481 1952 0 7.25161e-06 
6195 8240 0 7.44492e-06 
6195 5520 0 2.35033e-06 
6195 3915 0 8.05076e-06 
4250 7733 0 3.42048e-06 
5520 8707 0 3.49552e-06 
5520 5355 0 2.07531e-06 
6954 6776 0 3.9012e-06 
6954 8420 0 1.09514e-05 
8494 249 0 3.51611e-06 
8494 8224 0 9.59893e-07 
7733 8952 0 2.92463e-06 
7733 7093 0 3.77945e-06 
8240 5355 0 5.29574e-06 
8224 8707 0 3.06533e-06 
249 9154 0 7.46594e-06 
249 317 0 3.6547e-06 
661 8364 0 2.00486e-07 
8707 9252 0 2.44086e-06 
8707 5921 0 2.87748e-06 
8707 308 0 2.56713e-06 
9154 3552 0 1.1902e-06 
9154 5043 0 2.82279e-06 
5365 1239 0 2.25751e-06 
5365 3457 0 3.81076e-07 
9252 8364 0 5.19754e-06 
7972 5043 0 6.01338e-06 
5069 6107 0 6.14515e-06 
3552 1117 0 5.46719e-06 
3552 7623 0 7.11584e-06 
9495 948 0 5.87545e-07 
9495 4190 0 7.91505e-06 
6393 7390 0 4.29408e-06 
6393 5306 0 4.66156e-08 
6393 5853 0 2.22647e-06 
948 6190 0 7.80346e-08 
948 2156 0 2.36254e-08 
948 8912 0 1.33425e-06 
948 5945 0 1.17552e-06 
9036 2156 0 1.2335e-06 
8066 9376 0 1.25895e-05 
5375 6458 0 9.08915e-06 
6458 4844 0 3.12222e-06 
1130 7916 0 1.98125e-06 
2881 1662 0 8.10444e-06 
2881 5033 0 2.53892e-05 
678 6528 0 8.93637e-07 
743 7011 0 6.50206e-06 
1457 1169 0 9.04771e-09 
2673 6776 0 3.9581e-07 
2673 7715 0 1.54855e-06 
4304 8394 0 8.64081e-06 
7989 1408 0 4.7231e-06 
7989 4694 0 7.85702e-06 
7989 1552 0 1.20635e-06 
8741 1537 0 6.90303e-06 
1952 6970 0 5.80373e-06 
6776 8420 0 4.89716e-06 
6776 3915 0 1.11159e-05 
317 3609 0 2.27072e-07 
3609 1014 0 8.43783e-06 
5355 3915 0 2.39964e-06 
5355 9641 0 5.6067e-06 
5355 5558 0 2.44773e-06 
1239 3790 0 4.97392e-06 
1239 7093 0 6.08987e-06 
7093 2741 0 6.76091e-06 
7093 3457 0 3.28237e-06 
7093 6970 0 2.47155e-06 
7093 2984 0 7.09752e-06 
8952 8364 0 2.08673e-06 
308 1117 0 3.95693e-06 
5043 5720 0 5.61257e-06 
5043 7623 0 2.42498e-06 
8364 7390 0 4.24313e-06 
8364 9641 0 3.76954e-06 
8364 4190 0 4.99103e-06 
3790 4578 0 5.40436e-06 
6107 7390 0 4.52201e-06 
6107 3457 0 7.19524e-06 
6107 2187 0 6.12898e-06 
1117 2156 0 3.24893e-06 
1117 5945 0 3.239e-06 
4578 6439 0 3.81251e-06 
2156 5945 0 1.2809e-07 
2156 245 0 5.12181e-07 
2156 1878 0 4.07372e-06 
3289 2373 0 1.16066e-06 
3289 2327 0 3.74729e-06 
3289 832 0 1.91497e-06 
2019 6613 0 1.18725e-06 
5033 2751 0 2.08193e-05 
1199 271 0 2.26896e-07 
7498 6528 0 7.08898e-06 
7498 2775 0 3.01655e-06 
7011 4288 0 3.81757e-06 
7011 517 0 4.59564e-06 
4288 8517 0 1.92374e-06 
4288 4612 0 4.95006e-06 
7469 2775 0 1.13353e-05 
8517 6483 0 5.53507e-06 
8517 1039 0 3.03922e-06 
4694 8420 0 1.11696e-05 
4694 1014 0 3.14391e-06 
4694 3829 0 1.19704e-05 
1537 4387 0 7.95385e-06 
1039 4387 0 1.0093e-05 
1039 3950 0 7.65046e-06 
3915 5921 0 3.38979e-06 
3915 6483 0 7.64143e-06 
8420 1961 0 1.11914e-05 
1014 5135 0 5.33137e-06 
1014 6441 0 1.55601e-06 
6970 2741 0 9.99745e-06 
6970 8824 0 6.0046e-06 
5921 1961 0 6.89821e-06 
5921 13 0 6.47767e-06 
2741 3950 0 9.3579e-06 
2741 5558 0 9.25113e-06 
5720 5135 0 4.55072e-06 
5720 6441 0 7.18811e-06 
5135 8304 0 3.20274e-06 
5558 9641 0 9.31546e-06 
5558 3510 0 7.30937e-06 
5558 8961 0 9.45421e-06 
9641 6573 0 5.31672e-06 
9641 13 0 7.81371e-06 
3457 3510 0 8.26906e-06 
3457 7997 0 7.63154e-06 
3457 9317 0 2.96727e-06 
6573 4190 0 6.31813e-06 
6573 324 0 5.36661e-06 
7623 8304 0 3.99076e-06 
7623 1719 0 5.54858e-06 
7623 245 0 3.25421e-06 
9317 2373 0 3.25796e-06 
9317 2187 0 2.39302e-06 
2187 5853 0 6.3599e-06 
2187 6641 0 7.01371e-06 
2187 2021 0 6.11329e-06 
4190 5853 0 7.535e-06 
4190 2021 0 6.73094e-06 
5945 2980 0 3.10968e-06 
245 6613 0 2.88981e-07 
245 4574 0 4.76773e-06 
2373 5423 0 1.94997e-06 
5853 2980 0 6.78528e-07 
5853 2965 0 1.16364e-05 
1878 3399 0 1.50875e-06 
1878 7005 0 4.27821e-06 
1878 4574 0 1.48935e-06 
6613 1637 0 7.62535e-07 
2965 5707 0 7.40761e-06 
4844 5816 0 7.2645e-06 
6528 8150 0 1.17995e-05 
6528 8882 0 8.19402e-07 
6218 2775 0 1.10478e-05 
6218 517 0 8.09816e-06 
517 1685 0 5.13601e-06 
517 4909 0 4.32609e-06 
1395 4395 0 3.40689e-06 
2775 8150 0 1.00217e-05 
7425 6060 0 7.2394e-06 
3426 5524 0 2.35533e-07 
4387 6239 0 6.61262e-06 
4387 8233 0 6.04807e-06 
4612 2994 0 9.27712e-06 
4612 7803 0 5.75804e-06 
3829 7803 0 6.64393e-06 
3829 1742 0 5.48535e-06 
3829 7657 0 1.26536e-05 
6483 3950 0 7.17436e-06 
6483 6604 0 1.06171e-05 
1309 5961 0 8.67176e-07 
7803 1961 0 3.9643e-06 
7803 789 0 2.5833e-06 
3950 277 0 4.42336e-06 
3950 7233 0 6.76201e-06 
1961 13 0 1.1797e-06 
6441 9023 0 1.573e-06 
6441 7586 0 5.86827e-06 
277 1054 0 1.56805e-06 
277 3113 0 3.19432e-06 
13 4260 0 9.91933e-06 
3510 44 0 2.74733e-06 
3510 222 0 6.34522e-06 
4260 8772 0 2.80276e-06 
4260 5587 0 9.0395e-06 
7997 4793 0 7.5547e-06 
7997 6096 0 1.44836e-07 
6722 324 0 1.33658e-06 
6722 4049 0 1.95446e-06 
6641 8961 0 5.00635e-06 
6641 4793 0 1.27103e-05 
6641 3430 0 6.79911e-06 
6641 1519 0 1.18673e-05 
8961 3113 0 3.98587e-06 
8961 2021 0 1.23708e-05 
324 2646 0 4.43251e-06 
752 2646 0 4.79908e-06 
2021 8103 0 6.63299e-07 
2021 5707 0 1.65123e-05 
2021 402 0 4.48879e-06 
3399 8103 0 2.3494e-06 
3399 5707 0 2.51925e-06 
4092 3430 0 2.96856e-06 
6247 5816 0 4.14433e-06 
6247 7068 0 1.02724e-05 
6446 3740 0 2.15343e-06 
4909 2893 0 5.06247e-06 
4909 9875 0 7.31066e-06 
8150 2893 0 4.8873e-07 
8150 6239 0 3.2946e-06 
8150 8882 0 2.66659e-06 
8150 7172 0 1.45081e-05 
2751 4948 0 3.24038e-05 
2751 5254 0 1.27799e-05 
3038 6239 0 1.13889e-05 
4395 578 0 9.09507e-06 
6239 5736 0 6.60102e-06 
6239 504 0 5.88113e-06 
8233 5524 0 4.66701e-06 
7 5961 0 2.28466e-06 
8161 44 0 6.05292e-06 
8161 5736 0 5.47213e-06 
8161 5020 0 7.53245e-06 
5961 6604 0 2.63969e-06 
5961 7233 0 4.32858e-06 
9023 8580 0 6.00381e-06 
222 5667 0 7.92315e-06 
44 7233 0 2.80707e-06 
7233 9731 0 1.19017e-05 
7233 1519 0 1.02482e-05 
7233 2133 0 9.49986e-06 
1054 9731 0 1.96256e-07 
6096 4793 0 4.07067e-06 
1519 3113 0 4.85495e-06 
1519 402 0 4.59348e-06 
3113 8103 0 4.35518e-06 
4793 1007 0 4.44409e-06 
4793 1460 0 1.17784e-05 
8103 4049 0 4.12956e-07 
2646 4574 0 5.03405e-06 
3430 3266 0 4.04115e-06 
3266 4130 0 2.09738e-06 
3266 6760 0 1.75193e-06 
5707 3500 0 1.55318e-05 
4574 4946 0 7.64583e-06 
4574 2799 0 6.6582e-06 
4946 3500 0 9.18329e-06 
4946 2120 0 1.82362e-06 
3500 1324 0 8.47314e-06 
7918 6368 0 1.61931e-05 
5254 4421 0 1.44836e-05 
8882 5524 0 3.43203e-06 
7172 3803 0 3.66674e-06 
7172 504 0 5.95467e-07 
6060 6141 0 3.17276e-05 
5524 6389 0 2.12071e-07 
4644 6604 0 5.8898e-06 
4644 5734 0 4.6397e-06 
5736 6063 0 1.92725e-06 
5736 7002 0 5.6317e-06 
6604 8622 0 9.50532e-06 
7657 7586 0 3.75957e-06 
7657 3937 0 8.70711e-06 
8622 7622 0 8.06522e-06 
8622 7696 0 2.33151e-06 
8622 725 0 5.13327e-06 
5667 7622 0 9.03403e-06 
7622 2133 0 4.19399e-06 
7622 7802 0 7.21483e-06 
7586 6095 0 7.09011e-06 
5530 2133 0 3.87219e-06 
2133 7516 0 2.29908e-06 
2133 725 0 8.01534e-06 
9731 6095 0 1.30074e-05 
6095 4049 0 5.07036e-06 
6095 2997 0 1.04326e-05 
4049 7169 0 3.49556e-06 
4049 6030 0 2.67409e-06 
4049 3 0 1.06338e-06 
5587 6702 0 8.04396e-06 
5587 2457 0 6.128e-06 
6702 4611 0 7.75704e-06 
1007 402 0 2.8943e-06 
1007 7516 0 2.46781e-06 
402 4790 0 5.38957e-06 
1460 6959 0 4.24289e-06 
1460 6760 0 5.55939e-06 
6030 1324 0 7.18757e-06 
6030 1950 0 5.40051e-06 
1155 4430 0 1.75587e-06 
1324 3010 0 2.40149e-06 
1324 9110 0 6.57539e-06 
2799 4272 0 7.42982e-06 
1933 1894 0 8.3769e-06 
1933 4272 0 7.88894e-06 
2120 4272 0 3.93168e-07 
7068 7047 0 6.6511e-06 
7068 6785 0 7.08999e-06 
6141 6048 0 7.3014e-06 
7047 6389 0 2.67597e-06 
3803 5734 0 9.14403e-06 
6389 7079 0 2.49454e-06 
578 7947 0 6.18578e-06 
1636 3937 0 3.58087e-06 
7002 7696 0 3.68976e-06 
7002 674 0 2.30867e-06 
7002 2435 0 6.09487e-06 
8125 3968 0 9.18672e-06 
3937 2075 0 8.39041e-07 
3937 3582 0 6.25332e-06 
7696 2220 0 6.77369e-06 
7696 7159 0 1.05258e-05 
7696 725 0 8.46438e-06 
725 1707 0 1.07616e-05 
2220 3705 0 4.22462e-06 
2220 3826 0 5.61211e-07 
4947 3039 0 9.98667e-06 
4947 8730 0 7.05629e-06 
4947 7840 0 2.7198e-06 
5998 9482 0 2.8201e-06 
7477 7565 0 8.17238e-08 
7802 4535 0 8.51209e-06 
7802 1707 0 6.54775e-06 
2997 6586 0 6.89193e-06 
2997 7463 0 6.33628e-06 
6586 4156 0 1.83896e-06 
6586 9702 0 1.80617e-06 
7516 4535 0 6.73572e-07 
7516 8968 0 3.82564e-06 
2457 9702 0 5.34072e-06 
2457 9475 0 8.00551e-06 
7565 6959 0 2.26165e-06 
7565 4535 0 7.49647e-06 
4535 7608 0 1.04053e-05 
9475 3 0 4.40339e-06 
9475 9135 0 8.23101e-06 
6959 4430 0 4.25727e-06 
4790 1950 0 1.18487e-06 
4790 1794 0 3.67759e-06 
6760 3681 0 5.67691e-06 
6760 7267 0 4.67636e-06 
1794 1872 0 2.87662e-06 
3010 6919 0 1.84145e-06 
3010 6268 0 1.91326e-06 
4430 9082 0 4.57933e-06 
4272 6919 0 1.10109e-05 
6785 2911 0 8.99483e-06 
6785 2860 0 7.49811e-06 
1161 637 0 6.64575e-06 
1161 674 0 2.29429e-07 
6048 8121 0 8.33541e-06 
637 7159 0 6.92793e-06 
637 5713 0 6.42397e-06 
7159 3096 0 4.9197e-08 
7079 9482 0 1.98489e-06 
7079 1313 0 1.87455e-06 
7947 3104 0 2.33665e-06 
7947 1579 0 3.83031e-06 
9482 2435 0 4.29876e-06 
8730 3582 0 1.14292e-06 
8730 8293 0 2.93169e-06 
7840 5962 0 5.23138e-06 
1707 7569 0 1.16211e-05 
1707 5061 0 7.52657e-06 
3826 4559 0 8.17672e-06 
3826 4169 0 2.21119e-06 
4040 1813 0 3.21512e-06 
4040 7463 0 8.46776e-06 
4559 1950 0 1.02375e-05 
7463 2917 0 7.58863e-06 
7463 5595 0 4.50538e-06 
7463 5116 0 6.67187e-06 
1950 9135 0 7.01525e-06 
1950 8968 0 2.04589e-06 
1950 8896 0 4.21323e-06 
9702 4611 0 3.26996e-06 
9702 9629 0 4.07675e-06 
7267 5768 0 2.74629e-06 
7608 8968 0 3.60224e-06 
7608 5768 0 4.59492e-06 
7608 7315 0 1.29594e-05 
9135 9110 0 1.04717e-05 
4728 6919 0 9.01434e-06 
4728 2917 0 8.81914e-06 
9629 6919 0 4.16382e-06 
9629 6876 0 1.94775e-06 
6919 2430 0 2.75161e-06 
9110 9119 0 1.24944e-05 
1872 7315 0 7.97983e-06 
5713 2671 0 1.23165e-05 
5713 2402 0 4.18326e-08 
7683 6753 0 1.52934e-06 
3104 3582 0 6.59968e-06 
3104 5962 0 7.58675e-06 
3104 4886 0 3.57161e-06 
3096 3968 0 9.17985e-06 
3096 7992 0 4.18918e-06 
3096 7492 0 8.21145e-06 
3582 7070 0 7.188e-06 
3582 4838 0 4.13514e-06 
2435 4169 0 5.19509e-06 
2435 3273 0 1.01186e-05 
2435 8254 0 3.98536e-06 
3968 8293 0 6.16625e-06 
4169 7464 0 9.25866e-06 
4169 7929 0 2.27962e-06 
8293 3841 0 4.00483e-06 
7070 3841 0 9.78033e-06 
7070 1618 0 1.23078e-06 
7569 8254 0 1.81759e-06 
7569 9666 0 1.10009e-05 
7569 6128 0 8.49892e-07 
3841 7949 0 4.01103e-06 
3841 8019 0 6.93454e-06 
2836 9103 0 1.22638e-06 
9103 8968 0 3.46538e-06 
9103 4362 0 3.81972e-06 
9103 7948 0 1.83029e-06 
4774 8968 0 4.79325e-06 
4774 5768 0 9.03084e-07 
2917 6421 0 7.42378e-06 
2917 8019 0 3.75015e-06 
7352 6689 0 1.43677e-06 
5768 4477 0 2.99221e-06 
5768 7420 0 1.78128e-06 
8968 8896 0 7.19388e-06 
6421 8896 0 8.15466e-06 
5116 7436 0 8.9275e-06 
5116 837 0 3.95477e-06 
8896 5032 0 7.98536e-06 
8896 8166 0 8.30108e-06 
2823 7315 0 1.46627e-06 
2823 1003 0 1.02347e-06 
2823 3611 0 7.83786e-07 
7315 5032 0 8.19767e-06 
7315 9082 0 5.0595e-06 
5032 9119 0 1.16573e-05 
5032 7426 0 5.8955e-06 
2430 1258 0 3.19999e-06 
2430 7436 0 3.19442e-06 
6876 7436 0 1.8769e-06 
6876 1484 0 2.3628e-06 
6876 4689 0 4.21044e-06 
9082 313 0 3.4677e-06 
9119 3689 0 1.80392e-06 
2967 3450 0 2.49271e-06 
6570 5497 0 6.26506e-06 
5497 8704 0 8.53303e-06 
3273 1364 0 1.66742e-05 
3273 658 0 1.76071e-06 
4274 8254 0 3.66828e-06 
7492 8254 0 3.07997e-06 
1148 5903 0 6.23935e-06 
1148 7464 0 6.68945e-06 
5903 8704 0 2.12545e-06 
4838 3243 0 6.32344e-06 
4838 9420 0 5.93957e-06 
8254 9666 0 5.6564e-06 
8254 7929 0 3.1163e-06 
7464 4362 0 3.14989e-06 
7464 8806 0 4.41722e-06 
1618 5595 0 5.37133e-06 
1618 6893 0 5.42066e-06 
1618 3642 0 6.51819e-06 
3243 6689 0 3.53786e-06 
3243 8602 0 1.66665e-06 
7929 5061 0 3.43597e-06 
7929 4362 0 4.03984e-06 
7929 2482 0 1.20968e-06 
7929 1931 0 3.99107e-06 
4362 7949 0 2.66946e-06 
4362 1931 0 5.79612e-06 
6128 4477 0 1.08441e-06 
6128 8285 0 2.06932e-06 
5061 3259 0 5.13551e-06 
5061 4525 0 1.01156e-05 
8019 2109 0 3.736e-06 
5595 6689 0 7.89926e-06 
5595 9324 0 4.2988e-06 
5595 837 0 1.51185e-06 
6689 858 0 1.19683e-06 
6689 9769 0 1.20199e-06 
7420 3259 0 3.24869e-06 
3666 8166 0 1.41434e-06 
8166 3611 0 5.91118e-06 
8166 7270 0 6.4732e-06 
8166 7391 0 7.75043e-06 
7436 4689 0 9.37347e-06 
7436 1995 0 3.5197e-06 
3611 313 0 7.06515e-06 
6140 4675 0 5.69367e-07 
313 3779 0 8.27588e-06 
7426 1570 0 2.95813e-06 
7426 3729 0 4.91255e-06 
3689 3162 0 9.16716e-07 
5272 1625 0 3.63423e-05 
1849 9074 0 1.8095e-05 
9074 1364 0 9.88234e-06 
2402 4696 0 2.77112e-06 
4696 8403 0 5.72313e-06 
4696 5436 0 3.96647e-06 
8704 8403 0 1.37938e-05 
8403 4873 0 9.85573e-06 
658 6671 0 3.3231e-06 
4873 2140 0 1.26404e-06 
4873 9171 0 8.81044e-07 
9420 2904 0 4.66052e-06 
8602 7433 0 6.74803e-07 
8602 4424 0 1.03632e-06 
9666 4525 0 7.59143e-06 
8806 6893 0 6.74867e-06 
8806 8656 0 1.46459e-06 
8806 1575 0 5.48118e-06 
4525 1931 0 6.24651e-06 
4525 2806 0 9.83381e-06 
9324 5014 0 5.68144e-06 
6026 1147 0 2.90114e-06 
6026 3642 0 5.66474e-06 
6026 4424 0 4.04776e-07 
1931 9303 0 1.02996e-05 
9769 3642 0 3.96887e-06 
9769 7866 0 1.66148e-06 
3259 9303 0 2.49824e-06 
9043 9303 0 6.79733e-06 
9043 7828 0 6.39772e-06 
2109 837 0 5.49873e-06 
2109 2041 0 3.83088e-06 
2109 7828 0 6.23845e-06 
2109 7866 0 8.18819e-06 
2041 1570 0 2.56626e-06 
1995 4742 0 4.34302e-06 
1995 7483 0 2.10658e-06 
4689 4742 0 5.99221e-06 
4689 2630 0 6.068e-06 
4689 4361 0 8.72783e-06 
4689 3514 0 9.22641e-06 
2202 3729 0 1.92174e-06 
6965 1625 0 2.53096e-05 
7465 4188 0 2.12191e-05 
7465 2073 0 3.88347e-05 
7465 4280 0 1.49561e-05 
9811 5145 0 1.82217e-06 
9811 9040 0 3.78565e-06 
4768 5436 0 5.11424e-06 
1285 5009 0 9.09888e-06 
1285 2663 0 5.33036e-06 
1285 4206 0 9.22463e-06 
5009 6754 0 3.2534e-06 
5009 525 0 1.19656e-06 
2140 2482 0 8.32387e-06 
2140 5291 0 4.64302e-06 
2140 1251 0 4.85286e-06 
399 3642 0 7.99919e-06 
6671 5145 0 4.11481e-06 
6671 2035 0 5.11504e-06 
2806 1454 0 8.28124e-06 