ITEM: TIMESTEP
20000000
ITEM: NUMBER OF ENTRIES
6458
ITEM: BOX BOUNDS ff ff ff
-0.01 0.45
-0.15 0.15
-0.08 0.1
ITEM: ENTRIES c_ppc[1] c_ppc[2] c_ppc[3] c_ppc[4] 
3303 2195 0 0.000175973 
8000 6944 0 5.16178e-05 
6944 654 0 0.000119126 
260 1363 0 4.4559e-05 
1363 2616 0 8.40368e-05 
719 7958 0 1.79254e-05 
1457 439 0 0.000453858 
1457 1326 0 0.000190648 
439 1326 0 0.000476398 
530 5770 0 7.14171e-05 
5770 1326 0 5.12316e-05 
3798 1085 0 0.000441839 
9550 3956 0 0.000149297 
1085 547 0 0.000296438 
3956 3490 0 0.0001533 
3298 8867 0 0.00013524 
3298 6357 0 7.10401e-05 
809 8663 0 5.16887e-06 
9272 4167 0 1.53784e-05 
4999 4167 0 1.23306e-06 
4167 9306 0 4.54314e-07 
9099 3025 0 4.42256e-06 
9880 9901 0 2.88746e-05 
2027 5760 0 3.21166e-06 
3025 7047 0 9.9849e-06 
4714 9642 0 2.42062e-05 
9642 6112 0 2.60331e-05 
9843 4566 0 1.05608e-05 
2936 6135 0 8.79931e-06 
3793 2443 0 9.82733e-06 
1230 9787 0 1.18979e-06 
1025 6978 0 1.47214e-05 
1025 4490 0 3.13708e-05 
6931 3790 0 1.24442e-05 
7457 4566 0 7.92147e-06 
7422 1220 0 3.0298e-06 
6978 5887 0 1.26822e-05 
1957 446 0 1.16347e-05 
6916 327 0 8.89797e-06 
6916 2939 0 2.04959e-05 
6916 1220 0 5.59588e-06 
3640 446 0 2.20776e-05 
446 3625 0 2.05911e-05 
7986 2939 0 1.74561e-05 
7986 9540 0 8.72327e-06 
7986 2110 0 4.62414e-07 
4559 5887 0 5.20899e-06 
4559 1220 0 1.40493e-05 
5887 5705 0 7.80734e-06 
1719 9540 0 3.06595e-06 
9145 3321 0 1.87786e-06 
9145 5483 0 3.44735e-06 
9145 2277 0 1.24086e-05 
3321 2251 0 3.79894e-06 
4456 5705 0 1.7164e-06 
3625 7962 0 5.71208e-06 
3625 258 0 4.2752e-06 
7605 3379 0 2.42512e-06 
9498 7369 0 8.80966e-07 
4150 5865 0 1.0745e-06 
905 5610 0 3.94187e-06 
5483 8505 0 2.53856e-06 
8505 2801 0 4.65389e-06 
598 204 0 3.81055e-06 
598 9119 0 5.04003e-06 
3283 211 0 1.95029e-06 
2801 4153 0 2.94471e-06 
3391 4565 0 2.32804e-06 
3391 8439 0 1.26145e-05 
2057 5353 0 4.13699e-06 
2057 4425 0 9.67877e-07 
2057 8919 0 2.19352e-06 
4153 1388 0 3.1163e-06 
4565 2905 0 1.55165e-06 
4565 5121 0 4.94453e-06 
4565 4875 0 2.55407e-06 
204 6323 0 2.76214e-06 
1076 8919 0 3.86293e-06 
211 5961 0 1.91528e-06 
211 2238 0 3.47344e-06 
211 3499 0 9.06959e-06 
5961 1316 0 9.4279e-06 
8162 4435 0 1.35934e-06 
5353 7358 0 3.99875e-06 
5353 2782 0 3.37742e-06 
2238 7223 0 7.17314e-07 
2238 3023 0 7.88457e-06 
3104 1388 0 3.78499e-06 
3104 3023 0 6.96356e-06 
3104 4283 0 6.6226e-06 
1388 3853 0 7.99157e-06 
1388 8991 0 2.90187e-07 
1388 8984 0 8.20458e-06 
6323 7358 0 1.35505e-05 
7358 1589 0 1.53385e-05 
2782 1589 0 4.17181e-06 
3853 3023 0 1.13558e-06 
3853 607 0 8.35016e-06 
8991 9105 0 1.07048e-06 
8991 6694 0 2.41786e-06 
1589 7223 0 8.75455e-06 
1589 7359 0 1.67611e-05 
1589 8615 0 2.28064e-06 
7223 3023 0 7.68602e-06 
7223 3310 0 2.64609e-06 
3023 607 0 6.27624e-06 
9018 3110 0 1.34279e-06 
9105 1987 0 1.17117e-07 
9105 666 0 2.49526e-06 
607 2845 0 5.52246e-06 
607 5188 0 7.21269e-06 
7164 1830 0 1.24199e-05 
7164 8607 0 9.28564e-06 
7164 8615 0 1.7397e-05 
7359 8438 0 1.75583e-05 
7359 6144 0 1.27767e-06 
2845 8639 0 5.72155e-06 
2845 303 0 8.06179e-06 
666 6734 0 5.39849e-06 
1830 5518 0 1.19404e-05 
8607 786 0 5.93475e-06 
8607 544 0 7.45335e-06 
8607 8487 0 3.82995e-06 
8438 882 0 5.43254e-06 
8438 544 0 6.19894e-06 
8438 1274 0 1.48093e-05 
882 8639 0 4.98365e-06 
8639 6734 0 6.07276e-06 
8639 5828 0 7.99062e-06 
8639 724 0 5.83584e-06 
8639 5188 0 5.77528e-06 
6734 8751 0 2.07818e-07 
5518 786 0 4.91528e-06 
5518 5970 0 9.9819e-06 
786 2075 0 6.75696e-06 
786 7551 0 2.16543e-06 
786 6617 0 2.74003e-06 
544 1495 0 1.00058e-05 
1274 5828 0 6.25298e-06 
1274 1495 0 5.50459e-06 
1274 3781 0 1.33673e-05 
1274 7930 0 6.98962e-07 
5828 3781 0 2.82168e-06 
5828 2970 0 4.32317e-06 
5828 7930 0 1.38951e-06 
724 8771 0 5.64601e-07 
724 7421 0 5.48862e-06 
8771 7242 0 1.08832e-06 
3781 2970 0 9.0999e-07 
2970 7421 0 3.02553e-07 
7421 2823 0 1.99978e-06 
7661 2221 0 1.55886e-05 
9306 9860 0 2.28998e-05 
9306 6666 0 2.06641e-05 
1072 6233 0 2.39254e-05 
4566 8456 0 3.10133e-05 
2443 1410 0 1.33756e-05 
327 9787 0 1.50493e-05 
2939 1410 0 2.06623e-05 
2939 2992 0 6.72391e-06 
1220 2992 0 2.8525e-05 
2110 2277 0 5.73836e-06 
2110 9804 0 1.67564e-05 
5705 5284 0 5.51842e-06 
2277 8484 0 8.24898e-06 
2251 1422 0 2.8543e-06 
2251 8484 0 8.41251e-06 
2251 1863 0 2.43717e-06 
9589 1537 0 1.55275e-05 
5865 6524 0 6.85466e-06 
5865 8199 0 2.25031e-06 
258 5284 0 5.81019e-06 
5610 2957 0 8.85198e-06 
5610 8199 0 1.10213e-05 
5143 7451 0 4.63214e-06 
5143 426 0 6.03951e-07 
3315 3499 0 1.37489e-05 
3315 1316 0 1.48633e-05 
3315 426 0 2.27923e-05 
8439 6238 0 1.85498e-05 
2957 2811 0 8.95006e-06 
5121 5162 0 7.99624e-06 
3499 4283 0 5.04648e-06 
1316 8984 0 7.77477e-06 
1316 4283 0 1.40824e-06 
4875 4435 0 3.1597e-06 
4875 2289 0 7.2121e-07 
9322 9185 0 4.60473e-06 
8919 9185 0 5.20132e-06 
8919 8303 0 3.73014e-06 
8984 4435 0 6.73184e-06 
8984 8224 0 2.21687e-06 
8984 1978 0 7.36759e-06 
9185 3310 0 1.13548e-06 
9185 991 0 7.09911e-06 
4435 3110 0 3.29869e-06 
3310 4730 0 4.04875e-06 
3310 8804 0 4.58267e-06 
3310 9455 0 1.53472e-06 
8432 2693 0 1.10768e-07 
5253 5237 0 1.32285e-06 
5253 6144 0 1.03288e-06 
8615 991 0 1.46732e-05 
8615 8804 0 6.06161e-06 
5359 7640 0 5.18914e-06 
6144 5199 0 3.96854e-06 
2659 5188 0 1.86075e-06 
2659 6352 0 2.37571e-06 
5188 5237 0 6.53904e-06 
5188 5003 0 1.64702e-06 
5188 2316 0 4.60378e-06 
303 5614 0 5.11843e-06 
303 2337 0 1.3783e-06 
303 6155 0 1.19409e-05 
8487 4755 0 2.12775e-06 
5614 2316 0 9.20426e-07 
5614 6532 0 6.92909e-07 
2337 7242 0 1.4781e-06 
2337 710 0 2.79816e-06 
4003 6431 0 5.36208e-07 
6431 7142 0 2.84079e-06 
6431 6352 0 3.04508e-06 
7930 2316 0 2.61263e-06 
7930 3543 0 1.28813e-06 
7930 3827 0 1.89283e-06 
7242 3185 0 1.34035e-06 
6617 4375 0 2.39496e-06 
3715 7954 0 2.51677e-05 
8692 9861 0 0.000113317 
1963 7459 0 1.56902e-05 
6432 9912 0 5.2659e-07 
9912 2476 0 8.8869e-06 
9901 1277 0 9.37062e-06 
2476 3222 0 6.81031e-06 
1100 837 0 3.61036e-07 
1100 4281 0 2.46407e-05 
8047 2886 0 2.06966e-06 
4490 3539 0 9.42485e-06 
1410 4049 0 1.7013e-05 
4072 4441 0 1.01591e-05 
4072 117 0 1.54012e-05 
9661 7610 0 3.7867e-06 
8484 3967 0 5.51789e-06 
1384 5329 0 5.97669e-06 
6524 2741 0 1.65321e-05 
8199 7771 0 8.46614e-06 
2811 426 0 3.00753e-06 
2811 8303 0 5.85781e-06 
2811 6607 0 1.19207e-05 
8303 2713 0 2.75629e-06 
4283 8224 0 3.45534e-06 
991 4460 0 1.26884e-05 
991 6548 0 2.70395e-07 
3110 651 0 2.74033e-06 
8804 7920 0 3.46648e-06 
8804 5199 0 2.6936e-06 
5237 651 0 6.66757e-07 
5237 6661 0 1.91048e-06 
5237 2658 0 7.04094e-06 
6155 8677 0 8.97418e-06 
8055 1319 0 1.52644e-06 
8055 8677 0 5.40159e-06 
4755 7640 0 3.7117e-06 
4755 6084 0 4.82348e-06 
4755 9047 0 6.59434e-07 
5003 364 0 2.42557e-06 
7640 2959 0 3.03118e-06 
6352 5931 0 3.18757e-06 
2316 8528 0 5.08528e-06 
3450 1412 0 1.74123e-05 
9468 9861 0 4.33618e-05 
8676 5337 0 1.29366e-05 
5337 1633 0 2.76279e-06 
992 4280 0 1.30671e-05 
1962 9232 0 2.43107e-05 
8456 8164 0 1.65506e-05 
9921 3327 0 7.2613e-06 
6745 117 0 1.59835e-06 
9804 2012 0 4.25034e-05 
5329 9219 0 2.06812e-05 
7771 7451 0 8.72801e-06 
7771 2012 0 1.04446e-05 
1863 426 0 1.05677e-05 
5284 9492 0 2.06563e-06 
7451 426 0 9.34135e-06 
7451 6182 0 1.1726e-05 
7451 2731 0 1.75255e-05 
8928 6238 0 2.41902e-05 
8928 3462 0 8.27606e-06 
8928 1715 0 2.61567e-05 
1728 6238 0 2.45119e-06 
1728 5162 0 1.05999e-05 
1728 9557 0 1.90519e-05 
1001 9582 0 7.73161e-06 
1001 3463 0 1.4166e-05 
6182 7616 0 1.58594e-05 
6238 6391 0 3.24643e-05 
9582 3845 0 2.33984e-06 
9582 1660 0 2.24375e-07 
3462 2713 0 8.48228e-06 
3462 5154 0 6.56468e-06 
9665 5162 0 9.31598e-06 
9665 8224 0 9.1894e-06 
9665 9763 0 4.52274e-06 
5162 2289 0 4.65067e-06 
7616 1821 0 1.40069e-05 
2713 8224 0 9.65438e-06 
2713 1145 0 9.10088e-06 
2713 1083 0 8.81304e-06 
2713 9149 0 4.44165e-06 
2289 402 0 9.66636e-06 
2289 8177 0 3.43586e-06 
8981 4460 0 1.00211e-06 
1821 4460 0 1.48471e-05 
1821 1660 0 1.98855e-06 
1821 1924 0 1.05558e-05 
8224 1979 0 2.8226e-06 
4460 5041 0 1.00478e-05 
4460 8936 0 1.29184e-06 
9455 1145 0 1.54153e-07 
9455 1083 0 3.32208e-06 
1145 2361 0 8.62614e-06 
1145 1083 0 3.14796e-06 
9676 1965 0 7.18355e-07 
402 8677 0 1.54766e-05 
7920 9228 0 2.5403e-06 
7920 2173 0 3.30199e-06 
2361 5199 0 5.24599e-06 
2361 9228 0 2.23664e-07 
2361 81 0 2.67961e-06 
8677 3267 0 1.65719e-05 
6084 9047 0 2.81462e-06 
5199 8118 0 2.94228e-06 
5199 2658 0 4.66122e-06 
2658 81 0 6.8593e-06 
2658 5931 0 5.05437e-06 
2658 6988 0 2.10336e-06 
2658 6864 0 2.34356e-06 
2658 3964 0 2.61215e-06 
651 9506 0 2.96509e-06 
8691 7744 0 3.35975e-06 
9047 5931 0 2.55002e-06 
5931 3999 0 3.36e-06 
364 3267 0 2.87383e-06 
364 290 0 8.26479e-07 
710 6532 0 5.08865e-06 
710 3267 0 1.23832e-05 
6114 7744 0 2.86682e-07 
6114 3427 0 9.76575e-07 
6661 3827 0 2.81796e-06 
6661 6988 0 3.76004e-06 
6661 6050 0 3.37046e-06 
2959 3630 0 5.34674e-07 
2959 3282 0 2.34351e-06 
3827 819 0 9.93825e-07 
3827 6662 0 2.5954e-06 
8528 8054 0 5.74737e-06 
3630 3430 0 1.91988e-06 
819 6662 0 3.01192e-07 
3185 6075 0 3.84099e-06 
4375 1244 0 1.34274e-06 
6513 4733 0 1.78629e-07 
4733 1820 0 2.81753e-07 
2886 2998 0 1.09909e-05 
9232 3405 0 7.71098e-06 
9232 4286 0 2.02126e-05 
3327 9677 0 1.00829e-05 
4049 9493 0 7.96899e-06 
117 6538 0 8.10841e-06 
9677 6538 0 6.11257e-06 
2741 9493 0 1.27891e-05 
2731 1715 0 5.38616e-06 
2731 965 0 1.98835e-06 
8146 6985 0 1.16191e-05 
8146 5355 0 5.4972e-07 
5856 965 0 5.56739e-06 
1715 6607 0 1.80231e-05 
1715 6985 0 2.10868e-05 
6391 5163 0 2.58201e-05 
3845 965 0 5.35958e-06 
965 712 0 7.49711e-06 
6607 9745 0 3.72157e-06 
4812 4745 0 6.24514e-06 
9745 9149 0 6.90371e-06 
9149 5154 0 4.74024e-06 
4745 8837 0 3.56469e-06 
4745 2394 0 2.61561e-06 
8177 300 0 8.40278e-07 
8578 5041 0 2.93747e-06 
8578 5420 0 3.92937e-06 
9638 2173 0 3.02221e-07 
9638 6718 0 1.2928e-06 
1083 8117 0 1.0425e-05 
9763 1965 0 6.55451e-07 
9763 1979 0 7.75201e-07 
9763 6621 0 2.24505e-06 
9763 5286 0 6.40211e-06 
1965 1026 0 8.00592e-07 
1979 3802 0 6.28307e-06 
5041 3393 0 5.35597e-06 
9228 6864 0 1.7362e-06 
8936 8118 0 1.56183e-06 
81 6988 0 2.76885e-07 
81 3802 0 6.03207e-06 
9506 1249 0 8.32294e-06 
3393 8301 0 3.899e-06 
8118 5989 0 2.15742e-07 
3267 7332 0 1.35868e-05 
8165 7744 0 7.71627e-07 
8165 7837 0 2.28606e-06 
6988 7782 0 1.36703e-06 
6988 290 0 3.65155e-06 
7744 1891 0 2.38481e-06 
7837 6942 0 2.51405e-06 
7837 5989 0 2.23765e-06 
6050 3964 0 9.5016e-07 
6050 921 0 4.18112e-06 
3427 3282 0 3.55023e-06 
3427 6160 0 3.81797e-06 
6942 1244 0 3.55916e-06 
6942 3999 0 4.27254e-06 
6075 7332 0 4.92806e-06 
6075 5608 0 1.68012e-06 
3282 2134 0 4.1197e-06 
6662 3699 0 2.3656e-06 
6662 1730 0 2.96916e-07 
6662 4654 0 1.01243e-06 
8054 8179 0 5.89148e-06 
8054 3699 0 9.90692e-07 
8179 2639 0 7.60483e-06 
6784 88 0 1.43859e-05 
7471 1505 0 7.10287e-06 
2998 1991 0 7.69098e-06 
2998 6636 0 1.24329e-05 
1991 1692 0 6.85865e-06 
1991 4616 0 1.70022e-05 
1692 3719 0 6.32654e-06 
9493 2065 0 1.04938e-05 
6538 6037 0 2.18896e-06 
6985 6037 0 2.36501e-05 
9557 5163 0 5.29998e-05 
3463 7073 0 1.32479e-05 
5355 6785 0 1.29312e-06 
5355 6601 0 8.94787e-07 
5318 6785 0 7.16588e-06 
6601 2922 0 6.08459e-06 
2922 1480 0 1.28865e-05 
2922 238 0 3.68733e-06 
3429 2508 0 2.00205e-05 
4888 1924 0 3.92165e-06 
4888 7138 0 1.04353e-05 
5154 6785 0 1.04916e-05 
1924 8793 0 7.52998e-06 
8117 6718 0 4.3654e-06 
8117 4263 0 1.5891e-05 
8837 223 0 2.80143e-06 
8837 2394 0 7.245e-06 
2394 5286 0 7.17875e-06 
2394 6305 0 6.46685e-06 
2394 6301 0 6.38512e-06 
5379 6307 0 3.68513e-06 
5286 9773 0 2.13937e-06 
5286 7046 0 8.27128e-06 
5286 8268 0 3.43469e-06 
6760 5956 0 4.24764e-06 
2257 5511 0 1.89203e-06 
223 6864 0 3.03697e-06 
3802 7782 0 1.26302e-06 
3802 7046 0 9.92612e-07 
3802 4071 0 2.67389e-06 
1249 1026 0 1.05203e-05 
1249 6308 0 8.0654e-07 
6602 9095 0 2.08019e-06 
6602 6307 0 1.05957e-05 
6864 5989 0 4.47342e-06 
483 3964 0 3.16388e-06 
483 4071 0 2.52014e-06 
483 7098 0 2.12643e-06 
7782 5315 0 1.78995e-06 
5315 7332 0 2.15918e-07 
5315 7046 0 2.78827e-06 
5315 3050 0 2.67543e-06 
5315 7650 0 1.62983e-06 
8301 1891 0 3.84305e-06 
5989 9095 0 4.32879e-06 
5989 8290 0 3.36341e-07 
5989 4849 0 2.89861e-06 
3964 3999 0 4.16765e-06 
290 7332 0 9.43986e-06 
290 5608 0 5.12188e-07 
290 921 0 7.46118e-06 
7332 9579 0 5.43692e-06 
6160 9095 0 3.76561e-06 
6160 4017 0 1.21903e-06 
6160 516 0 7.81865e-07 
3999 4017 0 2.13798e-06 
3999 2249 0 3.16886e-06 
6183 5160 0 8.57699e-07 
6183 7844 0 3.47276e-06 
2249 4661 0 1.44093e-06 
3699 5236 0 3.86418e-06 
2134 7629 0 6.04411e-06 
2134 8390 0 3.07997e-06 
4654 6660 0 1.34288e-06 
4654 7844 0 2.17969e-06 
3241 1105 0 1.66657e-06 
9169 7860 0 5.76307e-05 
4616 6636 0 2.70343e-05 
4616 1130 0 1.78411e-05 
8096 2455 0 5.75567e-05 
7073 3397 0 1.10446e-05 
5163 8281 0 8.32765e-06 
6785 9282 0 1.17074e-05 
2508 2955 0 1.03244e-05 
9749 6301 0 3.90659e-06 
6305 2334 0 2.39249e-06 
6305 1 0 5.28628e-06 
8793 1556 0 3.33599e-06 
8793 2102 0 4.53803e-06 
2334 9773 0 7.06454e-06 
2334 1 0 4.28522e-06 
6718 4568 0 1.1115e-05 
9773 2595 0 8.64489e-06 
8965 661 0 8.36039e-07 
2642 8268 0 3.14465e-06 
2642 5511 0 6.42114e-06 
6308 3612 0 4.8938e-06 
6308 3957 0 1.78491e-06 
6307 661 0 7.34256e-06 
6307 1650 0 9.33167e-06 
7046 8362 0 5.78268e-06 
7046 8906 0 2.81033e-06 
4071 841 0 3.31384e-06 
5956 3659 0 5.26083e-06 
8290 5511 0 1.09747e-05 
4849 5075 0 3.43942e-06 
4849 5160 0 1.53788e-06 
7098 7899 0 2.93239e-06 
7650 1391 0 2.99613e-06 
1891 7629 0 4.36095e-06 
3132 5160 0 8.70437e-06 
9579 8170 0 2.41097e-06 
9579 6633 0 3.72242e-06 
9579 9206 0 1.47935e-07 
4017 3992 0 1.27783e-06 
4017 1638 0 2.0646e-06 
921 5236 0 6.00265e-06 
921 5160 0 5.38499e-06 
1391 5236 0 5.41268e-06 
7629 119 0 2.87241e-06 
7629 4267 0 4.13483e-06 
5236 8256 0 2.88709e-06 
5236 7632 0 2.27454e-06 
5236 3383 0 9.3694e-06 
8390 4661 0 1.83324e-06 
8390 6278 0 1.4233e-06 
7844 3915 0 1.86534e-06 
6722 7860 0 2.55451e-05 
1599 4451 0 1.96076e-05 
2065 2792 0 6.02799e-06 
9282 2455 0 2.20261e-06 
8281 3161 0 1.9758e-05 
3397 5588 0 1.6466e-05 
3161 2682 0 1.88019e-06 
3161 1 0 9.52991e-06 
3161 3779 0 4.74448e-06 
7138 8415 0 1.34708e-05 
7737 8032 0 2.20999e-06 
1 2773 0 2.83856e-06 
8157 9616 0 5.35771e-07 
4568 2102 0 3.21979e-06 
4568 8415 0 2.37728e-05 
6301 2217 0 1.80737e-05 
6301 2657 0 9.33257e-06 
4263 2217 0 2.94634e-05 
4263 1650 0 1.69128e-05 
1650 650 0 8.59483e-06 
5511 5075 0 9.18274e-08 
3957 7784 0 7.24697e-08 
4491 7863 0 8.58829e-07 
8906 1642 0 3.52249e-06 
8362 2931 0 5.90381e-06 
5075 650 0 5.01957e-06 
5075 1642 0 2.45114e-06 
1642 8461 0 2.09339e-06 
1642 5619 0 4.43711e-06 
8461 5557 0 2.37295e-06 
5471 3659 0 2.11966e-06 
5471 4267 0 3.3877e-06 
3659 4653 0 4.0163e-06 
3659 4123 0 6.65141e-06 
1638 9546 0 1.81757e-06 
1638 4123 0 4.13032e-06 
5160 7478 0 3.21873e-06 
7899 5557 0 5.43975e-06 
7899 7478 0 1.61551e-06 
4267 6278 0 1.11507e-06 
8256 7167 0 2.05345e-06 
6278 119 0 2.37532e-06 
6278 4208 0 4.11198e-06 
6278 7045 0 3.88879e-06 
4661 4208 0 1.06215e-06 
4661 3915 0 7.38048e-07 
3915 6961 0 2.20516e-06 
7632 239 0 3.62106e-06 
3383 2714 0 3.32753e-06 
2792 8370 0 0.000112517 
5799 9881 0 1.47381e-06 
4170 2721 0 9.12967e-06 
4404 1429 0 1.74333e-05 
3779 3841 0 5.36717e-05 
6590 3965 0 2.6462e-06 
2721 7892 0 1.1123e-05 
8415 5147 0 2.4126e-05 
8032 7428 0 8.16212e-06 
2102 8275 0 3.42505e-06 
2217 5019 0 2.66595e-05 
2217 6644 0 9.98556e-06 
2217 8061 0 2.54433e-05 
6644 2657 0 6.27052e-07 
6644 841 0 1.0595e-05 
2657 8111 0 8.88441e-06 
2657 2773 0 4.46805e-06 
9616 7863 0 3.1901e-06 
9616 2354 0 5.6384e-06 
8275 5689 0 8.48436e-06 
8275 5322 0 4.94745e-06 
5893 8061 0 9.58814e-06 
8111 5617 0 6.17556e-06 
8111 8399 0 3.99661e-06 
841 5636 0 1.05298e-06 
650 2353 0 3.70074e-06 
650 1966 0 8.43909e-06 
2931 1466 0 2.22377e-06 
2931 8669 0 5.39466e-06 
2931 4354 0 7.158e-06 
5619 1966 0 6.48127e-06 
5619 7478 0 7.60669e-06 
5619 2064 0 4.3282e-06 
5619 1577 0 2.94688e-06 
4123 4208 0 4.85064e-06 
7478 7167 0 4.13829e-06 
7478 1134 0 6.8322e-06 
1466 2171 0 3.57708e-06 
4208 5711 0 1.39626e-06 
4208 6961 0 6.06204e-06 
8633 239 0 4.50049e-06 
8633 5557 0 5.29656e-06 
8633 7034 0 5.962e-08 
2171 7526 0 6.13504e-06 
6961 7167 0 4.4946e-06 
6961 7603 0 1.36361e-07 
7167 5788 0 4.49026e-06 
8370 727 0 0.000107966 
9881 727 0 6.34691e-05 
3841 8027 0 2.16472e-05 
3841 3965 0 1.18215e-05 
5588 4408 0 1.89075e-06 
3965 5019 0 2.81957e-05 
3965 7148 0 1.13358e-05 
3965 6720 0 1.63204e-05 
7428 6720 0 1.11222e-05 
6185 461 0 7.10545e-06 
5019 1937 0 1.79461e-05 
2773 6720 0 7.27374e-06 
8061 7371 0 2.44546e-06 
8061 4622 0 1.13089e-05 
659 1741 0 1.48606e-05 
5690 5322 0 2.78101e-06 
5322 4225 0 8.37147e-06 
363 8399 0 2.56228e-06 
5689 5258 0 3.76771e-06 
5617 4622 0 5.37358e-06 
5617 8399 0 2.37141e-06 
5617 2064 0 5.05081e-06 
8669 2064 0 6.60614e-06 
8669 5768 0 7.25344e-06 
1966 5258 0 2.28086e-06 
1966 8442 0 3.63096e-06 
1966 4120 0 6.87484e-06 
2064 331 0 3.43413e-06 
2064 1577 0 3.7142e-06 
5557 5414 0 8.24209e-06 
5557 1577 0 1.58091e-06 
4354 5768 0 1.49863e-05 
4354 1032 0 3.62942e-06 
4354 4323 0 1.2375e-05 
8418 5711 0 2.72303e-06 
8418 7953 0 3.21768e-06 
1577 7034 0 1.79521e-06 
1577 9694 0 1.59012e-06 
1577 6827 0 4.15679e-06 
5711 7045 0 5.83907e-06 
5711 3786 0 1.3376e-06 
5711 7603 0 5.41327e-06 
1134 5246 0 7.13371e-06 
7526 4323 0 9.81622e-06 
7526 2220 0 1.34025e-05 
9391 1147 0 5.13391e-07 
5246 2220 0 6.41066e-06 
5246 5581 0 5.69491e-06 
2220 5496 0 1.41675e-06 
7734 4211 0 5.26901e-06 
7148 5147 0 5.64279e-06 
7148 1805 0 1.76035e-05 
8286 6720 0 7.85167e-06 
8286 6138 0 5.89761e-06 
5147 461 0 3.2194e-05 
5147 6768 0 1.7833e-05 
6720 7371 0 6.07245e-06 
1256 6330 0 1.92512e-06 
461 9323 0 3.547e-05 
461 5540 0 3.08897e-05 
461 1327 0 2.18258e-05 
7371 6502 0 3.55493e-06 
9323 9226 0 4.16796e-06 
5540 7116 0 8.18852e-06 
2655 6330 0 6.66712e-06 
4168 8442 0 2.14533e-06 
7116 9226 0 3.96269e-06 
4622 8442 0 2.55057e-06 
1741 7827 0 3.20798e-06 
1741 6744 0 5.08736e-06 
1741 7188 0 2.08882e-06 
4225 4542 0 4.43212e-06 
4225 4480 0 5.49396e-06 
4225 4617 0 4.599e-06 
5258 9552 0 3.8269e-06 
8442 1375 0 1.16229e-06 
6744 5414 0 6.6801e-06 
6744 8327 0 4.58221e-06 
4542 5564 0 7.22152e-07 
331 7718 0 2.19907e-06 
331 6453 0 3.72737e-06 
5768 1032 0 4.67365e-06 
5768 4234 0 1.58386e-05 
7953 5488 0 4.37386e-06 
4120 267 0 6.94479e-06 
5414 4323 0 7.05394e-07 
4323 7034 0 5.50327e-06 
267 7603 0 7.19276e-06 
7034 7179 0 5.96916e-06 
7603 1147 0 8.04066e-06 
7603 3945 0 1.39542e-06 
7603 6749 0 2.83355e-06 
344 1147 0 1.19213e-06 
344 492 0 1.11685e-06 
6138 1090 0 5.97314e-06 
6768 4347 0 2.53474e-05 
6768 8982 0 1.43003e-05 
1327 9226 0 7.24724e-06 
6502 9862 0 2.53694e-06 
9226 8835 0 1.16504e-06 
7827 7076 0 5.58736e-06 
979 4234 0 2.78212e-06 
4480 8835 0 6.30907e-06 
4480 6302 0 8.18887e-06 
9552 9681 0 1.16049e-06 
9552 3914 0 3.75652e-06 
7718 9694 0 2.95629e-06 
7718 4249 0 7.78271e-07 
6302 6453 0 7.15467e-06 
1831 4514 0 3.64647e-06 
5564 4613 0 3.63704e-07 
5564 5455 0 2.64565e-06 
6453 492 0 3.86702e-06 
6453 6827 0 8.17971e-06 
6453 1655 0 5.61161e-06 
9694 5531 0 5.07697e-06 
492 7053 0 4.01616e-06 
492 2979 0 1.07327e-08 
6827 7179 0 1.01368e-05 
5531 4093 0 2.36614e-06 
5531 2377 0 3.2619e-06 
4093 4514 0 3.38234e-06 
4093 2837 0 1.07904e-06 
4613 5488 0 1.68317e-06 
4613 7053 0 1.61049e-06 
7053 6749 0 5.30911e-06 
7053 7699 0 4.65607e-06 
7053 6401 0 6.70013e-07 
7179 5496 0 1.10924e-05 
7179 2377 0 1.32854e-06 
7179 3984 0 1.71176e-06 
8265 2588 0 3.47646e-06 
6545 1731 0 4.30303e-06 
6545 2588 0 6.39178e-07 
6749 1266 0 1.6652e-06 
5581 5820 0 5.3136e-06 
1805 203 0 8.84074e-07 
49 30 0 9.02841e-06 
2856 4347 0 7.86931e-06 
2856 8524 0 6.02069e-06 
2856 5561 0 5.92327e-06 
4921 7188 0 4.50574e-06 
4921 7271 0 3.15391e-06 
8524 2132 0 5.07934e-06 
1255 9842 0 9.23245e-07 
7188 4249 0 2.41368e-06 
7188 8327 0 1.04297e-06 
8835 2132 0 7.63068e-06 
4249 7075 0 1.81369e-06 
8327 5434 0 3.39163e-06 
8319 7285 0 6.10279e-06 
8319 9554 0 4.07748e-06 
3449 738 0 3.54242e-07 
2979 7285 0 4.8431e-06 
2979 4193 0 5.31582e-06 
8875 1655 0 3.10514e-08 
8875 4918 0 2.28506e-06 
4514 3027 0 3.28347e-06 
5455 7699 0 5.82995e-07 
5455 2200 0 2.03424e-06 
4193 5820 0 4.45781e-06 
4193 4918 0 4.55297e-06 
5488 7291 0 1.15987e-05 
4918 2377 0 5.10236e-06 
4918 4914 0 3.61747e-07 
2377 2837 0 3.24129e-06 
2377 8726 0 4.20047e-06 
7699 7291 0 3.78864e-06 
6401 8477 0 1.39997e-06 
203 820 0 3.27581e-06 
203 5955 0 1.34477e-06 
820 4347 0 7.99451e-06 
820 8383 0 1.76743e-06 
683 6509 0 4.74941e-06 
4347 6980 0 1.78572e-05 
4198 1972 0 2.06465e-06 
7271 4046 0 2.23955e-07 
6980 9842 0 1.39389e-05 
6980 8383 0 6.95201e-06 
8768 7076 0 8.24647e-06 
8768 1972 0 3.31683e-06 
9862 7076 0 2.4311e-06 
9862 1018 0 1.41399e-06 
9862 6292 0 2.90094e-06 
8081 7511 0 2.88391e-06 
7076 9405 0 7.48938e-06 
7511 9681 0 1.98339e-06 
7511 7216 0 4.71698e-06 
7511 3256 0 2.55813e-06 
9681 3914 0 4.89636e-06 
9681 9842 0 7.80739e-06 
9405 3914 0 3.61766e-06 
9405 9812 0 4.8406e-06 
7075 9779 0 8.51353e-07 
7075 1217 0 2.07282e-06 
3431 6292 0 2.34612e-06 
3431 5326 0 2.15906e-06 
3431 2429 0 2.58584e-06 
3914 7285 0 5.21045e-06 
3914 1655 0 7.45836e-06 
3914 5891 0 2.6569e-06 
5434 834 0 1.07005e-06 
9812 1655 0 6.4152e-06 
9812 7909 0 6.71442e-06 
7909 9262 0 6.43159e-06 
7909 1217 0 1.33225e-06 
1783 738 0 5.0897e-06 
1783 1179 0 4.01858e-06 
1655 459 0 6.44756e-06 
1170 834 0 2.65807e-06 
1170 9262 0 6.08245e-06 
3027 6326 0 2.22761e-06 
2837 9262 0 6.29849e-06 
7291 9144 0 1.45717e-05 
2200 3986 0 1.08709e-06 
1819 4860 0 3.99686e-06 
8726 6275 0 2.74492e-06 
8726 6326 0 2.36783e-06 
8726 46 0 3.4605e-06 
6693 30 0 2.43643e-05 
5955 8248 0 7.47661e-06 
2432 7823 0 2.7602e-06 
2432 4076 0 3.74954e-06 
6509 6180 0 2.54445e-06 
8383 3644 0 5.56382e-06 
1972 2684 0 5.60836e-06 
1972 8899 0 3.51127e-06 
5561 5179 0 4.99496e-06 
9298 6180 0 2.56212e-06 
8531 4866 0 8.52446e-07 
928 6292 0 8.80416e-06 
928 2127 0 1.13531e-05 
5810 1601 0 4.80543e-06 
9842 5891 0 9.43873e-06 
9842 1601 0 5.01861e-06 
7696 4866 0 1.44067e-06 
7696 5891 0 6.71324e-07 
6292 4866 0 2.338e-06 
7216 1485 0 2.33802e-06 
4866 9779 0 1.30275e-06 
5891 6081 0 3.91512e-06 
5891 8812 0 7.27296e-06 
5891 5177 0 3.28867e-06 
9779 9244 0 3.2951e-06 
1217 6281 0 1.09198e-06 
1217 7908 0 2.59037e-06 
3256 9707 0 9.02685e-08 
3256 6735 0 8.0109e-07 
2469 1059 0 7.67278e-07 
1702 7715 0 1.25582e-06 
1702 5177 0 1.1355e-06 
9262 6326 0 1.54641e-06 
2748 805 0 6.1704e-06 
2748 9144 0 5.30174e-06 
1179 7715 0 3.69611e-06 
1179 6735 0 1.17276e-06 
7715 8844 0 3.38251e-06 
459 3086 0 5.05792e-06 
459 7675 0 2.4701e-06 
6326 3086 0 2.74585e-06 
6326 7039 0 4.35662e-06 
8844 1985 0 3.84834e-06 
8844 8946 0 2.30642e-07 
46 945 0 5.87063e-06 
1503 3598 0 1.56504e-05 
2876 2684 0 8.13195e-06 
3314 6370 0 2.56844e-08 
6180 2202 0 2.14389e-06 
1485 2202 0 2.21238e-06 
1485 9283 0 1.58323e-06 
9707 6081 0 2.76988e-06 
9707 4786 0 5.65155e-07 
2429 6019 0 3.44185e-06 
6281 1029 0 2.55752e-06 
8812 2521 0 4.2744e-06 
8812 9410 0 6.96128e-06 
805 1532 0 6.87016e-06 
5177 2968 0 3.03765e-06 
5177 711 0 1.12583e-06 
5177 8693 0 3.83349e-06 
1029 834 0 1.09064e-05 
1029 7385 0 1.29399e-05 
6735 2879 0 2.3929e-07 
6735 2968 0 5.84408e-07 
1059 9244 0 5.49869e-07 
1059 7675 0 2.0466e-06 
1059 2968 0 2.06841e-06 
9244 3086 0 6.38116e-06 
9244 9410 0 6.27421e-06 
9244 7908 0 4.81951e-06 
9244 7575 0 2.11367e-06 
7908 7385 0 6.75951e-06 
3086 4860 0 8.66107e-06 
7385 7039 0 6.16433e-06 
7385 3213 0 7.26408e-06 
7385 2923 0 1.06008e-05 
7675 4860 0 3.89336e-06 
7675 9502 0 1.34295e-06 
7039 6901 0 8.62426e-06 
7039 4279 0 2.24174e-06 
9144 4399 0 1.05468e-05 
3986 6965 0 2.16847e-06 
4860 3179 0 1.13407e-05 
4860 1940 0 4.55212e-06 
945 1246 0 2.74883e-06 
4076 2648 0 3.40756e-06 
268 5336 0 5.98176e-06 
9413 2202 0 1.7529e-06 
3644 5179 0 5.59156e-06 
3644 2648 0 4.23605e-06 
5179 5738 0 4.78608e-06 
5179 6248 0 4.01616e-06 
8899 2521 0 4.73819e-06 
9346 1547 0 2.09999e-06 
7655 840 0 9.55725e-08 
5738 9283 0 6.09804e-06 
5738 4294 0 1.45076e-06 
7290 6019 0 2.44616e-06 
1532 9283 0 7.70509e-06 
9410 6740 0 4.85675e-06 
9410 5243 0 4.87956e-06 
9410 7575 0 4.95666e-06 
6019 7575 0 4.52179e-06 
6019 9350 0 3.97989e-06 
5243 5597 0 5.09778e-06 
7575 7084 0 6.53235e-06 
7575 8339 0 5.70848e-06 
7575 9537 0 2.97785e-06 
2879 7077 0 6.43051e-08 
2879 8048 0 1.45929e-06 
2968 5890 0 3.03936e-06 
3213 7084 0 3.82039e-06 
3213 1940 0 7.10816e-06 
6965 6386 0 1.79102e-06 
6965 7678 0 3.44564e-06 
9502 986 0 2.36169e-06 
1940 6503 0 2.79457e-06 
1940 7576 0 6.20177e-06 
4279 2923 0 7.13165e-06 
4279 4043 0 1.10325e-05 
8946 7678 0 5.06007e-07 
8938 2365 0 2.18094e-06 
65 2204 0 3.47884e-06 
5005 7206 0 8.37943e-06 
6248 6986 0 5.16544e-06 
8207 6740 0 1.50623e-06 
8207 8693 0 3.7016e-06 
8207 5416 0 3.5568e-06 
2344 1105 0 1.18545e-05 
9283 471 0 8.14677e-06 
9283 3735 0 2.81338e-06 
4786 2390 0 8.87286e-07 
4786 9134 0 9.21909e-07 
8693 5356 0 1.40108e-06 
9350 6521 0 5.69546e-06 
5597 5356 0 9.88088e-07 
2450 7084 0 5.46423e-06 
2450 1063 0 2.72679e-06 
8339 2413 0 5.53039e-06 
8339 8576 0 1.59087e-06 
8339 2953 0 3.45727e-06 
5890 2413 0 2.35092e-06 
5890 6905 0 3.57053e-07 
5890 7276 0 4.39858e-06 
2923 3807 0 7.2545e-06 
2923 1259 0 7.23306e-07 
6905 5099 0 5.14924e-07 
9486 2953 0 3.9187e-07 
6503 9411 0 2.30432e-06 
6503 5591 0 3.39492e-06 
6503 8621 0 3.17442e-06 
7678 5204 0 1.82097e-06 
986 5099 0 2.02811e-06 
639 7137 0 1.78814e-06 
9141 8819 0 2.62514e-07 
1105 6947 0 1.99186e-06 
471 5276 0 2.80784e-06 
6986 5356 0 2.41714e-06 
6986 8819 0 2.60198e-06 
5416 3324 0 2.49047e-06 
5416 3533 0 4.68373e-06 
3735 8927 0 2.22055e-06 
9134 3159 0 7.21163e-07 
8039 3616 0 1.33052e-06 
2413 7878 0 4.35027e-06 
2413 4274 0 2.63706e-06 
7276 6349 0 1.15639e-06 
7276 5090 0 2.43729e-06 
7276 8227 0 4.00481e-06 
2953 9537 0 2.85678e-06 
2953 9518 0 4.64228e-06 
2953 3038 0 2.59045e-06 
2953 5882 0 2.21777e-06 
9537 9411 0 1.68468e-06 
3807 1259 0 2.3942e-06 
3807 9411 0 3.04915e-06 
3807 1508 0 8.30423e-06 
1259 3616 0 2.79272e-06 
8755 3783 0 5.14967e-07 
9411 7576 0 1.85788e-06 
9411 1405 0 2.34447e-06 
5099 3933 0 3.2823e-07 
5591 5377 0 4.21407e-06 
3933 7576 0 5.92902e-06 
3933 9518 0 3.14976e-06 
7576 8621 0 8.37206e-07 
8621 1748 0 4.14658e-06 
2844 3573 0 5.38184e-06 
7074 5668 0 1.30185e-06 
7574 5900 0 5.83804e-07 
5900 845 0 2.49346e-07 
5900 281 0 1.89196e-06 
8819 3533 0 3.0127e-07 
3414 313 0 3.22132e-06 
6947 6521 0 5.38249e-06 
6947 7162 0 2.19367e-06 
6947 1717 0 3.22553e-06 
3186 5276 0 1.12662e-06 
3186 2832 0 1.56343e-06 
3186 2362 0 2.6584e-06 
4094 3849 0 5.30674e-06 
5222 9147 0 7.38711e-07 
6521 6266 0 4.15539e-06 
7379 1063 0 1.69463e-07 
2832 998 0 1.39136e-06 
9147 4182 0 1.9086e-06 
8927 7411 0 1.74531e-06 
8927 3034 0 1.92425e-06 
4182 7411 0 1.92595e-06 
4274 5959 0 2.82579e-06 
7411 998 0 2.29523e-06 
7878 9513 0 3.17981e-06 
3616 6266 0 3.19878e-06 
3616 6303 0 1.07113e-06 
8227 6349 0 2.75027e-06 
8227 3034 0 4.31e-06 
6371 4125 0 2.73767e-07 
6349 1074 0 1.3787e-06 
6349 5204 0 2.33566e-06 
5090 7021 0 5.56488e-07 
9518 7021 0 1.1585e-06 
9518 4828 0 4.04291e-06 
1508 5140 0 4.65712e-06 
1508 1748 0 8.43731e-06 
1508 1632 0 5.24117e-06 
5204 3746 0 2.31557e-06 
5668 508 0 2.27348e-06 
7023 3533 0 3.03452e-06 
281 7162 0 1.90944e-06 
3533 4315 0 3.57177e-06 
313 5877 0 7.12215e-06 
6709 2914 0 1.61925e-06 
9188 3038 0 6.12923e-07 
6266 3641 0 2.3542e-06 
6266 1779 0 9.27236e-07 
998 3849 0 3.19338e-06 
998 5740 0 1.48445e-06 
4125 5804 0 1.24855e-06 
4125 3368 0 1.13873e-06 
4125 5652 0 1.47572e-06 
3038 7931 0 2.55801e-06 
3641 1405 0 2.89009e-06 
3641 8634 0 2.59381e-06 
6303 1632 0 3.4417e-06 
6303 1779 0 3.34599e-06 
3034 2914 0 3.19824e-06 
9513 9059 0 8.03143e-07 
9513 9553 0 1.38464e-06 
9513 5740 0 2.00307e-06 
1405 7296 0 2.4128e-06 
7021 9553 0 6.38868e-07 
7021 4828 0 7.06316e-07 
5882 5140 0 3.37796e-06 
5140 8020 0 1.70071e-06 
5140 1772 0 2.83026e-06 
4828 694 0 3.28844e-06 
1748 1602 0 4.36193e-06 
1333 2963 0 2.05818e-06 
508 8860 0 2.81444e-06 
508 1054 0 2.66532e-06 
1164 1252 0 1.44318e-06 
4315 137 0 3.26804e-06 
8860 3849 0 3.47682e-06 
8860 1252 0 1.08238e-06 
8860 9290 0 1.17845e-06 
4672 9564 0 3.5988e-07 
1717 8634 0 2.70527e-06 
1717 5454 0 2.85898e-06 
1717 4575 0 3.17189e-06 
2781 5454 0 5.72055e-07 
4575 1779 0 1.47598e-06 
4575 1941 0 6.20401e-06 
3849 5804 0 2.67642e-06 
3849 5952 0 1.4287e-06 
3368 5959 0 1.437e-06 
3368 9290 0 2.29145e-06 
8634 9025 0 1.21494e-06 
8634 6490 0 2.47451e-06 
2914 1744 0 3.30902e-06 
1779 9452 0 5.28202e-07 
5740 6571 0 2.13604e-06 
9553 2376 0 8.45801e-07 
7596 5116 0 1.55775e-07 
3856 1772 0 6.11552e-07 
7296 3654 0 1.52721e-06 
1632 9504 0 4.621e-06 
5116 2738 0 1.09272e-06 
1602 1479 0 5.41369e-06 
4388 3122 0 7.81191e-06 
8866 5590 0 2.81306e-06 
7747 5590 0 1.88359e-06 
4719 5244 0 5.99046e-07 
6685 927 0 2.39467e-06 
1252 1735 0 7.4995e-08 
9564 137 0 2.43965e-06 
9564 2585 0 2.84184e-06 
1481 7389 0 1.5529e-06 
5454 7404 0 7.46475e-07 
5952 6533 0 3.874e-07 
9290 6533 0 3.34327e-06 
9290 1483 0 2.29504e-06 
6490 7404 0 2.88898e-06 
9452 1554 0 1.29208e-06 
9452 8514 0 1.82303e-06 
9452 5487 0 1.15391e-06 
5652 2376 0 1.30162e-06 
9223 6593 0 8.75294e-07 
8514 9571 0 2.78692e-06 
2376 8011 0 1.66739e-06 
2376 2514 0 1.71304e-06 
8011 694 0 6.34441e-07 
8011 7333 0 1.17197e-06 
4127 9571 0 2.69074e-06 
9504 8599 0 6.33056e-08 
9504 4339 0 5.37513e-06 
604 7333 0 5.63488e-07 
6382 517 0 7.68148e-07 
5590 121 0 1.43151e-06 
5244 2076 0 8.30913e-07 
5244 9844 0 8.27373e-07 
5244 5331 0 6.3139e-07 
1054 4084 0 3.00386e-06 
1735 121 0 1.85668e-06 
4906 6533 0 5.47192e-07 
137 9844 0 3.25233e-06 
3411 748 0 4.28461e-06 
7404 4753 0 2.15449e-06 
6533 5713 0 2.44483e-06 
6533 7950 0 3.08081e-06 
1941 1554 0 7.09673e-07 
1941 8328 0 2.18253e-06 
5713 629 0 1.67454e-06 
1483 5537 0 2.43492e-06 
5537 5487 0 2.27613e-06 