ITEM: TIMESTEP
20000000
ITEM: NUMBER OF ENTRIES
7455
ITEM: BOX BOUNDS ff ff ff
-0.01 0.45
-0.15 0.15
-0.08 0.1
ITEM: ENTRIES c_ppc[1] c_ppc[2] c_ppc[3] c_ppc[4] 
9791 1513 0 0.000239001 
555 3179 0 5.74726e-05 
1116 3451 0 0.000304886 
5426 1831 0 0.000214272 
5426 1080 0 0.000555497 
1093 79 0 0.00013556 
79 5432 0 0.000482492 
5432 654 0 0.00021559 
1080 654 0 8.99559e-05 
982 53 0 0.000205749 
654 4632 0 0.000491786 
53 1199 0 0.000288299 
53 9517 0 1.44299e-05 
1199 1765 0 0.000191405 
3690 537 0 0.000256627 
3090 177 0 0.000267258 
3090 7936 0 2.01362e-05 
3034 6266 0 3.90923e-06 
9517 823 0 1.52936e-05 
9719 9641 0 2.55331e-05 
9719 8092 0 1.28555e-05 
9719 8059 0 1.60561e-05 
6266 823 0 1.29142e-05 
9641 823 0 3.91132e-06 
823 437 0 8.14081e-06 
873 9761 0 1.42645e-05 
9761 7345 0 1.78519e-05 
7936 4804 0 2.47496e-05 
7345 1268 0 1.08306e-05 
6467 9608 0 3.27867e-05 
6467 929 0 1.5016e-05 
4804 250 0 6.23841e-06 
4660 2793 0 6.38621e-05 
4660 4369 0 8.396e-05 
5369 3058 0 6.10997e-05 
9787 8383 0 3.13016e-05 
7454 2323 0 1.00478e-05 
8092 9299 0 3.82869e-07 
929 4369 0 3.67315e-05 
3058 3595 0 3.14728e-05 
5960 6959 0 6.56282e-06 
1137 2323 0 1.68823e-05 
1137 101 0 1.96158e-05 
2323 4153 0 9.94605e-06 
9765 6958 0 2.8897e-06 
4580 2745 0 1.35454e-07 
7734 6486 0 1.68908e-05 
4369 3595 0 4.74691e-05 
7800 1655 0 5.18041e-05 
3595 9828 0 4.79831e-05 
1655 2994 0 2.57225e-05 
3544 1851 0 2.37914e-05 
1851 1627 0 2.25879e-06 
8204 3869 0 1.40828e-05 
9230 4668 0 1.59064e-05 
4017 2693 0 5.65635e-06 
3151 5799 0 7.62441e-07 
8168 9345 0 9.76375e-07 
7444 3483 0 1.03307e-05 
9345 5951 0 1.43863e-06 
8514 1346 0 5.57371e-06 
1346 4398 0 2.88445e-06 
198 5720 0 1.19388e-05 
7739 7386 0 4.40138e-06 
5138 6414 0 5.06671e-08 
5138 6032 0 5.78353e-07 
807 6726 0 1.33698e-06 
8647 3697 0 2.9229e-07 
4386 5775 0 1.79409e-06 
2246 5775 0 1.23691e-06 
7386 8469 0 7.96739e-06 
6032 7407 0 4.0842e-06 
8287 2982 0 2.60078e-06 
8599 6096 0 2.83525e-06 
9019 3616 0 2.07683e-06 
1653 8199 0 1.6314e-06 
2398 2508 0 4.25414e-06 
3776 7820 0 2.48992e-06 
2508 7820 0 4.70806e-06 
7820 217 0 4.87807e-06 
3997 8875 0 1.06027e-05 
704 3251 0 8.88214e-06 
7511 9409 0 4.8703e-06 
7763 5369 0 1.65089e-05 
9373 3392 0 9.85328e-06 
1272 9455 0 1.49213e-05 
8875 2338 0 6.63329e-06 
8875 353 0 2.22782e-05 
6838 5442 0 1.03976e-05 
2338 7471 0 1.95997e-05 
2338 1731 0 9.16449e-06 
7264 5527 0 8.44111e-06 
7892 787 0 1.66237e-05 
8774 9711 0 1.79723e-05 
9709 2431 0 1.98378e-05 
9709 5607 0 1.55817e-05 
9709 2213 0 3.18514e-05 
3695 9477 0 1.61675e-05 
3695 1445 0 4.1016e-07 
3695 9809 0 2.39849e-05 
787 9711 0 1.60081e-05 
3081 9477 0 2.19812e-05 
3081 4751 0 3.4045e-05 
3251 2703 0 3.57437e-06 
3251 9809 0 1.84495e-06 
3251 5712 0 1.12391e-05 
1572 6042 0 4.72212e-06 
2431 6328 0 1.99717e-05 
2431 5607 0 6.50584e-05 
1445 9389 0 4.58696e-06 
1445 9809 0 1.19836e-05 
4028 6328 0 2.02873e-05 
4028 8539 0 2.65479e-05 
4028 6042 0 2.28037e-05 
6328 7002 0 2.63746e-05 
6888 4463 0 1.01342e-05 
6888 7973 0 7.58634e-06 
4463 9644 0 6.43328e-06 
3307 2795 0 7.53434e-07 
3307 6292 0 9.02889e-06 
1074 5797 0 4.17768e-06 
1074 7497 0 9.27378e-06 
1074 3030 0 2.78832e-05 
5797 6347 0 5.24322e-05 
8036 9389 0 8.81913e-06 
8036 7973 0 9.28076e-06 
8036 5789 0 9.44811e-06 
9389 378 0 2.53825e-05 
9389 6292 0 2.55297e-05 
9389 6796 0 1.90328e-07 
5513 776 0 2.50836e-05 
8539 3109 0 2.41653e-05 
8539 7520 0 2.63137e-05 
7353 7973 0 1.05773e-05 
7353 7497 0 6.8932e-06 
7353 6016 0 2.11757e-05 
7353 7326 0 5.00914e-05 
7973 89 0 1.76221e-05 
7973 5515 0 3.78689e-05 
7973 3592 0 1.01275e-05 
378 2795 0 4.52723e-06 
378 5789 0 1.89086e-05 
378 2132 0 2.29228e-05 
378 6712 0 2.64017e-05 
2795 8146 0 2.20699e-05 
2795 6712 0 2.22493e-05 
7497 7135 0 1.10507e-05 
7497 3030 0 2.39939e-05 
89 5789 0 1.60925e-05 
89 2818 0 1.70676e-05 
89 3592 0 3.20949e-05 
89 8533 0 8.27864e-06 
5789 2814 0 1.49124e-05 
5789 2132 0 8.18191e-06 
5789 2447 0 1.74451e-05 
8146 6402 0 1.8957e-05 
8146 5949 0 8.35052e-06 
8146 1854 0 6.96862e-06 
3109 5506 0 2.47492e-05 
3109 8286 0 2.57239e-06 
6016 7135 0 1.10032e-05 
6016 7294 0 1.25477e-05 
2132 2814 0 5.63344e-06 
2132 7560 0 1.31599e-05 
2132 6704 0 2.21587e-05 
5949 4720 0 1.95479e-05 
5506 7135 0 1.00079e-05 
5506 2641 0 2.45904e-05 
5506 665 0 1.33334e-05 
7135 7116 0 1.27933e-05 
7294 2818 0 7.10163e-06 
7294 7116 0 1.20425e-05 
7294 3137 0 1.03591e-05 
7294 1354 0 1.51213e-05 
2818 2814 0 5.60665e-06 
2818 6118 0 8.74779e-06 
2818 8533 0 7.70273e-06 
2818 6831 0 1.01175e-05 
2814 9216 0 1.21447e-05 
2814 2447 0 1.39575e-05 
2814 6273 0 2.98173e-05 
7560 4497 0 9.55582e-06 
7560 9216 0 8.57716e-06 
7560 536 0 1.02831e-05 
4497 3588 0 5.72918e-06 
4497 6394 0 1.20124e-05 
7116 2730 0 5.37877e-06 
7116 2641 0 8.71052e-06 
7116 2956 0 7.93466e-06 
6118 7997 0 4.87202e-06 
9216 7997 0 1.428e-05 
2641 1915 0 2.84673e-05 
2641 3450 0 1.37382e-05 
2641 6622 0 4.19924e-06 
3137 2730 0 9.44284e-06 
3137 2739 0 7.5008e-06 
3137 7554 0 3.26471e-06 
7997 8801 0 1.22891e-05 
7997 4712 0 6.89605e-06 
7997 6336 0 5.45433e-06 
7997 3875 0 4.40117e-06 
536 9366 0 1.20482e-05 
536 6336 0 7.77662e-06 
9366 1569 0 1.22433e-05 
9366 8695 0 4.95477e-06 
1915 2730 0 6.84577e-06 
1915 4137 0 2.69732e-05 
1915 6622 0 6.16574e-06 
2730 5322 0 6.41336e-06 
2730 2956 0 4.88545e-06 
2739 8801 0 6.43812e-06 
8695 7551 0 4.77561e-06 
5322 7554 0 4.13171e-06 
5322 4137 0 4.51599e-06 
5322 7086 0 8.55769e-06 
5322 7976 0 1.12519e-06 
4103 8801 0 6.02647e-06 
4103 4758 0 1.00057e-05 
4103 9394 0 9.49964e-06 
8801 7459 0 9.9507e-06 
8801 5829 0 1.04532e-05 
4712 7459 0 1.09775e-05 
4712 6336 0 1.27275e-05 
4712 7551 0 1.88443e-06 
4137 6274 0 2.91823e-05 
7459 4758 0 5.71503e-06 
7459 8354 0 1.25226e-05 
699 7551 0 7.24574e-07 
699 5166 0 6.39591e-06 
4813 3535 0 4.93233e-07 
4813 5166 0 1.02219e-05 
7086 6274 0 7.56879e-06 
7086 7365 0 5.72271e-06 
4758 3241 0 1.13241e-05 
4758 8354 0 2.09084e-07 
4758 6190 0 3.22733e-06 
4758 8554 0 6.06812e-06 
6274 4337 0 3.4793e-05 
6274 3638 0 1.68527e-05 
3241 283 0 1.06501e-05 
3241 7365 0 1.47674e-05 
8354 283 0 6.97145e-06 
8354 7071 0 1.11693e-05 
4566 3535 0 7.00914e-06 
4566 2335 0 1.99231e-06 
4566 8442 0 6.37087e-06 
4611 3766 0 2.55529e-06 
283 7071 0 1.97741e-06 
7071 2335 0 6.86361e-06 
7071 874 0 7.70165e-06 
2335 2651 0 5.54354e-06 
2651 1527 0 7.0468e-06 
3392 5631 0 9.3332e-06 
3079 6484 0 1.17233e-06 
353 3979 0 7.47386e-06 
9455 7565 0 1.79553e-05 
9455 5153 0 1.67081e-05 
9455 3960 0 5.5549e-05 
8710 4447 0 1.16044e-06 
2213 6104 0 4.09909e-05 
1731 4751 0 2.12754e-05 
1731 3266 0 1.41338e-05 
4221 5912 0 5.19929e-06 
9711 7002 0 2.96463e-06 
9711 408 0 2.28159e-05 
5607 6347 0 3.60166e-05 
5607 8677 0 5.52878e-05 
4751 8677 0 2.29841e-05 
9809 6292 0 3.08076e-05 
9809 3266 0 2.20422e-05 
9809 9644 0 5.03949e-06 
9809 4055 0 5.09899e-06 
9809 1309 0 3.01412e-05 
7002 4365 0 1.2737e-05 
9644 2566 0 1.26311e-05 
5712 7948 0 1.57271e-05 
6042 2460 0 1.81676e-05 
6347 7059 0 4.73175e-05 
6292 6712 0 1.33768e-05 
6292 5404 0 1.2636e-05 
6292 5798 0 2.45479e-05 
7520 3030 0 1.81771e-06 
7520 5472 0 2.3762e-05 
6600 8653 0 9.43913e-07 
5515 4578 0 1.86611e-05 
5515 3600 0 9.54378e-06 
5515 2734 0 2.19801e-05 
6712 4986 0 2.34604e-05 
3030 7326 0 1.03399e-05 
3030 8286 0 1.57517e-05 
3030 8220 0 3.34014e-05 
7326 3592 0 4.56457e-06 
7326 4014 0 9.13063e-06 
7326 7059 0 3.62644e-05 
7326 2820 0 1.09812e-05 
3592 2820 0 2.91031e-05 
3600 6704 0 6.49606e-06 
3600 4986 0 7.97017e-06 
1854 5404 0 9.59699e-06 
1854 4720 0 6.41825e-06 
1854 4330 0 5.00521e-06 
6704 2447 0 9.84015e-06 
6704 4720 0 1.50774e-05 
6704 2751 0 5.71033e-06 
6704 4986 0 6.4539e-06 
6704 1848 0 1.9373e-05 
4720 6394 0 6.87937e-06 
4720 2751 0 8.11976e-06 
4720 4330 0 1.77754e-05 
4720 2565 0 9.8056e-06 
4875 4014 0 1.73676e-05 
4875 665 0 1.86993e-05 
4875 1468 0 6.85613e-06 
8533 2447 0 1.26413e-05 
8533 4014 0 1.25538e-05 
8533 1354 0 6.75376e-06 
8533 6831 0 6.54424e-06 
2447 8871 0 2.28274e-05 
6394 2751 0 5.09893e-06 
6394 6867 0 1.30671e-05 
665 3450 0 4.66088e-06 
665 3789 0 8.81248e-06 
1468 2956 0 6.12218e-06 
6831 4591 0 1.41918e-05 
6831 8345 0 2.20463e-05 
6273 2751 0 4.12727e-06 
6273 3875 0 1.45579e-05 
6273 7567 0 1.53543e-05 
6273 1848 0 3.49547e-05 
2751 2919 0 7.33262e-06 
2751 7567 0 9.62313e-06 
1354 4533 0 1.12627e-05 
1354 2512 0 1.15185e-05 
3875 7567 0 9.65461e-07 
3875 5829 0 9.67076e-06 
2919 7567 0 4.43794e-06 
2956 6623 0 7.57541e-06 
4591 4533 0 8.41598e-06 
4591 5829 0 1.12607e-05 
4591 7464 0 9.79598e-07 
6622 8601 0 7.08232e-06 
5829 5388 0 8.9292e-06 
6336 7551 0 1.4417e-05 
6336 7567 0 1.69707e-05 
6336 2372 0 1.6436e-06 
7551 7927 0 6.31878e-06 
7551 5166 0 1.25509e-05 
7551 7694 0 6.48078e-06 
7927 5166 0 4.74699e-06 
7927 6860 0 7.7631e-06 
7976 3638 0 5.57252e-06 
7976 1728 0 4.3681e-06 
8554 6190 0 4.61698e-06 
8554 5388 0 8.07626e-06 
3638 2144 0 1.52551e-05 
3638 3051 0 6.43778e-06 
5166 5971 0 4.68389e-06 
5166 1359 0 1.58392e-05 
5166 3350 0 1.61767e-06 
7365 8901 0 4.63085e-06 
7365 3766 0 1.49018e-05 
6190 8901 0 3.00991e-07 
6190 5101 0 2.68856e-06 
6190 518 0 2.64288e-06 
6190 2854 0 3.83464e-06 
8990 7330 0 1.15043e-06 
3766 6308 0 1.52756e-05 
3766 5488 0 2.87927e-06 
518 5488 0 4.30769e-06 
2854 4097 0 1.46888e-06 
2949 1359 0 1.39027e-05 
2949 874 0 3.14467e-07 
931 6484 0 6.70686e-06 
3532 9386 0 1.02396e-05 
3979 6456 0 2.67082e-06 
3979 1393 0 4.04348e-05 
9386 288 0 2.11327e-06 
3960 3266 0 1.0988e-05 
3960 1393 0 6.08125e-05 
3960 595 0 1.834e-06 
4447 5597 0 1.62491e-05 
595 1227 0 1.58534e-05 
3266 9872 0 7.97865e-06 
5912 5597 0 6.37052e-06 
1309 6943 0 7.65248e-06 
1309 4643 0 3.54301e-05 
4578 2566 0 1.00504e-05 
4578 2734 0 3.26387e-07 
4986 4330 0 6.55526e-07 
4986 1345 0 2.49201e-05 
4014 5349 0 8.72627e-06 
4014 3664 0 1.04835e-05 
3450 1338 0 1.44511e-05 
7567 2934 0 6.95486e-06 
7567 8705 0 7.0657e-06 
4533 9394 0 1.63693e-05 
4533 9587 0 1.87256e-05 
4533 1200 0 4.5758e-06 
8705 6772 0 5.56556e-06 
8705 7694 0 8.10524e-06 
2372 4738 0 4.42599e-06 
9394 2951 0 7.89473e-06 
9394 6895 0 1.71756e-06 
5388 2951 0 3.27074e-06 
5388 4048 0 6.68119e-06 
5388 9042 0 8.37332e-06 
7694 5971 0 6.28731e-06 
7694 2893 0 8.37964e-06 
2951 8901 0 5.83015e-06 
2951 4035 0 4.14438e-06 
5971 5101 0 3.50185e-06 
5101 7624 0 1.98487e-06 
1359 874 0 6.0727e-06 
1359 6846 0 5.43623e-06 
1359 2735 0 1.2063e-05 
6308 3051 0 7.25926e-06 
5488 4038 0 4.67224e-06 
874 7624 0 6.11836e-06 
6484 261 0 2.52285e-06 
7295 9669 0 6.01694e-06 
5247 408 0 1.42986e-05 
5247 7627 0 1.33408e-05 
6104 261 0 4.7042e-05 
408 2991 0 2.811e-05 
9872 3822 0 2.15792e-05 
9872 3542 0 2.37025e-06 
5597 2460 0 9.84954e-06 
5597 8083 0 7.3089e-06 
8677 2566 0 3.84564e-05 
8677 2148 0 1.44004e-05 
2566 2190 0 4.0746e-06 
2566 6982 0 3.48383e-05 
2460 4679 0 9.79325e-06 
2460 5574 0 4.29119e-06 
7948 5798 0 1.73455e-05 
8653 5472 0 8.75786e-06 
8653 7059 0 2.07656e-06 
8653 4679 0 4.27533e-06 
2734 8877 0 1.83749e-05 
8824 4735 0 5.03345e-06 
5472 5574 0 2.08537e-05 
7059 8220 0 1.75119e-05 
7059 8877 0 2.93727e-05 
7059 234 0 3.78088e-05 
5798 78 0 4.6483e-06 
5798 4697 0 3.32175e-05 
7713 8220 0 2.51547e-05 
7713 3789 0 5.47304e-06 
7713 4378 0 1.35499e-05 
8220 5534 0 3.4471e-05 
2820 3664 0 9.90602e-06 
2820 3486 0 2.15688e-05 
4735 8871 0 9.73809e-06 
4330 5572 0 1.57326e-05 
5349 3789 0 1.08864e-05 
5349 6953 0 1.25845e-05 
5349 5534 0 1.42749e-05 
8871 8345 0 1.47727e-05 
8871 601 0 2.9733e-05 
3789 6953 0 5.90738e-06 
1848 8345 0 1.60641e-06 
1848 2934 0 8.9695e-06 
1848 1345 0 3.08599e-05 
1848 6072 0 2.5889e-05 
2565 6867 0 2.85009e-06 
2565 2440 0 6.72273e-06 
6867 4465 0 1.00056e-05 
6867 7491 0 7.41961e-06 
6953 9587 0 1.60682e-05 
6953 1338 0 1.8485e-06 
2512 3664 0 1.07714e-05 
8345 7464 0 1.57872e-05 
8345 6072 0 1.99096e-05 
8345 4081 0 1.05595e-05 
2934 8197 0 8.14649e-07 
2934 7556 0 3.16038e-06 
2934 7245 0 7.92384e-07 
1338 6623 0 9.71853e-06 
1338 9237 0 1.52853e-05 
1338 2469 0 1.62153e-05 
9587 1403 0 1.4224e-05 
7464 6895 0 1.08931e-05 
7464 4081 0 1.33213e-05 
6623 1200 0 1.61752e-06 
6623 6914 0 3.69066e-07 
6623 2769 0 4.12792e-06 
6772 6895 0 3.44615e-06 
6772 8853 0 5.44068e-07 
4738 4726 0 8.4766e-06 
4738 7556 0 1.66814e-05 
4726 7336 0 5.6139e-06 
8601 1728 0 7.92018e-06 
8601 6914 0 1.39211e-05 
1200 6895 0 2.17971e-06 
1200 4204 0 3.04885e-06 
1200 9446 0 2.5512e-06 
1200 9640 0 5.10456e-06 
6895 4048 0 2.12688e-06 
7336 3350 0 2.81912e-06 
1728 9446 0 6.32688e-06 
9042 8853 0 1.70394e-05 
9042 3037 0 5.29817e-06 
2144 6743 0 1.57807e-05 
1124 1850 0 2.24671e-06 
4035 4038 0 4.19205e-06 
4035 6370 0 1.56098e-06 
2735 7624 0 6.72682e-06 
2735 3037 0 9.68501e-06 
2735 5747 0 8.61129e-06 
9383 8938 0 4.31393e-07 
3051 3559 0 6.647e-06 
3051 9384 0 1.19721e-05 
7624 6846 0 5.39929e-06 
7624 4434 0 7.28365e-06 
4612 4807 0 6.67891e-07 
4612 3559 0 7.12175e-07 
8213 7690 0 2.8266e-06 
4097 7566 0 1.16557e-06 
6846 8938 0 6.64892e-06 
7627 3337 0 2.62078e-05 
1393 261 0 2.81537e-05 
1393 8198 0 0.000109635 
3822 8198 0 3.82932e-05 
3822 6117 0 3.40235e-07 
9669 2148 0 1.83899e-05 
9669 6878 0 1.44166e-05 
1227 6943 0 1.3218e-05 
6943 6851 0 6.87566e-06 
6943 5647 0 1.18344e-05 
6943 5052 0 1.27413e-05 
2991 4679 0 1.6772e-05 
2991 8877 0 2.10549e-05 
2991 7437 0 2.32468e-05 
4643 3078 0 2.35377e-05 
4643 3513 0 3.16929e-05 
4679 5574 0 3.74807e-05 
4679 9068 0 3.49787e-05 
2190 2628 0 7.22335e-06 
6982 3078 0 3.41471e-05 
5574 9405 0 1.24221e-05 
8877 2628 0 1.50939e-05 
6256 1959 0 2.45046e-05 
6256 5572 0 7.17683e-06 
6256 9887 0 1.83058e-05 
4378 6621 0 7.37928e-06 
4378 2781 0 3.53186e-06 
234 9405 0 3.16913e-05 
234 3486 0 1.89831e-05 
4697 1345 0 4.23564e-06 
4697 5407 0 4.89737e-06 
4697 9675 0 2.74302e-05 
78 5572 0 1.66945e-05 
78 8457 0 1.6231e-05 
5572 1959 0 1.07893e-05 
5572 4083 0 3.6806e-06 
5534 3664 0 6.86892e-06 
5534 7305 0 2.2685e-05 
5534 361 0 8.58292e-06 
5534 2082 0 1.98168e-05 
3486 601 0 5.05117e-06 
3486 1133 0 1.07434e-05 
6621 9237 0 1.10635e-05 
3664 9680 0 1.12119e-05 
601 9680 0 9.46522e-06 
601 6618 0 3.0663e-05 
1345 4474 0 1.23628e-05 
1345 9675 0 8.80558e-06 
1345 3389 0 2.55364e-05 
2440 4414 0 1.15877e-05 
9237 361 0 7.83603e-06 
9237 2690 0 7.44719e-06 
6072 3389 0 3.42141e-05 
6072 6708 0 2.79345e-05 
6072 7245 0 1.33014e-05 
4474 7556 0 2.29858e-05 
4474 7245 0 2.29884e-05 
4474 3282 0 3.21276e-05 
7491 4465 0 1.36387e-05 
7491 9730 0 1.50119e-05 
1403 4081 0 1.75009e-05 
1403 361 0 4.9474e-06 
1403 2769 0 9.89926e-06 
1403 4773 0 1.43842e-05 
4081 9680 0 2.50016e-05 
4081 6708 0 1.42484e-05 
4081 9322 0 1.89317e-05 
7556 5816 0 1.2499e-05 
7556 7245 0 2.96951e-08 
7556 1426 0 3.22396e-07 
7245 8853 0 2.5273e-05 
5816 7796 0 1.59287e-05 
6914 2469 0 1.59982e-05 
6914 7182 0 1.30552e-05 
2769 6963 0 6.72676e-06 
6530 4048 0 1.88043e-05 
6530 6708 0 3.16293e-05 
6530 643 0 2.024e-05 
6530 246 0 6.35753e-06 
8853 2893 0 6.60115e-06 
8853 8923 0 5.93482e-06 
4204 8047 0 4.78625e-06 
2893 9535 0 2.3601e-06 
2893 3037 0 1.05775e-05 
2893 2077 0 1.25012e-05 
9446 4048 0 7.2019e-06 
9446 6370 0 5.77639e-06 
4048 6370 0 7.49163e-06 
9535 5747 0 2.53562e-06 
6743 9384 0 1.46654e-05 
6743 7182 0 2.21852e-05 
6370 7690 0 8.14546e-06 
6370 3909 0 4.93284e-06 
6370 6534 0 3.20767e-06 
1850 643 0 8.12912e-06 
1850 7303 0 4.0939e-06 
3037 5614 0 1.31728e-06 
3037 5747 0 6.15997e-06 
3037 8639 0 2.9653e-06 
9384 4807 0 1.04044e-05 
9384 1453 0 7.36795e-06 
4807 4038 0 8.32082e-06 
4807 2996 0 5.65724e-06 
4038 7690 0 5.83139e-06 
7690 4434 0 9.73768e-06 
7690 906 0 6.65134e-06 
4434 5614 0 7.20562e-06 
8938 5747 0 1.42746e-05 
8938 4846 0 4.97271e-06 
8938 3302 0 1.39521e-05 
8792 1429 0 4.95904e-05 
8198 2021 0 8.90782e-05 
8671 9921 0 1.22204e-05 
8671 1231 0 1.12355e-05 
8671 6878 0 3.69007e-06 
2701 7437 0 3.93841e-05 
5052 8635 0 1.0172e-05 
9068 6878 0 4.08994e-06 
9068 6430 0 4.42733e-06 
7437 2628 0 3.16166e-05 
7437 6430 0 3.27001e-05 
7437 8726 0 8.20823e-06 
3078 9887 0 8.60824e-06 
3078 3838 0 2.77134e-05 
3078 1107 0 2.23703e-05 
9887 8635 0 1.94921e-05 
9887 8457 0 1.52825e-05 
9405 6444 0 1.77016e-05 
2628 3919 0 1.31704e-06 
2628 1133 0 1.53951e-05 
5407 7248 0 1.65586e-06 
5407 8457 0 3.36703e-06 
5407 1273 0 2.07362e-05 
4083 9721 0 1.02953e-05 
4083 4414 0 3.45655e-05 
4083 8025 0 2.57825e-05 
7305 9680 0 9.55539e-06 
7305 6618 0 1.36838e-05 
7305 652 0 1.35227e-05 
9675 3389 0 1.62414e-05 
9675 1133 0 1.24391e-05 
9721 8648 0 1.55258e-05 
9721 9730 0 7.38173e-06 
9721 6791 0 9.39413e-06 
3389 8878 0 3.50014e-05 
3389 3900 0 7.44994e-07 
361 825 0 1.75825e-05 
9680 5546 0 1.78625e-05 
2469 4773 0 1.59713e-05 
2469 6139 0 1.20529e-05 
2077 6715 0 5.85924e-06 
2077 1426 0 2.18251e-05 
2077 6228 0 7.23822e-06 
7182 6963 0 6.68346e-07 
7182 4696 0 9.12253e-06 
7182 584 0 1.9788e-05 
643 6228 0 5.02992e-06 
643 8639 0 1.24422e-05 
8047 6534 0 3.37986e-06 
8047 1220 0 5.21834e-06 
8639 5614 0 8.06961e-06 
8639 3644 0 5.83301e-06 
245 5747 0 1.23273e-05 
245 8738 0 4.01254e-06 
245 7048 0 2.03736e-06 
3909 6534 0 4.40983e-06 
3909 7671 0 5.012e-06 
7303 6116 0 1.79651e-06 
7303 4849 0 4.23091e-06 
5614 5747 0 9.5709e-06 
5614 4849 0 5.28102e-06 
5747 6668 0 2.34387e-05 
5979 1453 0 7.32893e-06 
2996 906 0 1.53169e-06 
2996 7671 0 6.97714e-07 
7566 5008 0 9.45471e-08 
3302 7048 0 6.90931e-06 
6878 8136 0 8.10558e-06 
8635 7370 0 2.64559e-05 
8635 3534 0 2.24792e-05 
7183 2781 0 5.36181e-06 
7183 2360 0 2.01384e-06 
7248 1107 0 1.63779e-05 
6444 9741 0 5.51526e-06 
8025 3534 0 1.32885e-05 
8025 7499 0 2.72406e-05 
2781 2082 0 1.81842e-05 
3919 5167 0 3.89872e-05 
1133 8878 0 1.35055e-05 
1133 5188 0 1.30134e-05 
7042 2690 0 1.37031e-05 
7042 7043 0 2.48837e-05 
2082 652 0 1.86176e-05 
8878 1523 0 2.33099e-05 
8878 5609 0 2.79973e-05 
8878 5726 0 2.38582e-05 
1273 4414 0 2.69881e-05 
1273 3282 0 3.45439e-05 
1273 1523 0 2.67638e-05 
4414 9730 0 2.68939e-05 
6618 8281 0 8.76479e-06 
6618 5188 0 1.27524e-05 
6618 7214 0 7.14872e-07 
3282 877 0 2.06043e-05 
9730 7796 0 2.1273e-05 
9730 5241 0 7.88543e-06 
9730 2697 0 2.17627e-05 
2690 6139 0 7.10046e-06 
2690 660 0 5.71535e-06 
825 5546 0 1.55756e-05 
825 652 0 2.4904e-05 
825 5313 0 1.83584e-05 
8281 3900 0 1.37634e-05 
8281 5221 0 1.41855e-05 
877 1426 0 1.33955e-05 
877 1238 0 8.43483e-06 
877 1693 0 1.65247e-05 
6139 8306 0 1.02327e-05 
4773 5313 0 9.81777e-06 
5546 5221 0 1.4762e-06 
5546 7214 0 1.32758e-05 
5546 5313 0 4.5545e-06 
5546 9702 0 2.03873e-05 
3900 1426 0 2.17449e-05 
3900 5609 0 1.53683e-05 
3900 5817 0 1.45335e-05 
7796 346 0 1.92421e-05 
7796 1238 0 2.13434e-05 
5221 3885 0 6.17618e-06 
5817 246 0 1.41046e-05 
5817 4776 0 9.40975e-06 
1426 1693 0 5.52732e-06 
1426 3913 0 2.65924e-06 
246 2817 0 9.55665e-06 
246 1609 0 6.20679e-06 
8923 3202 0 7.66866e-06 
6963 6904 0 1.64293e-07 
2817 6534 0 7.36061e-06 
6228 1609 0 2.00159e-06 
6228 6358 0 1.00767e-05 
6904 3133 0 9.27652e-07 
6668 8738 0 5.80442e-06 
6668 6358 0 2.71106e-05 
6668 5973 0 1.43079e-05 
4696 1220 0 9.5462e-06 
6534 6116 0 2.98059e-06 
590 1609 0 5.57018e-06 
8738 3145 0 5.01453e-06 
6116 8319 0 4.21892e-06 
7038 9401 0 5.50251e-07 
1453 4342 0 5.89192e-06 
7671 1220 0 3.37281e-06 
7671 8319 0 4.56275e-06 
7671 1919 0 6.17424e-06 
4849 4885 0 8.0621e-06 
4849 5664 0 2.55075e-06 
7048 1054 0 3.11247e-06 
7048 9401 0 6.86433e-06 
5008 8319 0 4.80364e-06 
5008 3855 0 7.33001e-06 
4885 6631 0 8.39135e-06 
9276 4322 0 1.96918e-05 
1254 8276 0 2.67244e-07 
4503 5331 0 3.65648e-06 
6430 5149 0 2.4044e-05 
3838 5331 0 1.77753e-05 
8726 5167 0 6.88509e-06 
1107 1523 0 2.7678e-05 
1107 539 0 2.1052e-05 
1107 7499 0 1.16489e-05 
5941 9741 0 1.2877e-05 
7043 652 0 2.15393e-05 
7043 9741 0 5.77437e-06 
7043 3165 0 2.48664e-05 
1523 2497 0 1.10263e-06 
2676 9892 0 1.10768e-05 
2676 5241 0 4.69009e-06 
652 7214 0 1.06463e-06 
652 4554 0 1.7246e-05 
652 3895 0 3.88768e-06 
5188 7101 0 1.31358e-05 
7712 1976 0 6.85458e-06 
9892 7871 0 2.27306e-05 
660 9251 0 7.66519e-06 
7214 8838 0 7.59814e-06 
4347 1033 0 3.11842e-06 
5609 2892 0 2.29341e-05 
5609 7664 0 1.80927e-05 
5241 7664 0 1.44895e-05 
7664 3913 0 1.14566e-05 
7664 4674 0 2.91341e-05 
7664 9511 0 9.45604e-06 
5313 905 0 8.26887e-06 
3913 8679 0 3.12476e-06 
1238 2824 0 1.80919e-05 
9702 7235 0 1.66083e-05 
9702 5533 0 1.26e-05 
9702 5986 0 8.51733e-06 
4776 7235 0 7.27004e-06 
4776 7030 0 2.10433e-06 
4776 5827 0 7.61034e-06 
584 5671 0 7.79464e-06 
584 5448 0 1.76239e-05 
7235 9671 0 1.09417e-05 
3202 5827 0 8.1615e-06 
349 6358 0 3.82033e-05 
349 4674 0 3.36782e-05 
349 5748 0 8.38351e-06 
9754 4169 0 4.07047e-06 
1609 7030 0 1.16651e-06 
6358 8226 0 3.86355e-06 
6358 3145 0 1.19146e-05 
5671 6462 0 3.16617e-06 
9671 6879 0 8.14178e-06 
6879 8427 0 9.83075e-06 
6879 5757 0 1.09432e-05 
6879 3855 0 8.05594e-06 
5973 3644 0 1.32475e-05 
5973 8226 0 1.32263e-05 
3145 7674 0 2.46487e-06 
3145 9401 0 9.16238e-06 
3145 8185 0 5.25499e-06 
3145 8568 0 5.56547e-06 
4342 1220 0 6.31966e-06 
4342 6462 0 4.91925e-06 
4342 6059 0 2.75619e-06 
1220 8427 0 1.12508e-05 
8427 2321 0 6.96453e-06 
3644 3855 0 1.36395e-05 
9401 6631 0 7.83209e-06 
9401 7674 0 1.05466e-05 
9401 1163 0 7.95314e-06 
9401 4456 0 1.6339e-06 
9401 5257 0 3.81304e-06 
3855 2574 0 7.94364e-06 
3855 5664 0 1.01572e-05 
1919 5351 0 5.00742e-06 
5664 3156 0 3.44448e-06 
6631 533 0 8.57112e-06 
6631 6575 0 1.39553e-06 
9748 887 0 7.51337e-05 
11 7499 0 1.77788e-05 
11 1469 0 1.2268e-05 
4554 753 0 2.18001e-06 
7101 6151 0 5.42398e-06 
7101 2790 0 1.46619e-05 
8838 1033 0 2.97018e-06 
8838 2819 0 3.18608e-06 
5726 6151 0 2.13521e-05 
1976 2433 0 1.13705e-05 
1976 1685 0 2.0535e-05 
2433 1595 0 1.61665e-05 
5533 905 0 1.43337e-05 
5533 2819 0 9.98746e-06 
2892 5827 0 2.54334e-05 
8306 2959 0 8.94186e-06 
4674 9681 0 1.79325e-05 
4674 2494 0 1.98908e-05 
5448 2598 0 6.72788e-06 
5448 2511 0 1.99514e-05 
5986 3173 0 4.68154e-06 
5986 4340 0 1.04788e-05 
5827 3345 0 2.3349e-05 
5827 7496 0 2.31332e-05 
5827 5698 0 1.15724e-05 
9681 4169 0 1.50162e-05 
9681 1440 0 1.20238e-05 
9681 1852 0 7.68894e-06 
9681 4975 0 8.57341e-06 
4975 1852 0 6.02586e-06 
4975 8185 0 2.63312e-06 
7030 5698 0 9.52795e-06 
8226 3345 0 1.42249e-05 
8226 3249 0 6.78385e-06 
8185 1852 0 9.37795e-06 
588 3133 0 8.94477e-08 
588 2237 0 4.86517e-06 
588 2321 0 2.98283e-06 
5757 9571 0 5.71321e-06 
5757 8302 0 1.25641e-05 
3133 9496 0 7.96818e-07 
2321 7947 0 8.87238e-06 
9571 8568 0 3.89247e-06 
9571 6472 0 4.87316e-06 
4456 3877 0 2.39618e-06 
4456 9554 0 2.85758e-06 
7674 3156 0 7.45044e-06 
7674 8568 0 1.15847e-05 
4971 2103 0 5.60123e-06 
2574 2103 0 6.72623e-06 
3156 1672 0 6.72355e-06 
5351 6059 0 3.41191e-06 
6915 9358 0 2.26394e-05 
330 1208 0 9.26817e-05 
4170 1208 0 8.4836e-05 
2313 1469 0 1.60866e-05 
2313 1791 0 6.92851e-05 
5275 753 0 1.17139e-05 
5275 619 0 2.75409e-05 
2790 1791 0 6.86803e-06 
2790 619 0 2.47354e-05 
1469 3487 0 5.49524e-06 
753 2819 0 2.35787e-05 
6151 2459 0 6.38981e-06 
8405 9511 0 6.72079e-06 
8405 8290 0 1.5355e-06 
9251 1879 0 7.42404e-06 
9251 2959 0 1.5555e-05 
2819 3032 0 2.33178e-05 
2819 4790 0 3.52284e-06 
9511 2824 0 7.25192e-06 
9511 8679 0 1.27105e-05 
9511 6087 0 6.17254e-06 
905 3173 0 9.18089e-06 
2459 8679 0 1.50645e-05 
2459 7835 0 7.58477e-06 
2824 4034 0 8.53416e-06 
1226 2237 0 5.94511e-06 
1226 3032 0 5.48359e-06 
8679 5748 0 1.76339e-05 
2494 7010 0 2.28197e-05 
2494 6087 0 1.87357e-05 
2494 9291 0 2.06972e-05 
5748 3345 0 1.09015e-06 
5748 1852 0 1.40367e-05 
4340 2598 0 1.01794e-05 
4340 709 0 5.7845e-06 
5698 842 0 9.46477e-06 
5698 4132 0 1.53801e-05 
3345 8302 0 1.92738e-05 
1852 7010 0 9.68342e-06 
2598 6462 0 9.99425e-06 
3249 8568 0 1.63411e-05 
3249 7010 0 2.11029e-05 
3249 8302 0 9.4618e-06 
709 9496 0 7.67956e-06 
709 6046 0 6.56331e-06 
8302 8594 0 1.67815e-05 
8302 1630 0 1.85045e-05 
6462 8633 0 3.81257e-06 
8568 358 0 8.55458e-06 
9496 2103 0 1.95811e-06 
9496 8633 0 3.75813e-06 
513 7210 0 3.89081e-06 
513 6472 0 4.69728e-06 
6472 8594 0 1.29348e-05 
6472 77 0 1.54942e-05 
6059 8633 0 6.19796e-06 
2103 4110 0 1.62001e-06 
2103 7947 0 5.6525e-06 
2103 2426 0 6.22565e-07 
5257 2031 0 6.2469e-06 
5257 9554 0 6.34581e-06 
1392 4827 0 8.83255e-05 
9793 5136 0 8.45513e-06 
1208 4827 0 0.000100803 
4579 2940 0 6.40403e-07 
5758 8622 0 3.14556e-05 
5758 8854 0 2.1663e-05 
3487 7835 0 1.00308e-05 
5080 1560 0 1.15534e-06 
5080 1685 0 9.48057e-06 
8676 2959 0 1.39868e-05 
8676 1119 0 1.86682e-05 
8676 2708 0 1.18841e-05 
8290 1685 0 1.13901e-05 
8290 6087 0 9.62968e-06 
8290 3113 0 1.14418e-05 
1685 4034 0 2.04401e-05 
1685 7438 0 4.01357e-06 
2959 2511 0 1.47963e-05 
8622 7496 0 2.33271e-05 
8622 1807 0 1.55232e-05 
4034 1440 0 2.13839e-05 
4034 1182 0 2.71138e-05 
3173 1788 0 1.25326e-05 
3173 2708 0 2.24682e-05 
3032 4132 0 2.33862e-05 
7496 1807 0 9.95934e-06 
2511 9498 0 1.22402e-05 
7701 7010 0 1.04127e-05 
7701 1176 0 1.41407e-05 
7701 1638 0 3.50723e-06 
9291 3193 0 1.58066e-05 
9291 6579 0 1.08441e-05 
9498 3681 0 1.51157e-05 
3871 4132 0 5.51649e-07 
7010 1281 0 2.33796e-05 
7010 8216 0 2.21844e-05 
7010 5210 0 9.56e-06 
842 7210 0 8.41456e-06 
1281 9015 0 1.3108e-05 
1281 1522 0 4.54399e-06 
3681 8633 0 1.5468e-05 
3681 2371 0 4.77605e-06 
3681 4036 0 7.32599e-06 
9015 358 0 2.44923e-06 
9015 9554 0 1.28385e-05 
8633 6327 0 1.27147e-05 
8594 358 0 1.2482e-05 
8594 2328 0 6.66201e-06 
8594 7133 0 1.0901e-05 
8594 4348 0 8.57638e-06 
7947 1432 0 4.86807e-06 
7947 4732 0 1.21814e-05 
358 8542 0 1.46352e-05 
9554 2427 0 2.08205e-06 
9554 5568 0 8.57778e-07 
9554 3290 0 1.1006e-05 
9523 1927 0 1.81615e-06 
8542 4190 0 7.50527e-08 
8542 4275 0 1.38502e-05 
8542 3290 0 4.01366e-06 
1063 9358 0 1.69989e-05 
1791 4827 0 0.000141246 
5809 5276 0 5.3549e-05 
5809 4270 0 7.47665e-06 
619 1119 0 2.82644e-05 
619 3832 0 6.44258e-05 
91 7320 0 1.8408e-05 
7835 1176 0 1.8897e-05 
7809 9692 0 6.94137e-06 
7809 1165 0 4.36379e-06 
2708 4514 0 3.32931e-05 
2708 4957 0 1.92281e-05 
2708 9163 0 2.46475e-05 
4790 2720 0 3.71758e-07 
9692 8216 0 1.0072e-05 
4957 4870 0 1.41813e-05 
4957 4976 0 6.57749e-07 
1807 7814 0 5.64499e-06 
1176 1638 0 5.17422e-06 
1176 7276 0 1.1466e-05 
1176 1414 0 1.96736e-05 
4132 1638 0 1.02925e-05 
4132 9163 0 1.97561e-05 
4132 5625 0 8.93557e-06 
4132 4499 0 1.66851e-05 
1638 4404 0 4.16761e-06 
8216 7276 0 1.15556e-05 
8216 7409 0 1.77507e-05 
1788 2371 0 1.44825e-05 
1788 5911 0 1.17131e-05 
5046 1630 0 9.14081e-06 
5046 7276 0 1.79098e-05 
5046 4348 0 1.69292e-05 
1522 6050 0 1.39158e-05 
2371 1003 0 7.2627e-06 
2371 4956 0 9.05149e-06 
4499 1630 0 1.49541e-05 
4499 4404 0 6.17585e-06 
4499 4956 0 4.39128e-06 
1630 7604 0 1.76994e-05 
5210 4348 0 4.19632e-06 
5210 5022 0 9.95995e-06 
7604 2328 0 8.05922e-06 
7604 1432 0 2.13076e-06 
7604 4956 0 6.2498e-06 
7604 4732 0 9.90314e-06 
7604 3858 0 1.11874e-05 
4348 2328 0 8.88609e-06 
4348 7813 0 8.8692e-06 
4732 4956 0 2.37141e-05 
4732 3149 0 1.82948e-05 
2328 1432 0 6.12625e-06 
2328 9638 0 5.3592e-06 
6925 5022 0 4.34008e-06 
6925 653 0 1.16241e-06 
1432 3149 0 6.75322e-06 
1432 760 0 6.28281e-06 
653 7133 0 8.27891e-06 
653 3290 0 7.26274e-06 
6327 3836 0 1.88333e-06 
6327 6810 0 1.34389e-05 
760 7133 0 7.03718e-06 
7133 4383 0 1.12065e-05 
7133 4806 0 7.01197e-06 
3290 8483 0 9.86598e-06 
3290 4955 0 2.00433e-05 
3290 9462 0 7.44262e-06 
1927 9140 0 1.21611e-06 
3832 1397 0 1.67193e-05 
3418 7320 0 3.04305e-05 
2720 4898 0 6.94036e-06 
1639 5768 0 1.64313e-06 
7735 2131 0 1.03793e-05 
7735 1647 0 1.02049e-05 
4514 4565 0 1.57446e-05 
1647 3394 0 8.6712e-06 
1414 826 0 4.42954e-06 
1414 60 0 8.82898e-06 
1414 5099 0 1.73891e-05 
5422 1182 0 2.51578e-06 
7814 9163 0 3.61406e-06 
7814 4898 0 8.89523e-06 
7409 5768 0 1.2734e-05 
4870 4036 0 1.18725e-05 
4870 5911 0 9.29325e-06 
9163 9663 0 1.94143e-05 
7276 826 0 2.10633e-05 
6050 3394 0 1.41826e-05 
9663 4956 0 3.37201e-05 
9663 6889 0 8.74535e-06 
9663 4880 0 3.49457e-05 
4404 7419 0 5.47788e-06 
1822 9734 0 3.63175e-06 
4036 1484 0 9.20757e-06 
1003 3836 0 4.48221e-06 
1003 3324 0 6.44988e-06 
4956 4420 0 9.79468e-06 
5022 8483 0 1.04549e-05 
5022 4407 0 7.41655e-06 
9638 3858 0 5.49049e-06 
9638 7813 0 4.34321e-06 
9638 8709 0 6.12269e-06 
7813 1796 0 4.8028e-06 
8483 5568 0 7.3094e-06 
8483 3056 0 5.42919e-06 
3149 4091 0 2.60616e-06 
3149 8551 0 1.86756e-05 
4806 9653 0 6.27232e-06 
4806 6658 0 4.56871e-06 
4806 5760 0 5.42496e-06 
6810 1648 0 1.03637e-05 
6658 1562 0 6.37872e-07 
9007 7028 0 8.90682e-07 
9007 7259 0 3.15427e-08 
5922 4898 0 1.56483e-05 
5922 5666 0 1.29563e-05 
5922 4212 0 1.8112e-06 
5922 4984 0 7.78991e-06 
7683 4565 0 1.37052e-05 
4898 6381 0 1.67631e-05 
4898 60 0 3.11982e-06 
60 5492 0 8.11314e-06 
5768 8244 0 9.40887e-06 
5768 5099 0 1.71263e-05 
4976 8091 0 9.22443e-06 
6381 5911 0 1.84145e-05 
6381 2251 0 3.65989e-05 
3394 5762 0 1.04285e-06 
8091 7561 0 9.31836e-06 
4880 7975 0 2.083e-05 
4880 8055 0 3.01835e-05 
826 12 0 3.34222e-05 
826 9734 0 2.48207e-05 
826 3363 0 1.00039e-06 
9734 7419 0 4.84939e-06 
9734 2943 0 2.15692e-05 
9734 3154 0 1.92309e-06 
6889 4420 0 7.91564e-07 
6889 314 0 1.11588e-05 
7081 3858 0 1.50824e-05 
7081 3363 0 2.98034e-05 
7081 4869 0 1.01429e-05 
7419 1796 0 1.40836e-06 
4407 3782 0 1.01717e-05 
4407 7209 0 7.44575e-06 
4407 2943 0 6.97319e-06 
1484 8987 0 9.04082e-06 
1484 7561 0 1.48398e-05 
4420 3731 0 1.009e-05 
3858 4091 0 1.38395e-05 
3858 829 0 3.80264e-06 
1796 7209 0 7.81076e-06 
1796 2943 0 9.64313e-06 
4091 3324 0 7.91226e-06 
4091 7916 0 9.25259e-06 
4091 3731 0 1.45731e-06 
7209 9653 0 6.33323e-06 
7209 3056 0 9.73591e-06 
8709 8953 0 3.21868e-06 
8709 8130 0 6.26377e-06 
9653 9462 0 6.62117e-06 
9653 1625 0 5.76246e-06 
1648 8987 0 9.55284e-06 
8699 8551 0 7.13556e-06 
8699 6211 0 9.46809e-06 
8699 777 0 1.75836e-06 
5760 1625 0 2.13645e-06 
5760 8130 0 4.22749e-06 
9462 3056 0 5.69638e-06 
9462 4230 0 1.02049e-05 
9462 7269 0 5.06955e-06 
8551 8953 0 1.37094e-06 
8551 7916 0 4.86944e-06 
9140 1562 0 6.48885e-07 