ITEM: TIMESTEP
15750000
ITEM: NUMBER OF ENTRIES
9047
ITEM: BOX BOUNDS ff ff ff
-0.01 0.45
-0.15 0.15
-0.08 0.1
ITEM: ENTRIES c_ppc[1] c_ppc[2] c_ppc[3] c_ppc[4] 
2909 126 0 1.67729e-06 
924 3427 0 2.25488e-06 
11246 1657 0 7.29615e-06 
8594 12498 0 6.06068e-06 
6691 6130 0 2.26642e-06 
4461 14285 0 1.05955e-07 
678 6418 0 2.27793e-05 
11000 5921 0 0.000120569 
6418 12215 0 0.000251908 
12685 59 0 7.46793e-05 
1142 12215 0 0.000515256 
12215 4773 0 0.000185763 
2503 5444 0 0.000231009 
5444 5917 0 0.000290393 
906 960 0 1.39192e-05 
3087 5338 0 6.45812e-05 
3087 470 0 0.000392702 
2458 6370 0 0.000245588 
9553 13744 0 5.48333e-06 
11872 4388 0 1.08037e-05 
336 10323 0 4.27519e-06 
6843 4388 0 1.65623e-05 
10323 10691 0 1.85347e-05 
15576 9874 0 1.36359e-06 
15367 12491 0 3.53192e-06 
15367 6328 0 3.96293e-06 
6328 3296 0 1.1821e-05 
13552 900 0 4.87651e-06 
13552 15393 0 1.35005e-05 
3296 1213 0 3.39012e-06 
3296 15393 0 1.11239e-05 
14978 14673 0 5.65844e-06 
2857 13007 0 1.2176e-06 
13007 9623 0 2.10872e-06 
1571 11451 0 5.0107e-06 
1571 4348 0 2.25972e-06 
9687 14673 0 2.809e-06 
9687 11979 0 6.41995e-06 
11251 1956 0 6.06828e-06 
11451 1255 0 9.98378e-06 
4348 14957 0 2.64188e-06 
4348 134 0 1.01029e-06 
4348 11979 0 2.81281e-06 
4348 10180 0 3.32996e-06 
11979 4045 0 5.7162e-06 
11979 2429 0 4.86516e-06 
4045 1533 0 5.14593e-06 
4045 6580 0 3.08657e-07 
15338 8818 0 1.89404e-06 
14957 5735 0 4.56017e-06 
14957 13350 0 3.59263e-06 
134 13350 0 2.7651e-06 
134 8591 0 2.23175e-06 
5735 2418 0 2.19303e-06 
13350 2418 0 7.37455e-07 
13350 7514 0 9.96302e-07 
12039 7607 0 1.08767e-06 
6269 7413 0 2.68283e-06 
2418 4094 0 2.54077e-06 
2418 2245 0 3.02324e-06 
2418 7514 0 3.40911e-06 
2418 1155 0 2.35376e-06 
8591 9283 0 2.12473e-06 
8591 7514 0 2.71709e-06 
15200 11461 0 3.49955e-06 
4094 2245 0 2.62402e-06 
2245 6330 0 2.4655e-06 
2245 469 0 8.73715e-07 
9283 11272 0 1.61338e-06 
14216 1969 0 3.09695e-06 
14216 4827 0 6.20493e-06 
14216 7607 0 6.49671e-06 
14216 7631 0 3.51256e-06 
1969 4998 0 3.93241e-06 
11812 13013 0 1.3429e-06 
11461 1732 0 4.08026e-06 
7512 6330 0 7.35997e-07 
9074 11272 0 2.82254e-07 
11272 4827 0 1.49223e-06 
11154 4827 0 2.75049e-07 
11154 9718 0 1.24044e-06 
11198 15078 0 1.77103e-06 
11198 4468 0 5.12189e-07 
4827 14508 0 6.23872e-06 
13013 9718 0 2.61985e-06 
13013 13692 0 2.43267e-06 
15078 13692 0 3.52026e-06 
2020 12305 0 9.36407e-07 
2020 14766 0 1.20052e-06 
14508 9718 0 3.23069e-06 
14508 7748 0 7.70695e-06 
13692 9227 0 5.8142e-06 
13692 2563 0 1.78645e-06 
3229 6788 0 1.00649e-06 
431 433 0 1.97598e-06 
346 12305 0 1.17803e-06 
1285 7748 0 2.76775e-06 
1285 9227 0 2.84321e-06 
6788 9227 0 1.79467e-06 
6788 323 0 2.71529e-06 
12187 7020 0 9.60141e-07 
12187 2941 0 1.14022e-06 
7020 433 0 1.04491e-06 
7020 10112 0 2.02025e-06 
7748 6390 0 7.83098e-06 
7748 7007 0 4.43868e-06 
9227 8451 0 5.1213e-06 
9227 5060 0 3.98837e-06 
9227 844 0 3.05283e-07 
82 7029 0 9.38708e-07 
82 9359 0 5.70111e-07 
82 10112 0 1.33151e-06 
7029 6390 0 1.09377e-08 
7029 8872 0 8.09126e-07 
6390 13560 0 6.80448e-06 
6390 6647 0 3.29313e-06 
6390 6046 0 2.00672e-06 
8451 11855 0 5.42067e-06 
8451 7007 0 4.95173e-06 
8451 5060 0 4.51858e-06 
8451 4371 0 1.75771e-06 
2941 12753 0 2.42916e-06 
9359 7660 0 2.66141e-06 
13560 1474 0 6.38732e-06 
13560 13633 0 2.18856e-06 
6857 7204 0 2.47498e-06 
6857 11855 0 2.81976e-06 
7204 323 0 4.5921e-06 
7204 5060 0 6.7987e-06 
7204 4458 0 3.99945e-06 
6647 3891 0 2.25532e-06 
6647 13532 0 3.15881e-06 
11855 13532 0 5.49789e-06 
11855 7007 0 3.98034e-07 
7660 5176 0 3.37626e-06 
7660 1483 0 1.39282e-06 
1474 5176 0 5.56472e-06 
1474 748 0 3.74293e-06 
3891 1457 0 2.83688e-06 
13532 13323 0 9.53357e-07 
13532 10616 0 4.14297e-06 
13532 7242 0 3.49183e-06 
13532 13411 0 1.68336e-06 
13323 3117 0 1.42028e-06 
5176 8342 0 4.67578e-06 
5176 2609 0 1.79033e-06 
748 1377 0 3.94695e-06 
10616 1377 0 4.01056e-06 
7242 8248 0 2.73693e-06 
7242 3117 0 2.21318e-06 
7242 7828 0 2.37795e-06 
8342 6440 0 9.88443e-07 
8342 1561 0 3.77753e-06 
2609 6440 0 1.41874e-07 
2609 1187 0 2.02816e-06 
2948 4385 0 3.85264e-06 
2948 3117 0 2.74382e-06 
8248 1377 0 3.45227e-06 
8248 1924 0 2.41953e-06 
8709 1924 0 1.52972e-06 
8709 11665 0 7.26426e-07 
54 10130 0 4.04094e-07 
10130 1561 0 3.46295e-07 
14022 7099 0 5.71472e-05 
14922 2553 0 2.28277e-06 
11416 9521 0 1.70997e-05 
9623 602 0 5.12706e-06 
1533 3866 0 1.85866e-06 
1533 7607 0 5.63995e-06 
1533 11125 0 9.85979e-07 
4851 7607 0 1.59893e-07 
7514 1534 0 3.91032e-06 
1534 12217 0 4.76712e-06 
11468 6330 0 6.71255e-07 
6330 433 0 1.50505e-06 
6330 13387 0 1.98704e-06 
4236 13387 0 2.06271e-06 
12305 2061 0 3.84192e-07 
2563 13312 0 1.87639e-06 
433 14326 0 2.26057e-06 
8872 3468 0 2.69645e-06 
10112 1438 0 1.44947e-06 
10112 9506 0 1.50457e-06 
7007 14557 0 2.8065e-06 
11504 1561 0 3.6587e-06 
11504 4196 0 2.7275e-06 
3117 14200 0 7.70016e-07 
3117 11665 0 1.28824e-06 
1377 3362 0 5.88381e-06 
1377 8878 0 1.55947e-06 
1377 11196 0 3.03775e-06 
2584 7054 0 9.48552e-07 
5770 8817 0 5.64061e-06 
6604 6065 0 2.38354e-05 
13744 13465 0 5.82257e-06 
13641 7782 0 7.13741e-06 
10691 14727 0 1.15271e-05 
10691 1415 0 1.51983e-05 
8582 15583 0 8.18962e-06 
15548 13245 0 5.85925e-06 
14727 14140 0 1.07912e-06 
14727 15556 0 1.09644e-05 
11094 13307 0 6.24735e-06 
7065 2427 0 1.69248e-06 
7065 15476 0 2.4025e-06 
13660 2429 0 2.75117e-06 
1255 14423 0 6.82114e-06 
3809 10180 0 3.12315e-07 
2429 15070 0 6.68377e-06 
6580 11125 0 7.96294e-06 
6397 13922 0 2.64369e-06 
11969 3534 0 5.24268e-06 
11969 7413 0 1.13917e-06 
11969 7250 0 4.88745e-06 
3534 9971 0 9.00498e-06 
11913 11798 0 1.3049e-05 
10180 198 0 4.56038e-06 
10180 1155 0 5.19006e-06 
198 15285 0 6.16474e-06 
11125 9950 0 2.76298e-06 
11125 4879 0 9.25097e-06 
11125 5726 0 6.25975e-06 
9971 6752 0 1.51233e-06 
1155 3771 0 5.52066e-06 
15285 7638 0 7.71971e-06 
7413 4998 0 1.13632e-07 
3771 7522 0 1.5712e-06 
3771 5953 0 6.92664e-07 
1916 1621 0 1.57297e-07 
7638 12618 0 5.89501e-06 
7638 3715 0 1.86699e-06 
7638 5529 0 1.09532e-05 
6933 4998 0 2.08841e-06 
6933 1732 0 2.42883e-06 
6933 12283 0 1.31317e-06 
13322 12728 0 1.61327e-06 
13322 1732 0 7.37137e-06 
469 3171 0 1.03921e-06 
469 15106 0 1.15647e-06 
12618 12217 0 2.37687e-06 
4998 12567 0 2.87938e-06 
1732 11837 0 3.52087e-06 
1732 15138 0 8.45603e-06 
7522 13387 0 1.37928e-06 
3639 7827 0 8.21909e-06 
12217 14979 0 3.93843e-06 
7631 13556 0 1.77718e-06 
6678 13302 0 7.84942e-07 
11837 12726 0 1.8625e-06 
13387 1454 0 4.40161e-06 
13387 10123 0 2.88028e-06 
14766 9672 0 2.13967e-06 
14766 14188 0 2.25516e-06 
2758 7910 0 3.72591e-07 
14979 3468 0 4.09201e-06 
14979 4087 0 2.49826e-06 
12726 5077 0 1.59557e-06 
11311 11192 0 3.09699e-07 
3468 1208 0 4.68943e-06 
9672 13312 0 1.35827e-06 
9672 14726 0 1.36966e-06 
9672 7511 0 4.40818e-07 
13312 14726 0 2.74878e-07 
11192 7910 0 3.94939e-08 
1438 14296 0 4.85481e-08 
14726 4371 0 1.5624e-06 
14726 6046 0 1.28183e-06 
4371 679 0 1.26443e-06 
844 5077 0 1.55071e-06 
844 13325 0 2.77606e-06 
6046 14557 0 3.72256e-07 
6046 1208 0 2.50591e-06 
4775 1840 0 9.99261e-07 
4775 9034 0 2.11952e-06 
9506 9034 0 2.1835e-06 
9506 8251 0 2.61301e-06 
8251 13633 0 2.22099e-06 
8251 4988 0 1.77076e-06 
8251 1208 0 3.30966e-06 
8251 446 0 1.19912e-06 
13633 5659 0 1.51411e-06 
14557 8842 0 1.67369e-07 
14557 1170 0 7.46461e-07 
14557 5659 0 1.25862e-06 
12287 8842 0 7.6196e-07 
12287 13325 0 1.44786e-06 
4988 1483 0 1.4564e-06 
4988 12859 0 3.9951e-07 
8842 3952 0 3.55923e-07 
12587 8832 0 1.36659e-06 
12587 8665 0 1.45374e-06 
1840 4196 0 9.77251e-07 
1483 4196 0 1.42764e-06 
1483 9064 0 1.42379e-07 
12859 1516 0 1.63223e-07 
1457 7037 0 2.62049e-06 
618 6451 0 1.35555e-06 
618 417 0 2.35072e-06 
618 9879 0 1.42346e-06 
8665 9526 0 2.61463e-07 
4196 8552 0 3.85645e-06 
4196 6467 0 3.31138e-06 
4196 12070 0 1.53513e-06 
1516 8878 0 1.04115e-06 
1516 9514 0 5.74661e-07 
1516 12635 0 1.17126e-06 
8878 13411 0 4.50579e-07 
8878 3952 0 1.98828e-06 
13411 9367 0 1.77909e-06 
6451 14200 0 6.86957e-07 
6451 7828 0 1.80379e-06 
14200 12155 0 1.2802e-06 
8552 7185 0 3.89101e-06 
8552 5374 0 2.00373e-06 
7185 11196 0 3.42485e-06 
7185 9737 0 9.81173e-07 
7185 3793 0 1.24911e-06 
7828 7054 0 2.11511e-06 
5374 9737 0 7.35845e-07 
5374 4639 0 1.97775e-06 
11665 2735 0 1.14964e-06 
1745 7971 0 5.36254e-07 
11918 11432 0 8.36534e-06 
1415 15502 0 1.58372e-05 
13245 1384 0 1.52418e-05 
396 11448 0 5.80886e-06 
5995 15476 0 1.92331e-06 
5995 14423 0 3.09594e-06 
15476 1067 0 2.60047e-06 
10207 6202 0 6.06229e-06 
12903 1067 0 5.44627e-06 
13922 7306 0 8.12248e-06 
15070 15238 0 4.83871e-06 
1235 14472 0 1.20066e-05 
9950 15238 0 3.91296e-06 
4879 7250 0 8.97868e-06 
12283 11743 0 3.45999e-07 
3171 1621 0 6.72868e-07 
3171 15106 0 4.66797e-06 
3171 12842 0 8.90098e-06 
12567 3715 0 9.68697e-07 
12567 11743 0 3.45135e-06 
12567 9972 0 5.27906e-06 
5953 15106 0 4.66528e-06 
5953 12723 0 5.94346e-06 
15106 1454 0 4.32006e-06 
3746 5529 0 7.01784e-06 
3715 4065 0 3.56101e-06 
12194 9972 0 9.40375e-08 
12194 8713 0 3.3836e-07 
14188 4065 0 2.72419e-06 
1454 7827 0 3.04717e-06 
1454 13115 0 1.40235e-06 
1454 6211 0 5.15146e-06 
15081 13441 0 3.0506e-06 
15081 9972 0 4.74825e-06 
13302 5077 0 9.12326e-07 
4087 13441 0 1.39283e-06 
4087 9391 0 2.70679e-06 
4087 14328 0 1.36805e-06 
4087 6339 0 2.05977e-06 
7499 13115 0 5.17835e-07 
7499 13395 0 1.19868e-06 
5077 679 0 4.72645e-06 
5077 3419 0 1.47856e-06 
679 5557 0 1.65021e-06 
679 6262 0 2.72225e-06 
9034 10939 0 1.51282e-06 
1208 6339 0 2.72768e-06 
1611 1170 0 6.34373e-07 
1611 5659 0 1.45017e-06 
1611 6701 0 8.87315e-07 
13325 417 0 3.03359e-06 
13325 6262 0 5.15045e-07 
12757 6467 0 3.2308e-06 
12757 8630 0 3.20988e-06 
7839 6467 0 2.1553e-06 
7839 8630 0 3.13157e-06 
7839 1195 0 1.02562e-06 
7839 4930 0 3.4553e-06 
7037 13595 0 1.8594e-06 
7037 4930 0 1.84173e-06 
5659 3952 0 2.13258e-06 
5659 13595 0 1.88935e-06 
417 11652 0 1.49766e-06 
11652 13265 0 4.75767e-07 
11652 7253 0 1.09357e-06 
3952 9879 0 2.10491e-06 
9064 4930 0 6.77098e-07 
9064 13958 0 1.48683e-07 
4009 13808 0 2.61079e-07 
9367 7971 0 1.32263e-06 
9367 9879 0 1.01754e-06 
9367 5808 0 1.49529e-06 
3793 9930 0 8.51663e-07 
10822 13958 0 1.49466e-06 
10822 8913 0 1.5175e-06 
7971 10961 0 4.68509e-07 
4639 8913 0 1.67397e-06 
2695 7683 0 5.2987e-08 
14399 1067 0 2.94352e-07 
1384 7390 0 1.29848e-05 
8923 6923 0 5.86389e-06 
8923 13293 0 3.21211e-06 
5726 7250 0 4.37017e-06 
5726 3201 0 7.27955e-06 
7250 1577 0 1.00654e-05 
12842 1370 0 1.35871e-05 
12842 8885 0 6.07037e-07 
1665 2757 0 1.65235e-06 
12723 8436 0 1.05298e-05 
12723 15096 0 7.47477e-06 
5529 4065 0 5.50275e-06 
5529 11919 0 9.69404e-06 
5529 9097 0 5.15841e-06 
6768 6752 0 2.54545e-06 
6768 11169 0 4.34306e-06 
4065 11390 0 3.13584e-06 
2561 5498 0 1.53716e-06 
13699 3266 0 1.00633e-06 
7827 1646 0 1.49718e-05 
9972 10481 0 4.00559e-07 
2562 10481 0 2.96085e-07 
2562 3419 0 2.1686e-06 
13205 9391 0 2.17457e-06 
13205 14328 0 1.76215e-06 
13205 9097 0 4.69531e-06 
13205 4577 0 5.72575e-06 
9391 8884 0 2.74665e-06 
10481 5557 0 8.50513e-07 
3419 8015 0 8.78273e-07 
6211 14328 0 4.03356e-07 
6211 9193 0 7.20316e-06 
6211 6740 0 9.4293e-06 
6211 1628 0 1.92941e-06 
14328 6339 0 2.95556e-07 
9193 6339 0 5.25142e-06 
9193 9712 0 3.94911e-06 
6339 446 0 6.18032e-07 
6339 9138 0 3.72449e-06 
6339 13042 0 2.79509e-06 
5557 8579 0 1.53661e-06 
14967 13422 0 6.11045e-07 
14967 12230 0 4.88163e-08 
14967 5228 0 1.40967e-06 
13422 14712 0 3.65474e-07 
10939 7925 0 2.09623e-06 
10939 8630 0 3.3089e-06 
10939 13395 0 3.74735e-06 
10939 6386 0 3.29866e-07 
7925 1195 0 2.5924e-06 
7925 14772 0 1.93131e-06 
446 9138 0 1.25569e-06 
446 9712 0 1.17607e-06 
9138 13595 0 1.57214e-06 
9138 4093 0 2.62552e-06 
9138 5525 0 2.78368e-06 
6262 8579 0 1.13271e-06 
6262 9080 0 4.61097e-07 
6262 13240 0 2.03698e-06 
12230 13240 0 8.51974e-07 
8630 1195 0 2.62003e-06 
8630 6885 0 1.58316e-06 
1195 13113 0 2.21159e-06 
1195 9712 0 2.73996e-06 
13113 4930 0 3.49928e-07 
13595 6655 0 1.92125e-06 
102 9879 0 2.40957e-06 
102 13240 0 1.78556e-06 
4930 12635 0 2.48502e-06 
9879 13808 0 2.31384e-06 
7253 5626 0 1.96509e-06 
3052 13473 0 5.34535e-07 
12635 13958 0 1.42618e-06 
12635 8134 0 2.2754e-06 
13958 4846 0 4.4523e-07 
5808 6080 0 1.35451e-06 
8913 12274 0 7.37403e-07 
15609 14651 0 1.93712e-05 
15612 15645 0 0.000205171 
15502 6276 0 1.43059e-05 
8337 7262 0 9.54225e-07 
11713 10584 0 7.31923e-07 
6199 15238 0 1.13307e-05 
13293 14228 0 5.28178e-06 
6688 8436 0 9.28826e-06 
6688 6680 0 9.98986e-07 
10584 15238 0 5.86555e-07 
14228 8436 0 9.66829e-06 
14228 12049 0 4.36238e-06 
15238 11919 0 6.28277e-07 
1577 5125 0 9.4219e-06 
8436 4021 0 4.04999e-06 
11919 11390 0 2.99034e-06 
11919 10634 0 1.04531e-05 
15536 15465 0 4.77657e-07 
8885 15096 0 4.8816e-07 
8885 4021 0 4.37693e-06 
11390 9097 0 1.72507e-06 
11390 15205 0 1.05109e-06 
11390 13797 0 3.76172e-06 
15096 6740 0 5.75311e-06 
15096 8838 0 3.71871e-06 
1646 4577 0 1.12785e-05 
1646 12910 0 1.55575e-05 
9097 4577 0 5.38703e-06 
11169 11092 0 6.60855e-06 
11169 8133 0 2.29672e-07 
6740 4577 0 6.79854e-06 
6740 11714 0 5.61337e-06 
6740 11963 0 1.24621e-05 
4577 8633 0 5.55069e-06 
15205 8884 0 1.3006e-06 
10507 4485 0 2.93619e-06 
10507 9447 0 3.74102e-06 
8838 11714 0 3.37797e-06 
8838 12008 0 4.19943e-06 
8884 11505 0 1.61317e-06 
8884 6389 0 2.0381e-06 
11714 14531 0 4.28262e-06 
11714 14772 0 2.66524e-06 
11714 12620 0 2.16543e-06 
1628 8933 0 8.53697e-06 
1628 14178 0 5.43553e-06 
8633 13079 0 5.2672e-06 
8015 5228 0 9.55152e-07 
14531 13395 0 4.41127e-06 
14531 13246 0 2.31636e-08 
13042 5024 0 3.50609e-06 
13042 13079 0 2.37614e-06 
5024 6389 0 3.80423e-06 
5228 6389 0 3.04574e-06 
13395 11022 0 3.63099e-06 
9712 4480 0 1.58103e-06 
9712 10222 0 2.71181e-06 
4480 13079 0 1.37887e-06 
8579 4849 0 1.7515e-06 
8579 9080 0 2.43773e-06 
8579 6389 0 4.91217e-07 
4849 14712 0 2.48193e-06 
14712 10804 0 3.23257e-06 
14712 7689 0 2.45651e-06 
4093 9080 0 2.00148e-06 
4093 13809 0 9.22257e-07 
9080 3997 0 1.94782e-06 
6885 13246 0 1.32022e-06 
6655 3343 0 2.17632e-06 
5525 12630 0 9.76319e-07 
5525 3997 0 4.9616e-07 
5525 4513 0 1.02107e-06 
5525 7058 0 1.63432e-06 
13240 1065 0 2.76774e-06 
13240 9437 0 2.63825e-06 
1065 14229 0 9.90639e-07 
6386 11022 0 1.71812e-06 
6386 13473 0 1.11625e-06 
12630 13808 0 6.69905e-07 
13808 8134 0 1.53324e-06 
13808 7278 0 2.42685e-06 
3039 13473 0 9.02679e-07 
3039 3187 0 4.50311e-07 
8196 4973 0 1.41539e-06 
8196 11069 0 6.14721e-07 
8134 9930 0 9.91772e-07 
8134 4210 0 1.84442e-06 
4846 12274 0 1.08916e-06 
4846 5235 0 5.01676e-07 
4846 4973 0 1.21366e-06 
9930 5235 0 1.07662e-06 
9930 9536 0 1.10824e-06 
5235 3975 0 6.66363e-07 
6276 9417 0 1.65043e-05 
13399 10634 0 1.03074e-05 
13399 2124 0 1.16995e-05 
13399 6680 0 5.52875e-06 
13399 15462 0 5.09334e-06 
1653 13096 0 8.80428e-06 
10634 7926 0 8.21003e-06 
4021 3067 0 7.92942e-06 
4021 3332 0 1.00508e-05 
6609 15465 0 1.00874e-05 
12910 3332 0 6.85772e-06 
4611 15588 0 3.56747e-07 
2530 737 0 6.42974e-06 
12032 11963 0 3.63162e-06 
12032 2560 0 1.44705e-06 
12032 13589 0 1.52928e-06 
10823 11092 0 6.79637e-06 
10823 13797 0 2.8848e-06 
10823 10978 0 6.69753e-06 
8133 9089 0 7.42425e-07 
737 11963 0 7.21119e-06 
737 6226 0 5.37393e-06 
11963 8933 0 1.39741e-05 
11963 7280 0 1.66685e-05 
6261 13221 0 1.58896e-06 
6261 13589 0 1.07656e-06 
9447 11505 0 1.69978e-06 
9447 2573 0 5.20144e-06 
9447 450 0 3.31537e-06 
9447 9089 0 3.96175e-06 
8933 3721 0 2.76336e-06 
8933 3647 0 6.09817e-06 
5015 4485 0 2.85192e-06 
5015 7689 0 2.59214e-06 
5015 6206 0 2.8262e-06 
6389 2573 0 4.52889e-06 
6389 9125 0 1.90352e-06 
2573 289 0 3.33084e-06 
2573 8153 0 4.07788e-06 
12620 14178 0 3.13466e-06 
12620 13246 0 1.95078e-06 
12620 14834 0 1.82379e-06 
12620 13383 0 2.29491e-06 
14178 6468 0 4.01375e-06 
13079 11472 0 2.75734e-06 
13079 1925 0 9.44911e-07 
13079 6468 0 3.90432e-06 
11472 14896 0 5.78663e-06 
11472 9484 0 8.71029e-06 
11472 12661 0 5.03457e-06 
7689 14910 0 1.45808e-06 
13246 11022 0 2.60946e-06 
13809 9125 0 1.83963e-06 
11022 11278 0 4.30312e-06 
14896 6468 0 2.68885e-06 
3691 14832 0 3.38612e-08 
3691 7489 0 7.58853e-07 
14229 8153 0 3.85138e-06 
10222 5035 0 2.57143e-06 
10222 454 0 1.1928e-06 
10222 13639 0 6.19666e-07 
3997 13555 0 2.3459e-06 
9437 58 0 2.80243e-06 
5035 4973 0 1.91768e-06 
5035 7833 0 1.57148e-06 
5035 14023 0 2.74988e-06 
454 4513 0 8.36824e-07 
454 13306 0 9.10073e-07 
4513 11069 0 6.38966e-07 
4513 12495 0 2.25387e-07 
13035 14832 0 1.64467e-06 
13473 4920 0 1.38686e-06 
11069 4552 0 2.03093e-07 
13555 7776 0 8.15524e-07 
13555 4210 0 2.50658e-06 
13555 5704 0 2.10042e-06 
9536 6135 0 9.28568e-07 
7278 8511 0 1.45511e-06 
7278 5704 0 1.67194e-06 
6106 3187 0 2.01094e-06 
8511 4834 0 7.07558e-07 
8511 7144 0 7.89799e-07 
3009 3187 0 6.18703e-07 
6734 4834 0 4.96486e-07 
1928 13239 0 7.21443e-05 
1551 4850 0 2.04996e-05 
2723 3067 0 1.15823e-06 
15579 10764 0 1.17303e-06 
13096 5262 0 8.25292e-06 
5592 15243 0 3.75363e-06 
3332 529 0 4.17574e-06 
3332 7280 0 9.75723e-06 
3332 6641 0 5.01626e-06 
12948 13797 0 4.55703e-06 
12948 10764 0 6.53966e-06 
12948 7997 0 2.01211e-06 
15588 13894 0 1.03503e-05 
15588 5262 0 5.76962e-06 
15465 7567 0 5.93011e-06 
7926 13589 0 4.63965e-06 
7280 7987 0 8.95807e-06 
450 12115 0 2.91397e-06 
9089 7963 0 2.14732e-06 
6226 3721 0 4.18815e-06 
10978 9484 0 6.44876e-06 
10978 9435 0 2.62481e-06 
14834 13383 0 2.97635e-06 
14834 8106 0 3.50065e-06 
14834 4354 0 2.51358e-06 
3721 7163 0 2.40332e-06 
1925 5531 0 1.44557e-06 
1925 9435 0 2.83783e-06 
1925 9085 0 2.42394e-06 
289 13161 0 1.2941e-06 
9125 8153 0 1.53614e-06 
9125 11023 0 7.07622e-07 
9125 10233 0 2.62598e-06 
9125 7489 0 1.52693e-06 
13383 11278 0 4.60954e-06 
13383 13639 0 3.2417e-06 
6468 9085 0 1.94836e-06 
6468 12921 0 2.8708e-06 
11278 814 0 2.73599e-06 
11278 9816 0 4.64383e-06 
13639 3343 0 2.95524e-06 
3343 12495 0 1.15317e-06 
12661 58 0 4.05989e-06 
12661 9085 0 2.91932e-06 
12661 7489 0 2.75597e-06 
12661 3387 0 3.34077e-07 
7833 12931 0 8.38072e-07 
7833 11532 0 1.94796e-06 
12495 7290 0 1.0963e-06 
58 5526 0 2.03478e-06 
58 2087 0 1.99011e-06 
7776 12996 0 1.07366e-06 
7776 12807 0 1.75214e-07 
6109 5853 0 9.96226e-08 
6109 12549 0 1.79635e-06 
14023 4920 0 2.43683e-06 
14023 2301 0 2.71416e-06 
14023 14815 0 2.39247e-06 
13306 1055 0 7.90203e-07 
13306 12785 0 1.7617e-06 
13306 8598 0 3.54035e-07 
12549 14349 0 1.04188e-06 
12549 14474 0 1.27005e-06 
4920 6918 0 2.52062e-06 
4210 3584 0 3.43811e-06 
5704 14349 0 1.10384e-06 
5704 6568 0 3.15898e-06 
14349 4055 0 4.2955e-07 
3187 8275 0 7.12383e-07 
3584 8598 0 3.05897e-06 
6135 6568 0 9.53877e-07 
6135 3167 0 2.05287e-07 
14474 14111 0 2.03171e-06 
14474 7042 0 2.26124e-06 
6918 9131 0 2.2481e-06 
10604 5577 0 1.76861e-08 
9244 5262 0 3.27502e-06 
13943 6607 0 2.04182e-06 
6641 4850 0 4.12142e-07 
15410 10764 0 3.67882e-06 
15410 7997 0 1.53451e-05 
10764 3634 0 1.07364e-05 
5262 6986 0 4.75689e-06 
7963 13919 0 6.89864e-06 
7963 2992 0 7.12565e-06 
15243 6607 0 1.50634e-06 
15243 6271 0 1.95236e-06 
12115 6986 0 3.09587e-06 
12115 12529 0 6.42474e-07 
13919 8769 0 1.62919e-06 
6984 13161 0 2.97564e-06 
6984 13736 0 6.17919e-06 
6984 357 0 3.52521e-07 
13161 4529 0 5.00544e-08 
13161 12539 0 8.17781e-07 
5531 5326 0 1.82948e-07 
9435 4529 0 1.76738e-08 
9435 5326 0 8.16806e-07 
4529 1073 0 2.06374e-06 
12539 6206 0 1.17352e-06 
6206 15375 0 3.30516e-07 
6206 10233 0 2.01432e-06 
15375 14910 0 9.16104e-07 
15375 8769 0 8.25823e-07 
8106 10167 0 5.46158e-06 
10233 10884 0 1.31231e-06 
14910 7690 0 2.66707e-06 
11023 3387 0 1.77291e-06 
11551 13120 0 3.47966e-06 
9085 6492 0 2.63967e-06 
9085 15073 0 2.24551e-06 
12931 12921 0 1.3866e-06 
12931 11752 0 1.27441e-06 
12931 10154 0 1.80504e-06 
12921 4391 0 3.54373e-07 
6492 4191 0 1.52439e-06 
814 2301 0 2.2967e-06 
814 10154 0 1.13147e-06 
12996 14372 0 1.18451e-06 
2301 2529 0 1.6995e-06 
2301 9683 0 1.35977e-06 
14815 8275 0 1.7622e-06 
14815 10154 0 2.00072e-06 
14815 11329 0 1.34324e-06 
2389 7107 0 6.09525e-07 
8275 3447 0 1.58301e-06 
8598 3447 0 3.73886e-06 
8598 7430 0 6.83433e-07 
4055 14219 0 3.79879e-07 
3447 10158 0 2.47438e-06 
6568 7940 0 1.70088e-08 
6568 11378 0 3.74427e-06 
7042 11518 0 1.26504e-06 
7042 14219 0 2.85954e-06 
7042 9238 0 7.8195e-07 
7042 7711 0 6.71491e-07 
11518 3158 0 1.63624e-07 
11518 4861 0 1.42562e-06 
11518 12334 0 7.33752e-07 
10158 8063 0 8.12031e-07 
51 2365 0 4.63133e-07 
14219 11378 0 2.55978e-06 
14219 7815 0 1.26005e-06 
2406 15515 0 2.90296e-06 
7997 12031 0 1.03828e-05 
6986 1128 0 9.93677e-06 
718 2445 0 1.24258e-06 
718 2621 0 1.12861e-05 
7987 11664 0 3.02511e-06 
13736 12031 0 2.2682e-06 
6271 10167 0 5.91376e-06 
6271 9691 0 3.32705e-06 
357 8296 0 3.92824e-06 
357 10919 0 1.94547e-06 
8769 10884 0 2.03203e-06 
10167 8463 0 4.61188e-06 
10776 2621 0 1.58376e-06 
11664 14538 0 1.71936e-06 
8296 12330 0 2.93161e-06 
8296 9141 0 6.13168e-06 
4354 9200 0 2.67191e-06 
9200 12295 0 2.98139e-07 
9200 11634 0 2.49689e-06 
10884 9118 0 1.20567e-06 
8463 11752 0 2.22308e-06 
8463 9816 0 6.62439e-06 
8463 7418 0 6.45601e-06 
8463 8288 0 3.5946e-06 
12295 11634 0 1.60824e-06 
15073 1073 0 2.82353e-06 
15073 7290 0 1.65961e-06 
15073 11634 0 4.20546e-06 
15073 9445 0 2.60093e-06 
1073 3387 0 9.29051e-07 
3387 12800 0 8.49083e-07 
3387 6098 0 3.78291e-07 
1838 6436 0 6.52932e-07 
1838 560 0 2.4996e-07 
6436 1050 0 2.36084e-06 
6436 12330 0 2.03685e-06 
9816 1310 0 2.67359e-06 
9816 2600 0 4.86141e-06 
7290 2734 0 1.61338e-06 
10154 1310 0 1.61901e-06 
10154 6188 0 1.72083e-06 
12800 4017 0 2.92554e-07 
4191 5513 0 1.24041e-06 
4017 7107 0 8.65153e-07 
9683 2600 0 1.59445e-06 
9683 533 0 2.47207e-06 
5513 3167 0 1.38972e-06 
5513 3844 0 1.02104e-06 
5513 14036 0 1.18522e-06 
9238 7711 0 1.02663e-06 
11329 6638 0 1.29092e-06 
7711 3100 0 1.36972e-06 
351 9131 0 2.00086e-06 
351 10191 0 2.34156e-06 
1017 533 0 1.80357e-06 
3167 7940 0 1.21052e-06 
3167 7672 0 1.39944e-06 
7940 110 0 4.99213e-07 
1866 2365 0 2.56403e-06 
13416 2445 0 7.83822e-07 
7061 12031 0 1.16388e-06 
9691 2445 0 5.29357e-06 
9691 9711 0 1.28268e-06 
2445 7555 0 4.42335e-06 
7555 15429 0 1.50873e-06 
12031 5456 0 1.78155e-06 
1128 6438 0 9.27455e-06 
11923 6438 0 2.42266e-05 
11923 2393 0 3.90694e-06 
12142 7967 0 3.62665e-06 
12142 9030 0 8.07366e-07 
2621 7418 0 9.7146e-06 
7967 11634 0 4.74506e-06 
10919 11634 0 1.82858e-06 
7418 11638 0 9.7245e-06 
11634 8993 0 3.76634e-06 
11634 12914 0 1.30369e-06 
8993 2734 0 2.23108e-06 
8993 4607 0 1.21881e-06 
9118 6496 0 2.94842e-07 
9118 3582 0 1.11396e-06 
11638 3319 0 7.63222e-06 
1310 4598 0 2.60988e-06 
4598 2734 0 3.07727e-06 
4598 2417 0 2.23158e-06 
2734 14372 0 1.81541e-06 
14528 568 0 4.33878e-07 
14528 13040 0 4.31265e-07 
540 3582 0 1.86248e-06 
540 2296 0 1.80777e-06 
3254 10398 0 5.35384e-07 
2600 9818 0 3.54355e-06 
14372 3844 0 1.0732e-06 
568 2032 0 9.47244e-07 
568 8141 0 8.81236e-07 
568 8827 0 1.53877e-06 
9818 13208 0 1.86527e-06 
4613 8981 0 1.34166e-06 
4613 8747 0 2.04057e-06 
7107 5149 0 1.24834e-06 
2032 3100 0 1.5955e-06 
2032 2296 0 1.50524e-06 
7216 1667 0 1.66061e-07 
6638 6816 0 1.26776e-06 
5149 3100 0 1.78593e-06 
5149 14036 0 1.9857e-06 
5149 6108 0 2.12287e-06 
3100 13481 0 1.63488e-06 
7672 2365 0 9.08844e-07 
7672 14036 0 2.45577e-06 
7672 1847 0 1.69246e-06 
13481 110 0 1.32945e-06 
2365 6955 0 1.77946e-06 
9711 9070 0 3.23058e-06 
5456 2646 0 1.13283e-06 
8361 15542 0 1.61542e-06 
6438 6001 0 3.49059e-06 
2393 6823 0 2.05197e-06 
10673 5674 0 2.22156e-06 
10673 12914 0 1.39873e-07 
10673 1837 0 1.81979e-06 
14064 4443 0 7.36734e-07 
9503 495 0 8.69861e-06 
14538 11850 0 1.27131e-06 
12914 15353 0 7.95371e-07 
8288 9616 0 2.93669e-06 
8288 4209 0 2.49997e-06 
8288 7759 0 2.27494e-06 
10402 6679 0 3.08124e-07 
9445 13687 0 8.04751e-07 
9445 12037 0 1.78901e-06 
3582 6679 0 1.24208e-06 
9616 8339 0 2.43681e-06 
3319 13208 0 2.7691e-06 
3319 2417 0 1.41224e-07 
3319 13914 0 3.73919e-06 
3319 5250 0 2.51618e-06 
13208 8747 0 1.53496e-06 
13208 2021 0 1.40987e-06 
8747 13747 0 8.35696e-07 
8747 12037 0 2.09332e-06 
13687 8141 0 2.91579e-06 
13687 8197 0 2.60041e-06 
13687 10195 0 1.95469e-06 
8141 3844 0 8.93703e-08 
11030 5492 0 2.34924e-06 
8339 6409 0 2.41846e-06 
8339 13914 0 2.55464e-06 
8197 3844 0 1.79392e-06 
8197 6816 0 3.05953e-06 
8197 14934 0 4.0316e-06 
6409 2021 0 3.27515e-06 
6409 10191 0 3.92121e-06 
6409 9949 0 8.69097e-07 
6409 4395 0 2.04552e-06 
2021 13747 0 3.45062e-06 
13747 6816 0 3.2469e-06 
6816 14036 0 3.17551e-06 
4615 9292 0 9.61659e-07 
9235 6108 0 1.47746e-06 
6457 6955 0 6.37699e-07 
6457 8822 0 2.02982e-07 
12474 12334 0 9.98535e-07 
2646 15442 0 1.28709e-06 
9070 982 0 3.78967e-06 
982 11438 0 5.52844e-06 
12131 6347 0 2.803e-06 
6909 6007 0 2.48419e-06 
10621 13408 0 5.04838e-06 
10621 2928 0 3.95926e-06 
6823 2928 0 6.80927e-06 
6007 13408 0 5.17779e-06 
6007 10862 0 5.18184e-06 
13408 3617 0 6.13667e-06 
11438 11850 0 7.5262e-07 
11438 4209 0 5.64615e-06 
11438 8182 0 1.53447e-06 
1837 8928 0 4.6686e-07 
3617 9690 0 6.98132e-06 
3617 11403 0 1.11709e-06 
4209 7759 0 6.1535e-06 
10447 9440 0 6.80047e-08 
15353 12037 0 1.385e-06 
12600 13040 0 3.22155e-07 
7759 5250 0 1.9216e-06 
7759 10885 0 5.36338e-06 
13040 1013 0 1.75054e-08 
13040 439 0 8.02137e-07 
1013 8827 0 3.20427e-06 
1013 9690 0 5.34538e-06 
1013 7308 0 9.64455e-07 
6679 5492 0 1.94253e-06 
6679 9910 0 2.20146e-06 
439 8827 0 2.29872e-06 
439 1471 0 2.5347e-06 
8827 7308 0 2.23058e-06 
7308 6168 0 1.87364e-06 
13914 3235 0 1.68464e-06 
9949 10960 0 1.1576e-06 
9949 9292 0 5.2256e-08 
9949 3235 0 5.51523e-07 
9949 7408 0 1.25966e-06 
14649 6108 0 3.2735e-06 
14649 1471 0 3.3899e-06 
14649 4464 0 1.3791e-06 
8492 6108 0 9.01924e-07 
8492 3243 0 1.16761e-06 
10960 4395 0 1.31193e-07 
9292 7470 0 7.32151e-07 
9292 3235 0 1.2624e-06 
6108 10892 0 2.86671e-06 
1936 5156 0 3.29126e-06 
1936 13883 0 9.23666e-07 
11037 8822 0 9.34911e-08 
1676 11095 0 1.07017e-06 
10892 7210 0 2.60185e-06 
2449 6048 0 8.37553e-07 
9778 9177 0 9.15992e-07 
2722 2928 0 2.73543e-06 
6347 7958 0 8.50445e-06 
5090 10862 0 6.78937e-06 
13659 8100 0 1.9539e-06 
13659 10297 0 3.43658e-07 
13659 2649 0 5.12888e-06 
10862 2736 0 7.47729e-06 
10297 8346 0 1.0443e-06 
8928 9822 0 2.27047e-06 
9822 5250 0 2.99193e-06 
9822 10643 0 4.45754e-06 
8405 63 0 6.4303e-06 
8405 2736 0 5.6028e-06 
9690 9910 0 2.62916e-06 
9910 4146 0 8.38851e-07 
5250 6960 0 1.32137e-06 
14476 11403 0 4.1653e-07 
63 14934 0 7.65245e-06 
63 3962 0 1.48971e-07 
10885 4395 0 4.00006e-06 
10885 8514 0 2.63051e-06 
14934 1471 0 3.22421e-06 
14934 659 0 3.46222e-06 
1471 12051 0 1.1545e-06 
6168 5840 0 9.35392e-07 
6168 10016 0 1.98355e-06 
3235 659 0 1.9504e-06 
3235 14257 0 1.91811e-06 
659 4464 0 1.75602e-06 
659 3962 0 1.33303e-06 
10016 12127 0 1.61606e-07 
10016 3243 0 1.40079e-06 
4464 303 0 1.16774e-06 
11080 8919 0 8.09973e-07 
11080 6573 0 1.08199e-07 
8919 5891 0 1.45105e-06 
879 4991 0 8.17658e-06 
8346 4146 0 6.59854e-07 
8346 4220 0 9.36568e-07 
4146 4643 0 1.76422e-06 
8182 10643 0 3.6003e-06 
8182 4774 0 9.1122e-07 
2736 9456 0 4.91187e-06 
10643 9409 0 3.56799e-06 
9456 9986 0 5.04359e-06 
912 14556 0 6.13086e-07 
7421 7228 0 7.19249e-07 
7228 11606 0 4.51827e-07 
10312 8355 0 1.56002e-06 
3255 12127 0 3.77749e-07 
8514 6960 0 1.84948e-06 
8514 9409 0 5.26024e-06 
8514 10907 0 5.6052e-06 
6960 14257 0 1.74007e-06 
6960 14559 0 7.73382e-07 
3962 5041 0 4.96489e-07 
3962 14559 0 2.11632e-06 
14257 10907 0 1.91716e-06 
9157 6573 0 1.2761e-06 
9157 14559 0 2.2525e-06 
9157 6029 0 2.12158e-06 
303 1776 0 1.86475e-06 
3243 13577 0 6.3741e-07 
3243 4300 0 8.58724e-07 
11646 726 0 1.13627e-06 
12595 10907 0 3.66588e-06 
12595 13412 0 5.39953e-07 
7408 929 0 5.83261e-07 
2595 14837 0 8.68987e-07 
3813 2714 0 1.19606e-07 
929 6700 0 1.40948e-06 
929 12502 0 8.35463e-07 
11095 3286 0 5.78658e-07 
3928 7048 0 2.61281e-05 
10847 1544 0 1.00926e-05 
3816 8586 0 4.50762e-07 
11113 11742 0 2.33922e-06 
2649 4433 0 2.64942e-06 
5039 4251 0 7.41147e-06 
5039 11742 0 1.19357e-05 
4643 3948 0 3.94529e-06 
4251 6862 0 3.25639e-06 
6862 8355 0 3.1858e-06 
6862 4447 0 4.96223e-06 
4447 1185 0 3.8854e-06 
9409 9986 0 2.57013e-06 
9409 9958 0 3.04776e-06 
9986 14559 0 2.94766e-06 
9986 6687 0 4.7323e-06 
8355 8915 0 1.30646e-06 
8177 6123 0 2.80608e-07 
12703 15284 0 6.02534e-08 
7315 14603 0 1.09434e-07 
10907 4678 0 1.31356e-06 
1776 11942 0 1.38811e-06 
15287 11067 0 4.54621e-07 
15287 11024 0 8.26672e-07 
15287 11772 0 1.7186e-06 
15287 2633 0 6.93255e-08 
6029 12321 0 5.09369e-07 
3414 8353 0 2.85349e-06 
9081 13482 0 2.68461e-07 
9019 7048 0 6.2625e-05 
4991 2366 0 2.09602e-05 
4991 14919 0 2.21074e-06 
11742 14116 0 7.16091e-06 
8456 15071 0 1.07577e-06 
9736 9958 0 3.538e-07 
4642 4140 0 2.9213e-07 
7347 13695 0 1.17349e-06 
11143 15319 0 2.32059e-08 
11490 6687 0 3.61112e-06 
11490 6414 0 4.37804e-06 
6687 13796 0 4.53229e-06 
15220 11024 0 4.36967e-09 
15220 12605 0 1.20616e-07 
14000 15125 0 4.72981e-07 
3088 13987 0 1.35608e-07 
3088 12605 0 5.9825e-07 
6414 4678 0 4.26522e-06 
6414 5256 0 1.98287e-06 
4678 12744 0 3.55732e-06 
12321 10442 0 1.6782e-06 
11772 10459 0 2.10149e-06 
11703 7698 0 3.09716e-07 
10459 10301 0 1.46445e-06 
9407 4156 0 2.9914e-07 
5404 10730 0 3.83547e-07 
729 11440 0 6.67302e-05 
14919 14116 0 9.59641e-07 
14116 5855 0 3.23422e-06 
4140 4764 0 2.5008e-06 
13695 1430 0 7.05311e-07 
13695 12063 0 8.30923e-07 
4764 4423 0 3.40405e-06 
1430 12751 0 3.96278e-07 
4255 2468 0 1.81551e-07 
2633 6183 0 2.10083e-06 
11157 10730 0 2.06211e-06 
12744 8476 0 1.72076e-06 
10301 11738 0 2.06328e-06 
10301 1768 0 1.84379e-06 
1691 3761 0 5.91719e-07 
1962 651 0 5.98458e-06 
7285 6784 0 1.05353e-06 
6784 12063 0 1.69869e-06 
42 12839 0 4.31903e-06 
7105 6476 0 1.26656e-06 
7105 12500 0 4.47892e-07 
12063 12869 0 2.54569e-06 
13696 14501 0 4.8272e-06 
12500 7474 0 1.06181e-06 
4423 12605 0 1.53355e-06 