ITEM: TIMESTEP
20000000
ITEM: NUMBER OF ENTRIES
970
ITEM: BOX BOUNDS ff ff ff
-0.01 0.45
-0.15 0.15
-0.08 0.1
ITEM: ENTRIES c_ppc[1] c_ppc[2] c_ppc[3] c_ppc[4] 
1982 672 0 0.000152339 
41 480 0 0.000252512 
286 2486 0 7.22669e-06 
2484 2321 0 0.000167753 
2495 1077 0 2.01821e-05 
2198 1020 0 7.10249e-05 
2089 167 0 0.000283924 
1390 208 0 1.49744e-05 
331 125 0 6.14422e-06 
742 1520 0 1.44152e-06 
300 1628 0 6.81717e-06 
300 464 0 2.4753e-06 
731 1329 0 1.30212e-05 
2431 2473 0 4.4158e-06 
2431 1329 0 9.69101e-06 
960 383 0 6.45452e-06 
960 2435 0 1.63628e-06 
383 1155 0 4.44519e-06 
1479 1391 0 4.81875e-06 
2435 1579 0 5.17012e-08 
1391 635 0 7.79553e-06 
888 1716 0 1.88194e-06 
635 679 0 9.53376e-06 
679 1473 0 3.23684e-06 
679 2253 0 1.20017e-06 
1716 1161 0 1.23463e-06 
1473 1161 0 3.66285e-06 
1473 1090 0 3.38279e-06 
1473 906 0 9.16617e-07 
1161 17 0 6.06454e-06 
1161 1382 0 2.37641e-06 
1161 481 0 7.83185e-06 
1072 823 0 1.78058e-05 
1072 1729 0 3.38394e-05 
2462 1207 0 6.72325e-07 
296 1893 0 4.93926e-06 
420 1272 0 1.68212e-05 
1579 964 0 3.73811e-06 
1579 1602 0 5.12063e-06 
1123 1051 0 6.63263e-06 
1123 500 0 2.16415e-06 
2253 1955 0 8.3763e-07 
1868 96 0 7.70974e-06 
555 1787 0 1.10397e-06 
1382 2417 0 2.52847e-06 
1382 1099 0 1.91519e-06 
1360 559 0 6.30653e-07 
1360 2214 0 3.23751e-07 
906 559 0 5.85536e-06 
906 1934 0 3.11357e-06 
906 1866 0 6.24397e-06 
481 2417 0 2.04593e-06 
481 1866 0 7.23568e-06 
1155 1051 0 9.21087e-07 
2141 1564 0 1.12986e-06 
2141 912 0 2.11337e-06 
1602 1787 0 4.20786e-06 
1099 559 0 7.54447e-06 
1099 1756 0 9.43852e-06 
1099 108 0 5.0472e-06 
2417 844 0 2.0016e-06 
2417 179 0 3.98886e-06 
559 2247 0 1.27424e-05 
1407 912 0 1.14217e-05 
1407 1590 0 5.86907e-06 
912 1016 0 4.46722e-06 
485 1352 0 5.04321e-06 
1266 179 0 5.41864e-06 
179 154 0 1.31707e-06 
2247 1649 0 1.44364e-05 
1934 384 0 9.90884e-07 
1040 1352 0 1.34399e-05 
1352 1162 0 7.16561e-08 
1400 1649 0 1.78341e-05 
1230 108 0 3.08966e-06 
108 154 0 2.46745e-06 
108 1886 0 1.18949e-06 
108 1608 0 6.10167e-06 
154 1310 0 4.58885e-06 
1877 1899 0 2.25382e-06 
1899 979 0 1.22121e-06 
384 2422 0 1.80111e-06 
1306 1310 0 4.92386e-06 
2412 1886 0 2.56594e-06 
2412 979 0 8.66283e-06 
1886 2219 0 2.72624e-06 
1608 2173 0 2.08787e-06 
2450 1184 0 1.63652e-06 
2450 1310 0 2.27652e-06 
2450 473 0 4.5926e-07 
473 651 0 8.51795e-06 
979 2173 0 5.12912e-06 
2173 2393 0 3.61808e-06 
2346 2073 0 5.87288e-06 
2346 2393 0 6.92978e-06 
2346 651 0 2.70664e-06 
2147 2219 0 6.78241e-06 
2147 118 0 4.61736e-06 
2147 1374 0 7.36583e-06 
2393 2444 0 5.87033e-06 
2105 379 0 2.89488e-06 
2371 680 0 3.25191e-06 
2371 2063 0 9.62832e-07 
1374 1060 0 3.48639e-06 
680 651 0 4.64359e-07 
118 651 0 1.18292e-06 
651 2196 0 9.56232e-06 
2444 2385 0 3.97555e-06 
2444 2306 0 4.1363e-06 
379 1411 0 8.58181e-06 
379 2063 0 3.92043e-06 
2063 423 0 5.80806e-06 
542 467 0 1.35871e-05 
2306 1805 0 2.43926e-06 
1172 469 0 4.20364e-06 
2196 2229 0 2.69551e-06 
2196 1011 0 9.42325e-06 
469 2385 0 4.45106e-06 
469 1965 0 6.08534e-06 
2385 2229 0 5.23686e-06 
423 123 0 9.12807e-06 
423 1340 0 1.13514e-05 
1573 961 0 6.14402e-06 
961 1350 0 4.43157e-06 
961 1667 0 5.55571e-06 
1340 89 0 2.59333e-06 
1340 471 0 1.16063e-05 
1350 814 0 6.46783e-06 
1148 2434 0 2.68465e-07 
814 497 0 3.98611e-06 
695 1805 0 4.34742e-06 
695 949 0 3.27725e-06 
1805 240 0 5.6524e-06 
1011 690 0 7.15257e-06 
1011 1674 0 1.32131e-05 
240 1834 0 9.2857e-06 
1482 1595 0 1.1403e-06 
137 1667 0 5.36142e-07 
1667 1150 0 2.71947e-06 
1615 2123 0 3.70189e-06 
949 2038 0 5.45386e-06 
2126 1785 0 9.6399e-07 
1674 2193 0 3.65893e-06 
1674 688 0 1.5163e-05 
1674 266 0 1.33417e-05 
266 1138 0 4.66503e-08 
266 2414 0 3.08003e-06 
252 1809 0 4.0662e-06 
1774 2169 0 3.47506e-06 
471 2123 0 3.0913e-06 
471 1241 0 6.01268e-06 
497 501 0 3.57147e-06 
2038 2193 0 5.10075e-06 
2038 1814 0 3.72117e-06 
2038 716 0 1.02978e-05 
2193 591 0 2.35157e-06 
1785 688 0 1.45288e-05 
1785 190 0 1.39292e-05 
1809 1783 0 2.34241e-06 
1809 334 0 2.28204e-05 
1471 1670 0 1.28464e-05 
1471 2152 0 1.53861e-05 
2018 1150 0 4.93534e-06 
2018 1974 0 5.79972e-06 
1974 2130 0 5.27161e-07 
1974 1673 0 4.27285e-06 
264 2169 0 4.99607e-06 
2169 1516 0 5.84013e-06 
2169 1951 0 3.59746e-06 
1516 2123 0 5.62316e-06 
1814 501 0 7.98198e-06 
1814 2443 0 8.86934e-07 
2123 633 0 6.41764e-06 
591 324 0 3.6222e-06 
591 633 0 3.33125e-06 
190 623 0 2.56805e-06 
621 633 0 3.81242e-06 
621 1790 0 4.12087e-06 
2414 1558 0 5.93736e-07 
1783 1185 0 1.21102e-06 
2443 711 0 8.67214e-07 
501 745 0 1.55673e-07 
1932 1146 0 9.17675e-07 
633 1919 0 2.72348e-06 
633 1616 0 3.22692e-06 
633 2171 0 6.55966e-06 
937 645 0 4.13354e-06 
1185 107 0 8.29506e-06 
1185 2048 0 6.99351e-07 
1833 1651 0 2.31714e-06 
745 2094 0 9.61884e-07 
745 883 0 3.12784e-06 
2251 1873 0 2.54021e-06 
2251 2171 0 3.68344e-06 
698 1732 0 7.39308e-07 
1616 1233 0 2.59636e-06 
1616 1732 0 1.27061e-06 
730 1826 0 1.62828e-05 
1395 2308 0 2.09231e-06 
711 1251 0 1.28251e-06 
711 2072 0 3.04419e-06 
1651 2308 0 3.47799e-06 
2048 910 0 3.15769e-06 
910 1326 0 4.34576e-06 
1326 2171 0 2.31155e-06 
2171 1732 0 2.45419e-06 
2171 1195 0 6.5993e-06 
1732 1601 0 2.70053e-07 
1732 2234 0 2.71903e-06 
1732 479 0 1.01694e-06 
1601 56 0 1.3701e-06 
1601 753 0 1.86587e-06 
1031 926 0 5.55668e-06 
2308 1251 0 2.54864e-06 
2308 1487 0 1.68233e-06 
1251 1039 0 2.44125e-06 
1979 1128 0 2.75026e-06 
2072 53 0 1.95932e-06 
601 359 0 2.07325e-06 
2003 1232 0 3.34125e-06 
2003 1195 0 3.0209e-06 
883 356 0 4.86814e-06 
2250 1873 0 6.94848e-06 
2250 164 0 5.70123e-06 
1195 479 0 3.94624e-06 
2234 609 0 6.37426e-07 
1912 1485 0 1.96181e-07 
1485 2074 0 4.84646e-07 
1128 2074 0 9.61317e-07 
1128 1889 0 4.92644e-06 
2077 107 0 2.42171e-05 
2077 2006 0 3.95121e-05 
1487 215 0 1.80665e-06 
1487 550 0 3.01334e-06 
1487 1529 0 5.30038e-07 
164 753 0 3.59311e-06 
164 2174 0 4.07435e-06 
1733 2066 0 1.62961e-06 
2066 479 0 2.56669e-06 
479 1594 0 3.87728e-06 
753 186 0 1.17257e-06 
609 2014 0 2.94825e-07 
401 310 0 5.57092e-06 
1766 1427 0 6.88101e-06 
2074 1889 0 3.03062e-06 
1127 754 0 2.91127e-06 
1127 1878 0 2.37581e-06 
1127 2006 0 1.50987e-05 
1127 922 0 6.48986e-06 
1039 359 0 3.71929e-06 
1039 1470 0 1.21181e-06 
1470 550 0 1.62148e-06 
1470 392 0 1.42397e-06 
359 356 0 4.55126e-06 
359 673 0 4.59621e-07 
356 1541 0 3.78544e-06 
2375 1195 0 6.39397e-06 
2375 767 0 2.75487e-06 
2375 2276 0 4.40391e-06 
2174 186 0 1.70456e-06 
2174 392 0 3.6218e-06 
673 1541 0 1.51727e-06 
673 248 0 1.50357e-07 
310 180 0 1.69125e-06 
310 2344 0 4.54978e-06 
180 193 0 3.37929e-06 
1889 1768 0 6.82282e-06 
1889 550 0 4.88414e-06 
1889 338 0 6.62952e-06 
2006 1916 0 3.80142e-05 
754 193 0 2.82583e-06 
550 439 0 4.33022e-06 
1878 143 0 2.26931e-06 
767 1154 0 6.85767e-07 
1541 248 0 1.89705e-06 
2276 1484 0 3.23963e-06 
2276 1685 0 3.33246e-06 
186 505 0 1.46545e-06 
248 1594 0 2.292e-06 
248 510 0 1.16212e-06 
1594 1530 0 2.11996e-06 
1594 1339 0 4.05794e-06 
1530 2199 0 1.57636e-06 
1530 1700 0 2.44246e-06 
2199 505 0 2.925e-07 
2050 607 0 2.43302e-06 
1049 825 0 1.53375e-07 
193 338 0 2.96827e-06 
193 799 0 5.09284e-06 
338 2221 0 1.45042e-06 
1264 439 0 6.6827e-08 
1264 268 0 5.61472e-07 
922 1916 0 1.85796e-05 
439 392 0 4.31277e-06 
439 262 0 1.75807e-06 
439 1699 0 3.36175e-06 
1786 1349 0 1.16234e-05 
143 1484 0 2.06874e-06 
392 1154 0 7.62986e-07 
1484 1838 0 1.6664e-06 
2233 2078 0 1.12095e-06 
2233 1685 0 2.13047e-06 
1339 505 0 2.11288e-06 
1339 2339 0 5.73847e-06 
505 25 0 1.6177e-06 
208 141 0 2.91315e-05 
1410 1259 0 8.77338e-06 
1410 1160 0 1.66683e-05 
606 1916 0 1.62506e-05 
606 825 0 1.12083e-05 
606 1259 0 9.18958e-06 
606 991 0 3.12119e-05 
1916 1349 0 2.39964e-05 
799 1699 0 2.87111e-06 
1343 1349 0 1.37052e-05 
1699 2023 0 2.05531e-06 
2027 1838 0 2.05713e-07 
1685 156 0 2.33035e-06 
2137 1966 0 9.53507e-06 
2221 956 0 2.68357e-06 
825 607 0 9.20917e-06 
825 1544 0 3.5798e-07 
1349 991 0 1.98333e-05 
1349 2172 0 4.16638e-05 
2023 1838 0 1.69048e-07 
2023 156 0 9.75236e-07 
156 1719 0 1.75569e-07 
2339 1254 0 1.51487e-06 
25 1961 0 1.67749e-06 
1160 1985 0 2.55295e-06 
433 1331 0 1.32676e-06 
181 440 0 1.81344e-06 
956 268 0 2.57454e-06 
956 209 0 4.92871e-06 
956 2010 0 1.89706e-06 
956 312 0 3.12016e-06 
991 1544 0 7.72454e-06 
991 2279 0 3.64527e-05 
1544 100 0 7.01501e-06 
1043 1622 0 1.45696e-07 
1050 1005 0 1.83054e-06 
1801 268 0 1.45387e-06 
1801 1492 0 1.88955e-06 
2172 2226 0 2.49969e-05 
1811 2195 0 1.61215e-06 
1539 1836 0 9.7581e-07 
1985 1540 0 3.69067e-06 
440 9 0 1.99917e-06 
100 209 0 4.30104e-06 
100 2187 0 2.38043e-06 
2279 1118 0 3.78722e-05 
2192 2195 0 1.8174e-06 
2192 2187 0 1.49633e-06 
2226 560 0 2.76362e-06 
751 1721 0 1.92123e-06 
1961 1721 0 1.2752e-06 
1978 816 0 1.27678e-06 
1978 1574 0 7.70561e-07 
1540 1358 0 4.01438e-06 
980 630 0 1.02186e-06 
1118 735 0 5.77163e-06 
2187 1124 0 2.53052e-06 
2195 735 0 9.15336e-07 
2195 560 0 2.00658e-06 
2195 2122 0 1.33298e-06 
560 314 0 1.0972e-06 
1721 2122 0 1.37557e-06 
1445 1124 0 3.46647e-07 
735 630 0 1.30271e-06 
2114 1492 0 8.21694e-07 
2114 895 0 4.84017e-07 
2122 1813 0 3.58251e-07 
802 1093 0 5.02648e-07 
895 1690 0 8.70748e-07 
638 237 0 3.85414e-06 
1690 314 0 5.79946e-06 
2045 1377 0 0.000578013 
127 699 0 8.001e-05 
45 15 0 0.000214043 
1897 1871 0 4.54758e-06 
1593 1321 0 3.14881e-06 
149 1278 0 1.24795e-06 
2291 2239 0 3.89466e-05 
2291 2494 0 9.31689e-05 
2116 2076 0 3.0702e-05 
2367 2478 0 1.76981e-05 
2367 1737 0 5.98155e-05 
2367 1490 0 1.24293e-05 
1456 1388 0 5.60812e-06 
394 126 0 1.51937e-05 
2478 2479 0 6.45289e-07 
2478 2442 0 6.93824e-06 
254 1084 0 4.3549e-06 
2399 1210 0 6.00708e-06 
2442 1102 0 4.74953e-06 
2442 472 0 1.26151e-05 
1210 1399 0 1.11807e-05 
1863 1399 0 2.17413e-06 
924 2452 0 3.29494e-06 
472 1524 0 1.14116e-05 
472 2336 0 1.72963e-05 
493 81 0 6.21154e-06 
493 1483 0 1.02027e-05 
493 831 0 1.16124e-05 
1591 2155 0 4.39113e-07 
2336 1855 0 2.22855e-05 
1524 1483 0 8.57191e-08 
81 1483 0 2.51375e-06 
2282 17 0 6.90102e-06 
2282 2155 0 6.73825e-06 
2155 1173 0 6.44258e-06 
1173 1855 0 6.68087e-06 
2480 2496 0 3.22618e-05 
893 568 0 4.39712e-06 
893 1712 0 3.78576e-06 
893 1580 0 5.29006e-06 
1712 468 0 4.36967e-06 
2449 1115 0 1.15973e-07 
2449 1134 0 7.09773e-06 
468 231 0 1.12819e-06 
831 2092 0 8.6899e-06 
1399 2425 0 6.2154e-06 
1399 1967 0 8.06537e-06 
1399 844 0 3.07621e-06 
1967 800 0 3.05412e-06 
1967 603 0 7.06584e-06 
1108 729 0 2.16386e-06 
1108 930 0 3.35029e-06 
870 1297 0 8.9625e-06 
1806 512 0 9.24654e-06 
1871 1076 0 1.73875e-05 
1501 121 0 2.23698e-05 
1490 1309 0 1.20449e-05 
1490 2117 0 2.65146e-05 
2489 353 0 6.95367e-05 
2117 1115 0 1.23249e-05 
2117 2097 0 2.08698e-05 
682 2430 0 3.6611e-06 
747 1297 0 7.35232e-07 
2425 481 0 8.9571e-06 
2425 703 0 9.00909e-06 
2425 2272 0 1.53831e-06 
512 2246 0 2.36181e-05 
512 743 0 2.38364e-05 
703 940 0 4.62319e-06 
603 930 0 2.07581e-06 
1134 1248 0 1.75427e-05 
1134 2362 0 1.66619e-06 
519 561 0 1.3121e-05 
2033 2430 0 4.3115e-06 
2430 2079 0 5.04942e-06 
2430 446 0 2.31613e-06 
561 2092 0 2.38036e-05 
2055 844 0 7.68946e-07 
2055 2019 0 2.3452e-06 
2055 179 0 4.60543e-06 
2454 1986 0 4.55691e-06 
2092 2246 0 2.4962e-05 
2092 2362 0 1.5411e-05 
2345 1018 0 6.8938e-06 
844 940 0 3.3701e-06 
940 1744 0 2.99952e-06 
892 1212 0 3.90033e-06 
892 1120 0 1.22144e-05 
892 530 0 4.56715e-06 
2125 750 0 9.3792e-06 
2362 350 0 2.12802e-06 
1073 530 0 3.91038e-06 
1986 1926 0 3.19306e-06 
522 2245 0 3.2608e-06 
522 1563 0 5.8081e-06 
1718 2148 0 1.31708e-05 
750 2301 0 7.90566e-06 
28 1424 0 4.0731e-06 
2301 288 0 1.53895e-05 
2301 1563 0 1.20407e-05 
1357 728 0 2.25493e-06 
288 261 0 2.41457e-06 
1012 1424 0 5.92834e-06 
1018 1424 0 1.55605e-06 
2073 1744 0 4.43913e-06 
1744 2120 0 9.27072e-07 
1744 261 0 1.66127e-06 
2245 2120 0 5.83222e-06 
2245 531 0 1.5893e-05 
2245 245 0 5.37908e-06 
2148 454 0 1.67953e-05 
454 2243 0 3.95104e-07 
228 1214 0 4.99758e-06 
1589 1584 0 5.98685e-06 
1424 1214 0 1.64389e-05 
1563 2162 0 6.56596e-06 
261 2162 0 7.13893e-07 
313 2243 0 4.60559e-06 
2243 2101 0 3.96876e-06 
2243 2099 0 6.08961e-06 
2243 187 0 4.25267e-06 
1495 2476 0 3.16951e-05 
1963 2047 0 5.45109e-06 
2162 245 0 2.52645e-06 
2162 689 0 1.13047e-06 
245 1991 0 1.97738e-06 
18 749 0 9.04921e-06 
2448 2237 0 6.71457e-06 
1991 1489 0 1.71055e-06 
1293 2099 0 3.29315e-06 
887 2370 0 4.85822e-06 
2099 1486 0 3.40104e-06 
2476 2293 0 3.27357e-05 
1323 1762 0 1.41213e-05 
662 651 0 1.70353e-07 
662 373 0 2.1108e-06 
749 2370 0 3.8711e-06 
749 620 0 5.44752e-06 
2370 342 0 6.01016e-06 
1071 1421 0 1.31955e-06 
187 136 0 2.27688e-06 
187 574 0 4.09848e-06 
1351 1021 0 4.71128e-05 
674 1900 0 0.000166635 
1762 1909 0 6.66581e-05 
2230 486 0 1.27164e-05 
2230 2167 0 5.38368e-06 
1252 1692 0 2.6387e-06 
207 1546 0 2.53636e-05 
1854 172 0 4.3207e-05 
2312 2047 0 1.1364e-05 
373 1290 0 4.06013e-06 
1290 620 0 5.08076e-06 
2047 1086 0 6.8846e-06 
1034 2237 0 1.56567e-06 
1034 123 0 1.01614e-05 
1034 690 0 1.28215e-06 
2237 1696 0 1.51741e-05 
1421 2403 0 7.2534e-06 
702 1665 0 6.99029e-06 
195 563 0 9.31891e-06 
1546 33 0 2.53245e-05 
123 1696 0 6.7193e-06 
1200 1740 0 6.06321e-06 
2016 818 0 8.59751e-06 
1696 2403 0 8.22017e-06 
620 2129 0 7.11519e-06 
1086 1754 0 4.55231e-06 
1086 2042 0 7.94361e-06 
1665 2129 0 3.35723e-06 
1665 1381 0 3.62676e-06 
1754 574 0 1.10889e-05 
2121 690 0 8.16073e-06 
1354 2418 0 3.2932e-06 
1909 1900 0 0.000102287 
176 1929 0 4.48008e-06 
1025 1114 0 1.31582e-05 
563 1114 0 1.61749e-06 
563 407 0 5.6054e-06 
1653 854 0 7.63595e-07 
690 1930 0 7.97248e-06 
690 1465 0 6.45607e-08 
1465 1149 0 1.45216e-06 
1465 1668 0 3.32425e-06 
2129 854 0 4.62022e-06 
2418 1149 0 2.08408e-07 
2418 1129 0 2.54741e-06 
1929 1879 0 4.18393e-05 
1929 685 0 4.89905e-05 
1114 2102 0 7.80601e-06 
1789 1930 0 5.70616e-06 
1789 1948 0 6.12642e-07 
2440 692 0 5.92033e-06 
2102 1720 0 3.42653e-06 
1930 1668 0 5.51063e-06 
1740 1684 0 2.47958e-06 
1740 1668 0 3.49363e-06 
854 1129 0 2.08047e-06 
854 2052 0 6.12884e-06 
400 1561 0 7.53779e-07 
1561 1186 0 1.79538e-06 
911 133 0 1.61793e-05 
685 1680 0 5.64886e-05 
407 1704 0 2.81579e-06 
1680 2464 0 2.07139e-05 
1704 1948 0 1.34502e-06 
1704 1107 0 3.47013e-06 
714 2464 0 2.09804e-06 
324 1668 0 4.24111e-06 
324 1187 0 4.97752e-06 
324 1898 0 3.27892e-06 
324 1605 0 6.29078e-06 
1684 886 0 1.73327e-06 
692 1720 0 5.66388e-07 
1279 1702 0 5.67655e-07 
1668 598 0 4.79575e-06 
1702 566 0 7.99108e-06 
75 1944 0 3.97734e-06 
75 1621 0 1.22257e-06 
1129 2011 0 5.02841e-06 
2052 2287 0 4.92306e-06 
1186 540 0 1.98792e-06 
1186 1078 0 5.76117e-06 
1186 2113 0 1.22249e-05 
2290 540 0 1.61037e-06 
1187 471 0 1.38483e-06 
1187 1948 0 3.39921e-06 
1187 1673 0 3.84523e-06 
1187 319 0 2.38797e-06 
1416 923 0 9.72679e-07 
1948 2149 0 4.71557e-06 
886 2149 0 6.04643e-07 
2149 2185 0 1.29965e-06 
1944 1613 0 8.79975e-06 
1944 809 0 4.80713e-06 
1944 1364 0 6.45038e-06 
598 2329 0 9.18455e-06 
598 399 0 8.15067e-06 
2329 2011 0 4.55845e-06 
2329 1759 0 2.54184e-06 
1621 257 0 2.76081e-06 
1513 1312 0 5.49095e-05 
1078 1673 0 4.02323e-07 
1078 70 0 1.57495e-06 
2113 2208 0 3.65143e-05 
2387 1600 0 3.61315e-06 
981 1364 0 7.36569e-06 
981 968 0 1.16465e-06 
1107 151 0 2.59486e-06 
1107 2183 0 5.96543e-06 
809 566 0 1.08847e-05 
809 1717 0 6.35725e-06 
809 1600 0 1.06838e-05 
1364 1817 0 5.3893e-06 
1605 1873 0 6.1826e-06 
399 1625 0 4.75334e-06 
399 1873 0 5.97017e-06 
2185 1953 0 1.70657e-06 
421 56 0 1.39716e-06 
715 2011 0 3.6855e-06 
715 2183 0 4.49972e-06 
715 586 0 2.10814e-06 
2402 566 0 1.23869e-05 
2402 2287 0 8.45929e-06 
2402 1658 0 6.7618e-06 
1717 2056 0 5.36118e-06 
1717 1817 0 3.06085e-06 
2011 2287 0 6.16568e-06 
2011 403 0 1.75145e-06 
2208 539 0 1.75066e-05 
2208 869 0 2.60521e-06 
1557 70 0 1.05992e-08 
1557 1625 0 2.06744e-06 
921 1600 0 1.23464e-05 
921 1950 0 4.71396e-06 
319 1232 0 3.24997e-06 
1625 976 0 1.31978e-06 
1600 968 0 5.94557e-06 
1873 826 0 5.75669e-06 
2183 1444 0 3.41445e-06 
1817 999 0 3.67874e-07 
586 1983 0 1.92491e-06 
827 1348 0 2.18378e-06 
827 2314 0 2.2564e-06 
594 1446 0 2.37934e-07 
594 2059 0 1.70221e-06 
1759 738 0 3.3507e-06 
403 536 0 2.02697e-06 
2127 645 0 1.97044e-07 
968 807 0 2.43328e-06 
1232 374 0 1.95747e-06 
2182 913 0 1.58433e-07 
1444 989 0 3.44077e-06 
1444 1133 0 4.60912e-06 
1953 1106 0 3.45172e-06 
1972 536 0 7.60053e-08 
1972 1467 0 1.37387e-06 
2059 90 0 2.68531e-06 
2227 1289 0 5.5749e-06 
934 256 0 1.36241e-06 
2119 1423 0 2.10782e-06 
1832 1193 0 1.15141e-07 
256 826 0 3.60753e-06 
1534 807 0 4.10873e-06 
989 1106 0 1.98469e-06 
1610 1688 0 6.2804e-06 
1610 1891 0 1.15299e-06 
1610 2314 0 9.42948e-06 
1891 780 0 9.12879e-07 
1106 732 0 1.94765e-06 
1274 1983 0 1.51605e-06 
1274 753 0 2.63782e-07 
815 808 0 2.98013e-06 
2314 1318 0 1.64911e-06 
1420 1289 0 6.94256e-07 
2348 1894 0 3.25634e-06 
2348 1125 0 9.45641e-06 
1125 114 0 6.61886e-06 
1125 1569 0 7.3672e-06 
904 842 0 2.06488e-06 
2041 256 0 1.16983e-06 
2041 374 0 2.49412e-06 
2041 2437 0 9.92659e-07 
2041 1768 0 3.64173e-06 
1246 2382 0 6.96523e-06 
343 727 0 1.8303e-07 
718 1624 0 2.73326e-06 
718 1317 0 2.82768e-07 
1389 807 0 1.08498e-06 
1389 732 0 2.59136e-06 
1389 2384 0 3.07995e-06 
1010 826 0 8.57303e-07 
1010 2078 0 2.75777e-07 
1133 2170 0 2.33936e-06 
1133 664 0 3.60624e-06 
732 1467 0 3.31314e-06 
1467 1106 0 1.49045e-06 
1467 746 0 4.60346e-06 
1467 1746 0 2.81967e-06 
2305 1709 0 1.70338e-06 
402 2115 0 3.34131e-06 
1924 1466 0 8.67576e-06 
1773 2382 0 7.06093e-06 
1768 2216 0 7.49627e-06 
2382 1624 0 4.93381e-06 
2382 2216 0 6.64336e-06 
1569 1624 0 3.32228e-06 
1569 1237 0 1.72643e-09 
861 789 0 3.06817e-06 
1317 808 0 3.0498e-06 
1317 768 0 4.74379e-06 
1317 899 0 3.54704e-06 
899 2384 0 1.85762e-06 
150 2388 0 6.45771e-06 
808 1709 0 4.20329e-07 
808 1183 0 1.82791e-06 
808 1746 0 3.29104e-07 
1746 815 0 6.8139e-07 
1746 1036 0 1.71034e-06 
1318 2111 0 1.22939e-06 
640 2228 0 2.27269e-06 
1709 738 0 3.02721e-06 
1709 746 0 1.39987e-06 
1709 871 0 3.85273e-06 
746 536 0 4.59752e-06 
746 1829 0 2.78594e-06 
746 871 0 1.90486e-06 
1236 1829 0 2.70199e-07 
1249 663 0 1.0383e-05 
2115 1889 0 3.57212e-06 
2115 2216 0 3.16301e-06 
2115 1140 0 5.11493e-07 
2115 1735 0 7.3026e-07 
2054 2216 0 2.86003e-06 
2216 1969 0 6.31975e-06 
529 1268 0 5.7635e-07 
790 727 0 6.46896e-07 
790 1937 0 1.27068e-06 
727 664 0 1.52393e-06 
872 1872 0 3.60332e-07 
872 1778 0 3.17821e-06 
1872 438 0 9.55351e-07 
438 2441 0 2.64759e-06 
2441 789 0 3.86851e-06 
789 2386 0 3.40049e-06 
2078 1529 0 2.00985e-06 
2078 664 0 3.05326e-06 
664 768 0 3.34955e-06 
664 185 0 1.51841e-06 
768 1216 0 2.8177e-06 
2384 76 0 1.88554e-06 
2384 229 0 5.38533e-06 
1575 457 0 8.64335e-06 
1036 76 0 2.22238e-06 
2111 2069 0 8.89481e-07 
2111 213 0 5.17817e-06 
871 1747 0 2.42374e-06 
1829 1607 0 1.53302e-06 
64 1771 0 1.73841e-05 
1597 954 0 5.2336e-06 
2365 1681 0 7.62716e-07 
1681 860 0 1.52362e-06 
1681 1026 0 8.69728e-06 
577 200 0 1.18643e-06 
49 1216 0 2.01282e-07 
1216 2080 0 3.07951e-06 
1234 1063 0 7.5203e-07 
229 295 0 3.22822e-06 
229 878 0 5.87327e-06 
295 434 0 6.78995e-07 
1147 1136 0 1.40825e-06 
76 2144 0 2.86748e-06 
213 1136 0 2.00196e-06 
213 820 0 7.79053e-06 
2132 752 0 5.71021e-07 
1607 2297 0 5.01691e-07 
1404 860 0 6.28373e-06 
1969 1057 0 3.71028e-06 
1969 1795 0 1.15476e-06 
860 329 0 1.16126e-05 
513 2138 0 2.25454e-06 
1937 2366 0 1.97764e-06 
1026 2366 0 1.97536e-06 
1268 205 0 9.76324e-07 
1472 375 0 8.09542e-07 
766 2178 0 9.79816e-07 
2386 2136 0 1.50714e-06 
2386 1995 0 4.21885e-06 
457 59 0 9.68666e-08 
2144 465 0 4.69863e-06 
434 752 0 2.40262e-06 
1747 2297 0 8.18528e-07 
1966 824 0 5.36991e-06 
1166 890 0 2.05117e-06 
1553 2284 0 5.49585e-06 
890 2022 0 5.5688e-06 
1847 1082 0 3.58802e-06 
2366 2178 0 3.01101e-06 
2366 2254 0 2.93829e-06 
2397 1497 0 5.67405e-06 
205 2096 0 4.37168e-07 
200 1192 0 4.00111e-06 
200 1958 0 1.35422e-06 
2178 962 0 4.31129e-06 
962 453 0 4.33551e-06 
2080 1511 0 1.45826e-06 
2080 59 0 2.0621e-06 
878 1958 0 1.54018e-06 
878 2212 0 3.78804e-06 
878 1935 0 1.9836e-06 
1995 395 0 5.11226e-06 
1995 850 0 4.37461e-06 
1995 1923 0 4.65953e-06 
1063 1511 0 1.3826e-06 
1063 816 0 1.70441e-06 
1136 813 0 3.45814e-06 
2297 194 0 4.55207e-07 
824 1126 0 5.7716e-07 
820 691 0 8.63086e-06 
2039 433 0 4.71265e-06 
2039 2284 0 7.17235e-06 
2284 1082 0 5.75722e-06 
945 636 0 1.77736e-07 
2138 1725 0 3.53244e-06 
453 2212 0 3.4205e-06 
453 833 0 1.90181e-06 
2212 889 0 1.9163e-06 
59 2252 0 2.3375e-06 
1935 2328 0 1.71911e-06 
816 1845 0 1.98407e-06 
465 2093 0 3.72875e-06 
465 2285 0 5.61107e-06 
507 526 0 5.46261e-06 
691 2082 0 7.49107e-06 
492 1554 0 1.36941e-07 
492 2082 0 1.6196e-06 
2022 2143 0 3.12613e-06 
312 1748 0 1.64487e-06 
2254 1265 0 1.89889e-06 
2254 1748 0 1.11893e-06 
2254 2065 0 3.03e-06 
1725 1239 0 4.04238e-06 
2096 2352 0 2.22875e-06 
2096 237 0 6.98354e-07 
889 987 0 2.37531e-06 
947 289 0 1.91208e-06 
2352 833 0 1.45453e-06 
2352 2005 0 5.546e-07 
1845 1332 0 1.21045e-06 
2252 2347 0 2.10079e-06 
1923 289 0 1.99877e-06 
2093 2087 0 3.06985e-06 
2087 848 0 3.60586e-06 
1662 194 0 3.83242e-07 
194 2248 0 5.42807e-10 
2285 2248 0 6.06212e-06 
901 2082 0 5.36842e-06 
843 9 0 2.7604e-06 
843 466 0 1.3265e-06 
1748 322 0 5.25747e-07 
1239 482 0 4.18052e-06 
237 2065 0 4.31761e-06 
2065 1617 0 1.0798e-06 
1776 1265 0 1.23101e-06 
2005 1512 0 1.77951e-07 
833 786 0 8.82639e-07 
833 37 0 4.68983e-07 
786 987 0 5.51539e-07 
289 2235 0 2.37976e-06 
2328 987 0 2.45983e-06 
2347 1137 0 2.00623e-06 
2347 1763 0 1.35229e-06 
2319 1426 0 5.23866e-06 
1799 244 0 4.19085e-07 
2248 1904 0 5.05953e-06 
1229 1286 0 2.38475e-06 
1265 798 0 1.83543e-06 
37 1094 0 6.18074e-07 
1554 244 0 1.32814e-06 
1430 675 0 8.54969e-06 
1794 1426 0 1.04769e-07 
1094 1426 0 3.82635e-06 
1091 1904 0 3.93806e-06 
1763 244 0 5.16394e-07 
1029 1087 0 0.00112789 
1087 40 0 0.000576594 
1851 146 0 0.000751864 
1851 417 0 0.00112403 
2070 146 0 0.000594644 
2241 1618 0 6.03458e-06 
1739 1418 0 1.20611e-06 
1441 936 0 1.14522e-05 
2225 81 0 1.02214e-05 
2225 1903 0 1.48829e-06 
2225 2075 0 6.48948e-06 
2110 2438 0 4.02686e-07 
2075 2296 0 7.42625e-06 
1661 870 0 1.66212e-05 
2057 1871 0 3.72074e-05 
2296 561 0 1.56972e-05 
2296 1788 0 7.46308e-06 
778 2064 0 5.68231e-06 
778 2000 0 1.09383e-05 
2000 116 0 7.45708e-06 
116 1197 0 6.83397e-06 
116 2067 0 7.43834e-07 
1582 1214 0 7.26751e-06 
1197 1000 0 2.65853e-07 
1197 2409 0 8.13931e-06 
1197 818 0 2.3191e-06 
136 2409 0 1.13632e-05 
2409 333 0 6.012e-06 
1119 919 0 1.22048e-05 
2167 1401 0 9.01825e-06 
333 63 0 7.39479e-06 
1401 578 0 3.14923e-05 
63 2107 0 4.48604e-06 
63 1613 0 1.13295e-05 
2107 1680 0 2.20445e-05 
2278 1680 0 8.44124e-05 
2278 737 0 4.21532e-05 
1452 737 0 6.08734e-06 
1135 981 0 2.3866e-06 
737 1943 0 1.77725e-05 
737 2338 0 3.46459e-06 
1943 1817 0 5.78586e-06 
2338 780 0 4.86753e-06 
1298 2069 0 8.57349e-07 
787 1130 0 2.8351e-06 
1141 395 0 3.19608e-06 
1760 206 0 4.56433e-06 
813 1372 0 1.71497e-06 
1372 848 0 1.64419e-06 
1611 289 0 4.40471e-06 
848 2309 0 6.22897e-06 
2309 2235 0 7.65402e-07 
397 907 0 6.87193e-05 
2222 1346 0 1.39275e-05 
1493 993 0 3.46539e-06 
616 2261 0 6.65169e-06 
1973 2445 0 3.62085e-05 
1874 2135 0 0.000136637 
1157 733 0 0.000290002 
1698 733 0 0.000222336 
1397 98 0 0.000124326 
1818 1109 0 0.000376322 
2322 1109 0 0.000111823 
2200 1998 0 2.90672e-05 
1450 1429 0 0.000159354 
822 580 0 2.59044e-05 
896 1753 0 9.83827e-05 
1095 1288 0 0.000348573 
46 624 0 2.91082e-06 
461 431 0 0.00103788 
