ITEM: TIMESTEP
20000000
ITEM: NUMBER OF ENTRIES
1401
ITEM: BOX BOUNDS ff ff ff
-0.01 0.45
-0.15 0.15
-0.08 0.1
ITEM: ENTRIES c_ppc[1] c_ppc[2] c_ppc[3] c_ppc[4] 
892 126 0 5.9459e-05 
1254 1717 0 9.07457e-05 
920 537 0 0.000102921 
941 651 0 2.87982e-06 
481 39 0 5.15877e-06 
1722 1736 0 6.47383e-06 
986 837 0 7.61281e-06 
214 1615 0 0.000137522 
1718 512 0 2.11456e-05 
1812 2260 0 9.67982e-06 
2260 113 0 1.27501e-05 
1275 1151 0 1.54052e-05 
2291 2088 0 1.23387e-05 
1622 1495 0 1.67095e-06 
1151 630 0 3.21881e-05 
1151 42 0 2.05272e-05 
1084 1189 0 1.87156e-05 
1084 1495 0 3.19031e-06 
1211 2366 0 1.1497e-05 
1211 2185 0 2.22765e-05 
2088 1189 0 7.14264e-06 
2088 610 0 2.09516e-05 
2088 2161 0 9.79135e-06 
2088 2425 0 1.37315e-05 
1189 610 0 2.07469e-05 
1189 1827 0 3.8272e-06 
2366 661 0 6.79354e-06 
610 461 0 3.57343e-05 
531 1827 0 9.77773e-06 
531 1065 0 1.12057e-05 
1827 794 0 2.40623e-05 
1827 644 0 2.89577e-05 
1065 1824 0 7.68654e-06 
1110 978 0 1.32862e-06 
1110 2196 0 1.55644e-05 
794 1824 0 1.04001e-05 
1824 1715 0 3.48456e-06 
1615 183 0 3.95375e-05 
2161 2425 0 1.12326e-05 
2161 1016 0 1.31218e-05 
1423 2425 0 4.30094e-06 
1495 42 0 2.30592e-06 
1495 2375 0 9.8425e-06 
2425 644 0 2.42105e-05 
2425 1355 0 2.77429e-05 
2425 1814 0 1.934e-05 
661 573 0 4.50468e-06 
644 2375 0 2.25526e-06 
644 181 0 9.13433e-06 
2196 1538 0 6.3308e-06 
2196 181 0 3.07104e-06 
2196 1207 0 8.14029e-06 
1538 1715 0 1.15441e-05 
1715 687 0 1.32606e-05 
1715 607 0 2.19939e-05 
2121 164 0 1.3028e-07 
2304 697 0 7.83137e-06 
687 2014 0 2.6599e-06 
788 1576 0 9.30965e-06 
1016 2243 0 8.86824e-06 
1355 1576 0 1.33288e-05 
1355 191 0 1.60536e-05 
2375 191 0 1.10289e-05 
2375 2014 0 1.37388e-05 
1145 1765 0 6.95845e-06 
697 933 0 1.92642e-05 
1207 2035 0 1.3216e-05 
1436 1245 0 2.38701e-05 
1436 1688 0 2.0116e-05 
1436 2044 0 1.10878e-05 
2257 238 0 5.49819e-05 
2257 1452 0 4.44565e-05 
2257 662 0 6.41178e-05 
1856 1943 0 1.45606e-06 
945 191 0 4.89538e-06 
945 662 0 1.36802e-05 
258 1691 0 2.19105e-05 
258 1062 0 7.17983e-06 
191 2035 0 1.41016e-05 
2014 1765 0 8.07474e-06 
2014 751 0 6.03017e-06 
2035 1062 0 1.06072e-05 
2035 1114 0 1.40457e-05 
1688 589 0 4.4672e-06 
2044 1245 0 5.43775e-06 
2044 105 0 6.90986e-07 
933 1062 0 2.09678e-05 
1452 1581 0 2.62218e-05 
662 1691 0 5.77103e-05 
2133 683 0 1.32934e-05 
2133 706 0 6.19749e-06 
2133 162 0 1.68926e-06 
2133 2309 0 1.40407e-05 
1765 706 0 8.92214e-06 
1062 2413 0 2.68104e-05 
751 1114 0 2.01921e-05 
751 1353 0 1.1691e-05 
1310 2389 0 8.63307e-06 
875 706 0 3.74691e-06 
875 991 0 3.97655e-07 
706 93 0 4.75875e-06 
706 2435 0 6.30722e-06 
1353 93 0 1.01675e-05 
162 1251 0 8.51445e-06 
2413 783 0 1.62662e-05 
2413 2123 0 4.21768e-05 
2413 1077 0 6.43636e-06 
2413 1915 0 2.52441e-05 
813 583 0 6.67105e-06 
881 1915 0 2.19739e-05 
52 1251 0 2.75564e-05 
901 852 0 6.00307e-05 
907 1625 0 3.01822e-06 
2389 1077 0 2.79874e-05 
2389 1163 0 3.3892e-05 
2123 1625 0 3.14381e-05 
93 2471 0 1.77732e-05 
2309 2180 0 8.14762e-06 
1077 1694 0 8.52489e-06 
1077 842 0 2.50115e-05 
1694 842 0 1.91121e-05 
1694 368 0 1.33959e-05 
1694 714 0 3.56799e-06 
2435 2471 0 1.82523e-05 
2435 368 0 1.79518e-05 
1915 842 0 1.11863e-05 
1915 1634 0 2.30548e-05 
1156 368 0 3.00315e-06 
1251 2428 0 2.27789e-05 
1427 842 0 2.92677e-05 
1502 368 0 2.93782e-05 
1163 1173 0 1.55314e-05 
1645 2471 0 8.72444e-06 
4 2471 0 2.32189e-05 
1625 1440 0 3.57696e-05 
127 1173 0 6.08546e-06 
2428 1836 0 8.72961e-06 
2428 572 0 7.11861e-06 
842 1530 0 1.38544e-05 
368 2293 0 1.92838e-05 
2486 2491 0 0.000201746 
155 807 0 4.41244e-05 
1173 1192 0 1.52956e-05 
1173 2105 0 2.95902e-05 
1720 2180 0 9.0449e-06 
1720 2293 0 1.54599e-05 
1720 2464 0 1.58917e-05 
1720 1226 0 4.06454e-06 
1720 459 0 3.95097e-06 
1440 605 0 2.03718e-05 
1440 1192 0 4.09401e-05 
2180 1836 0 1.05649e-05 
2180 2293 0 6.19152e-06 
2180 80 0 9.65178e-06 
1634 1530 0 5.00434e-06 
1634 1252 0 1.94809e-05 
1530 2063 0 1.27769e-05 
1803 1196 0 3.01161e-06 
1803 807 0 5.54015e-05 
2464 2477 0 9.05096e-06 
2464 2433 0 1.8634e-05 
2038 2105 0 1.41654e-05 
1192 2105 0 3.05782e-05 
80 1374 0 5.00406e-06 
80 1888 0 1.2766e-05 
80 2210 0 1.44998e-05 
1226 2052 0 3.13789e-06 
956 283 0 6.44188e-06 
173 2174 0 2.6803e-05 
1374 2184 0 8.62804e-06 
283 2254 0 1.32752e-05 
2063 2184 0 2.61936e-06 
2063 1252 0 1.18351e-05 
2063 1079 0 1.7041e-05 
2254 1636 0 1.95468e-06 
2254 1079 0 1.5112e-05 
1826 389 0 8.20627e-05 
1196 2175 0 2.15295e-05 
2175 1283 0 1.37356e-05 
2433 43 0 3.60622e-05 
2105 211 0 8.642e-05 
2105 1340 0 5.29267e-05 
459 2001 0 3.5793e-05 
2052 2174 0 5.62975e-06 
2052 1340 0 4.18667e-06 
2174 2184 0 9.8429e-06 
2174 1252 0 9.5859e-06 
2174 1135 0 1.09753e-05 
2174 761 0 4.99353e-06 
2174 2108 0 1.98693e-05 
1840 2210 0 2.16515e-05 
1840 197 0 1.39652e-05 
1840 1079 0 2.92796e-05 
1840 2278 0 7.27615e-06 
1252 1740 0 1.40738e-05 
389 2313 0 9.29199e-05 
389 168 0 2.38549e-05 
2313 16 0 3.0857e-05 
168 211 0 5.53583e-05 
211 2001 0 4.41069e-05 
211 1882 0 3.20533e-05 
2001 1340 0 1.29664e-05 
1340 1387 0 3.17238e-05 
1340 1842 0 1.71724e-05 
1888 1477 0 1.07553e-05 
1888 193 0 1.84549e-05 
2210 2165 0 2.05722e-05 
1260 2108 0 5.47967e-06 
1740 2316 0 9.3382e-06 
761 2316 0 5.25589e-06 
1372 269 0 4.3636e-06 
193 330 0 2.31516e-05 
1387 350 0 2.0325e-05 
2165 1361 0 1.99746e-05 
2165 2212 0 1.51238e-05 
2165 1809 0 2.00426e-05 
2108 1842 0 4.85688e-06 
2108 350 0 1.8816e-05 
2108 2316 0 1.75868e-07 
2108 1541 0 1.18157e-05 
2278 1833 0 3.76008e-06 
2278 1017 0 9.77534e-06 
1833 1563 0 7.03138e-06 
350 1417 0 1.55216e-05 
2316 1417 0 6.42652e-06 
373 2479 0 6.50101e-05 
858 1962 0 1.38045e-05 
1746 252 0 4.3764e-06 
1746 896 0 9.20433e-06 
1962 1361 0 2.01966e-05 
1962 2045 0 3.54415e-06 
1011 1287 0 4.1747e-06 
1361 271 0 2.13731e-05 
1842 1287 0 4.7449e-06 
1842 1616 0 6.70843e-06 
2212 1232 0 1.37317e-05 
2212 1541 0 1.70454e-05 
2212 1017 0 7.12075e-06 
26 2022 0 2.43821e-05 
2045 900 0 1.56456e-05 
2045 2361 0 1.45947e-05 
2361 896 0 1.53072e-05 
2361 330 0 1.48442e-05 
2361 1473 0 7.58277e-06 
271 1262 0 1.96829e-05 
271 1678 0 3.91794e-06 
330 1653 0 2.1233e-05 
330 1571 0 7.46449e-06 
330 1152 0 5.99609e-06 
1571 1809 0 2.59166e-05 
1571 262 0 1.22055e-05 
1571 962 0 3.0096e-05 
1571 83 0 9.04106e-07 
1287 1782 0 6.33271e-06 
1616 1653 0 5.05277e-06 
1616 2028 0 4.34947e-06 
1616 983 0 5.88867e-06 
1809 2028 0 1.38161e-05 
1809 1152 0 5.44989e-06 
1541 1782 0 1.82168e-05 
1541 1991 0 1.00248e-05 
2261 262 0 1.41381e-06 
1017 2028 0 7.27034e-06 
1017 1745 0 3.7552e-07 
1017 840 0 1.0203e-05 
1417 1988 0 5.89043e-06 
1991 1745 0 8.23026e-06 
1991 1416 0 6.30171e-06 
2265 900 0 1.60702e-05 
1473 2112 0 4.06931e-06 
900 1678 0 2.01741e-06 
1678 1653 0 8.31445e-06 
1678 752 0 3.52061e-06 
1262 752 0 1.06863e-05 
1653 1924 0 1.60875e-05 
124 2387 0 5.3409e-06 
1152 989 0 9.74217e-06 
1782 1793 0 3.68563e-06 
2028 1926 0 1.39716e-05 
1988 1416 0 3.38761e-06 
1988 2011 0 2.4902e-06 
1534 980 0 7.11559e-06 
1504 1047 0 5.56737e-06 
1565 717 0 1.01653e-06 
1589 2383 0 1.32919e-06 
1589 1924 0 1.90641e-06 
752 1549 0 1.28765e-06 
983 230 0 6.55388e-06 
989 1924 0 3.25438e-06 
989 115 0 6.79126e-06 
83 1438 0 1.77468e-06 
1793 2011 0 1.62338e-05 
1793 296 0 3.317e-07 
1926 1416 0 9.11586e-06 
1926 115 0 9.30357e-06 
1926 1222 0 9.83108e-06 
1416 2011 0 6.2651e-06 
2387 690 0 5.31708e-06 
230 60 0 4.10159e-06 
1924 1280 0 9.58363e-06 
1924 1438 0 1.34584e-06 
1438 805 0 4.30365e-08 
2160 223 0 1.07258e-05 
2160 115 0 5.79767e-06 
1006 67 0 4.51558e-06 
1006 503 0 8.1476e-06 
2363 1380 0 8.46456e-06 
97 862 0 7.61597e-06 
1280 115 0 9.93162e-07 
1280 2169 0 9.94946e-06 
805 179 0 2.99666e-06 
1593 1416 0 3.31721e-06 
1593 515 0 1.54716e-06 
1593 2323 0 5.57803e-07 
1222 1744 0 5.03226e-06 
1222 2323 0 4.04605e-06 
1744 503 0 5.6561e-06 
1380 2068 0 1.43156e-06 
2073 768 0 2.10766e-06 
2073 1185 0 1.02775e-05 
1891 1449 0 6.43269e-07 
1891 1989 0 7.78675e-07 
2409 1246 0 5.30875e-06 
232 1246 0 4.0786e-06 
1989 2169 0 2.46623e-06 
2169 515 0 2.70949e-06 
1418 179 0 1.75545e-06 
1418 2047 0 4.74919e-07 
179 503 0 3.51075e-06 
179 1052 0 6.48862e-07 
2338 2011 0 6.46519e-06 
2338 559 0 1.90821e-06 
2338 416 0 5.66764e-06 
2323 1903 0 5.93749e-06 
503 314 0 2.09606e-06 
503 828 0 9.97557e-06 
1319 836 0 5.94084e-06 
1449 1296 0 6.03752e-06 
850 2351 0 4.16537e-06 
1185 1246 0 9.15998e-06 
1185 695 0 1.02213e-05 
1185 2351 0 8.21814e-06 
862 803 0 9.28011e-06 
1246 234 0 2.38041e-06 
1246 705 0 6.1956e-06 
1491 2040 0 3.96007e-06 
1491 2010 0 3.96653e-06 
559 2010 0 3.79573e-07 
2047 348 0 4.72024e-06 
1052 1314 0 3.47649e-06 
1052 828 0 2.51748e-06 
1052 509 0 6.90297e-06 
1843 2233 0 2.56422e-06 
2353 516 0 2.50375e-07 
1271 1631 0 3.02994e-06 
2351 1021 0 2.62838e-06 
705 1347 0 3.27502e-06 
2040 2127 0 3.7002e-06 
1716 1314 0 9.77971e-07 
2010 1903 0 3.78562e-06 
2010 1805 0 5.5956e-07 
2010 2300 0 1.45484e-06 
2233 1921 0 1.94626e-06 
416 1873 0 4.69454e-06 
1903 1342 0 6.02319e-06 
1903 1920 0 4.25872e-06 
828 1974 0 6.35239e-06 
2339 903 0 7.87361e-06 
836 1467 0 1.2474e-05 
2023 1021 0 1.67008e-06 
1128 695 0 4.71602e-06 
1128 1456 0 4.23168e-06 
1296 831 0 5.5565e-07 
1631 549 0 9.62593e-07 
1631 1893 0 2.56805e-06 
1748 695 0 1.58096e-06 
803 1785 0 3.58876e-06 
1257 348 0 6.94104e-06 
1257 549 0 1.91829e-06 
2127 640 0 8.99018e-07 
2127 1621 0 5.21283e-06 
1805 1873 0 6.5761e-06 
1921 2179 0 3.31845e-07 
1873 1692 0 2.67233e-06 
1920 1974 0 4.64149e-06 
1920 909 0 6.11334e-06 
1974 1747 0 2.3349e-06 
1974 1935 0 3.75873e-06 
1727 981 0 3.17689e-06 
1785 1899 0 1.18481e-06 
1347 1328 0 5.51115e-07 
1758 1637 0 1.21284e-06 
2179 1592 0 3.21906e-06 
2179 55 0 6.75722e-07 
1592 1408 0 2.9248e-06 
640 1671 0 2.42196e-06 
640 1692 0 1.49564e-06 
1621 55 0 7.04589e-06 
584 509 0 5.56223e-06 
584 1935 0 3.38443e-06 
584 1022 0 4.85031e-06 
584 365 0 3.45888e-06 
1342 546 0 2.76115e-06 
1376 190 0 6.83957e-06 
1655 479 0 6.92903e-06 
1899 527 0 2.15718e-06 
1328 1951 0 1.94099e-06 
1671 2209 0 2.53956e-06 
567 1951 0 1.64242e-06 
567 329 0 2.92091e-06 
1692 1945 0 6.21451e-07 
1692 597 0 1.49159e-06 
546 909 0 6.52342e-06 
546 1945 0 7.088e-06 
546 1554 0 6.04598e-07 
909 2282 0 7.5998e-06 
909 1795 0 6.70278e-06 
2282 1935 0 8.39347e-06 
1935 1293 0 1.03347e-05 
249 1956 0 2.1866e-06 
811 1325 0 5.41509e-06 
631 1370 0 5.16161e-06 
2209 1730 0 7.14388e-07 
1951 1525 0 3.39334e-06 
1116 55 0 1.35807e-06 
1116 762 0 8.96756e-06 
55 268 0 6.67087e-06 
1113 451 0 7.8606e-06 
1841 1543 0 7.63797e-06 
451 766 0 8.36517e-06 
766 1545 0 1.46538e-06 
766 182 0 9.07992e-06 
732 1545 0 1.78905e-06 
732 1557 0 3.17375e-06 
182 1119 0 1.12544e-05 
1557 280 0 6.1696e-06 
1229 1325 0 7.37972e-06 
1325 527 0 1.09625e-05 
280 1157 0 3.41367e-06 
1370 1341 0 1.60106e-07 
1370 1525 0 6.54269e-06 
1370 2219 0 4.77827e-06 
1370 2120 0 2.57673e-06 
1370 1923 0 2.85158e-06 
527 957 0 1.02734e-05 
527 979 0 3.17932e-06 
1341 663 0 3.8135e-06 
957 1914 0 1.57303e-06 
1730 1852 0 6.4224e-07 
762 63 0 9.46539e-06 
329 268 0 3.05517e-06 
329 1911 0 4.72451e-06 
268 968 0 6.79787e-06 
426 1828 0 1.19835e-06 
1554 1934 0 2.82631e-08 
1795 1197 0 7.87203e-06 
1661 137 0 1.83708e-06 
1661 2219 0 1.42379e-06 
2120 1099 0 4.20033e-06 
2120 655 0 3.97586e-06 
2120 2219 0 6.72703e-07 
663 2219 0 2.18596e-06 
663 2083 0 4.61681e-06 
979 2083 0 1.31234e-06 
1911 1923 0 3.58685e-06 
1897 2083 0 6.68347e-06 
1897 1828 0 7.62349e-06 
1197 1828 0 8.51234e-06 
1543 685 0 4.74066e-07 
685 1120 0 1.40202e-06 
137 1798 0 6.14817e-06 
1798 298 0 1.1178e-05 
1852 2176 0 3.45265e-06 
968 30 0 2.27474e-06 
2176 1934 0 8.79915e-07 
414 1551 0 0.000432803 
1641 2241 0 0.000624695 
229 1551 0 0.000336086 
1551 523 0 0.000422374 
25 241 0 0.000717844 
523 2168 0 5.50735e-05 
236 844 0 0.000175843 
1600 2116 0 0.000281675 
2496 2454 0 0.000124691 
1933 2454 0 9.23432e-05 
2408 1577 0 4.11201e-05 
1768 1411 0 0.00118324 
1611 514 0 8.10905e-08 
1241 1028 0 1.6537e-05 
921 734 0 3.04718e-06 
2333 1068 0 1.94856e-06 
2100 1095 0 2.95435e-05 
653 141 0 0.000502057 
488 1778 0 3.14739e-06 
667 1595 0 6.21196e-06 
1976 437 0 2.71072e-06 
826 2187 0 1.10422e-05 
1820 1317 0 4.8037e-06 
2310 2102 0 7.8112e-05 
2102 293 0 8.16585e-05 
432 1139 0 2.44546e-05 
432 2297 0 8.13021e-05 
1139 1964 0 3.23118e-05 
547 1773 0 1.25414e-05 
1125 293 0 1.29106e-05 
2297 2445 0 3.59848e-05 
2297 2153 0 4.06832e-05 
1773 1804 0 1.40272e-06 
2445 1860 0 3.96225e-06 
2445 2024 0 3.52597e-05 
1860 358 0 3.04885e-05 
2024 588 0 2.73833e-05 
1392 1492 0 1.04402e-05 
1227 675 0 2.11728e-05 
1227 237 0 7.28667e-06 
1227 1954 0 8.03986e-06 
1348 1771 0 2.28632e-05 
675 1708 0 1.70044e-05 
1949 142 0 1.89712e-05 
630 1442 0 1.71488e-05 
630 1049 0 2.37651e-05 
1442 1307 0 1.00007e-05 
1442 1649 0 1.47727e-05 
1442 1492 0 5.25744e-06 
237 2060 0 2.07077e-05 
1307 1065 0 1.08086e-05 
1447 1708 0 1.45767e-05 
1447 1492 0 2.46379e-05 
1447 449 0 4.54569e-05 
1708 560 0 3.85933e-06 
1708 2033 0 1.50807e-05 
1708 2152 0 2.72549e-05 
1708 2270 0 6.0373e-05 
2060 396 0 2.12825e-05 
396 626 0 2.88848e-05 
1649 741 0 1.43693e-06 
1649 188 0 1.28227e-05 
560 2155 0 1.40313e-05 
560 1058 0 4.14548e-05 
2155 2118 0 1.47674e-07 
2155 1301 0 1.84606e-05 
376 1058 0 1.14187e-05 
2118 1301 0 1.33754e-05 
1964 2279 0 2.272e-05 
2488 2279 0 5.82822e-06 
588 2495 0 6.35621e-05 
588 618 0 1.6271e-05 
1049 618 0 4.26611e-05 
1771 787 0 2.85688e-05 
1771 1402 0 3.4578e-05 
1771 1961 0 3.08693e-06 
1492 2033 0 7.6008e-06 
2152 1402 0 3.26048e-05 
2152 2270 0 1.97626e-05 
2152 309 0 4.43002e-06 
142 1725 0 2.46205e-05 
142 626 0 3.39972e-05 
2414 959 0 2.87769e-05 
2270 804 0 3.36212e-05 
2270 2021 0 4.76351e-05 
626 1301 0 2.67981e-05 
626 217 0 2.04035e-05 
1514 1065 0 5.85443e-06 
1514 1245 0 1.46095e-05 
449 628 0 2.33991e-05 
449 2290 0 5.44811e-05 
1058 309 0 4.17933e-05 
1058 2296 0 5.41173e-05 
1301 1308 0 6.3097e-06 
1111 2290 0 3.84918e-05 
1111 607 0 3.22302e-05 
1993 2332 0 1.05735e-05 
345 2480 0 2.59643e-05 
345 221 0 7.12945e-05 
2279 2480 0 1.23532e-05 
1906 1954 0 2.7788e-07 
1337 1194 0 1.98359e-05 
1954 1194 0 6.26989e-06 
1954 1402 0 8.39997e-06 
787 485 0 2.88202e-05 
787 1961 0 1.79562e-06 
787 2485 0 1.61341e-06 
2240 188 0 7.94416e-06 
2240 1515 0 1.56468e-05 
1402 309 0 2.0218e-05 
1402 950 0 2.56327e-05 
628 2193 0 2.88078e-05 
628 443 0 1.07242e-05 
309 804 0 1.17873e-05 
309 1308 0 2.26663e-05 
1725 1855 0 1.62473e-05 
1725 1308 0 2.99554e-05 
188 443 0 9.62636e-06 
188 1074 0 8.29912e-06 
607 1245 0 7.68159e-06 
607 1074 0 1.07055e-05 
2296 2021 0 2.78086e-05 
2058 1191 0 0.000298483 
2480 725 0 2.42463e-05 
2480 1493 0 3.57816e-07 
1333 1961 0 1.91384e-05 
618 221 0 1.4893e-05 
618 1515 0 2.09532e-05 
1704 725 0 2.49919e-05 
1704 23 0 2.65655e-05 
1704 2395 0 1.01025e-05 
1961 135 0 6.38881e-06 
1582 661 0 4.97395e-06 
2193 1948 0 1.47534e-05 
2193 312 0 3.39455e-05 
1948 804 0 4.13616e-05 
1948 725 0 5.2374e-05 
1948 950 0 5.27453e-05 
950 1855 0 4.10326e-06 
950 2395 0 7.32898e-06 
2485 2459 0 2.03736e-06 
2485 2130 0 8.93015e-06 
959 1245 0 2.57049e-05 
959 1515 0 4.90097e-05 
959 1485 0 5.72684e-06 
959 683 0 2.20781e-05 
2049 2021 0 6.9952e-06 
2049 1288 0 1.40271e-05 
2049 801 0 2.29958e-06 
804 1277 0 3.91325e-05 
1855 1308 0 8.1839e-06 
1855 135 0 8.47649e-07 
1855 77 0 4.13139e-07 
2130 1939 0 4.82686e-06 
1485 443 0 2.13069e-05 
1485 1074 0 2.60762e-05 
1485 754 0 1.34435e-05 
1308 1277 0 1.03385e-05 
1308 53 0 3.47097e-05 
1308 438 0 1.63614e-05 
443 2021 0 4.07638e-05 
443 1461 0 8.88613e-06 
443 801 0 1.3187e-05 
2021 273 0 2.07444e-05 
1277 421 0 1.40106e-05 
1277 699 0 4.01433e-05 
217 53 0 1.016e-05 
217 2372 0 8.48306e-06 
1461 1144 0 5.81118e-06 
1191 1352 0 0.000424741 
221 312 0 1.691e-05 
725 312 0 3.67006e-05 
312 1288 0 1.50157e-05 
1288 754 0 5.68343e-06 
1288 1024 0 1.81936e-05 
77 273 0 1.13425e-05 
77 496 0 4.88806e-06 
438 2382 0 1.435e-05 
438 1332 0 1.24895e-05 
801 2419 0 1.35983e-05 
801 152 0 2.63475e-05 
699 2460 0 1.13044e-05 
699 1332 0 2.25254e-05 
1332 2372 0 2.05993e-05 
1332 616 0 5.44811e-06 
2372 910 0 2.19649e-05 
808 864 0 1.61812e-06 
2395 1754 0 1.24656e-05 
2395 2476 0 7.0438e-06 
683 1845 0 9.03429e-06 
292 1629 0 8.80937e-07 
2382 1629 0 4.89269e-06 
289 616 0 8.65757e-06 
1201 2156 0 3.14408e-05 
2460 721 0 4.93363e-06 
2460 750 0 6.22367e-06 
2419 750 0 1.59188e-05 
1292 910 0 6.21413e-06 
701 1806 0 6.35542e-05 
1617 1845 0 1.61532e-05 
1754 565 0 6.48607e-06 
864 383 0 1.05011e-05 
306 1024 0 4.93191e-06 
2476 1024 0 2.11577e-05 
2476 1081 0 2.57848e-05 
1845 382 0 2.37894e-05 
1024 1080 0 1.10271e-05 
152 382 0 2.33673e-05 
2286 2272 0 2.69133e-05 
721 616 0 7.17449e-06 
721 1045 0 1.2843e-05 
105 52 0 4.17155e-06 
616 32 0 7.35196e-06 
750 151 0 1.26859e-05 
151 649 0 1.49895e-06 
477 2462 0 1.35036e-05 
565 564 0 8.90673e-06 
564 1098 0 2.49589e-05 
541 915 0 1.18513e-05 
382 755 0 9.51248e-06 
1080 563 0 1.4317e-05 
270 1098 0 1.52435e-05 
270 207 0 7.87127e-06 
1045 1081 0 3.33383e-05 
1045 671 0 1.84833e-05 
359 1107 0 2.2656e-06 
359 563 0 1.96158e-05 
1503 207 0 2.64553e-06 
1503 140 0 1.16218e-06 
32 634 0 6.17438e-06 
32 1642 0 8.19979e-06 
2273 563 0 4.8903e-05 
649 1642 0 4.24273e-06 
67 1170 0 6.87116e-06 
669 1894 0 0.000268996 
745 419 0 6.93116e-05 
2462 2455 0 2.20506e-05 
383 1486 0 1.55867e-05 
1836 956 0 2.10431e-06 
1081 1659 0 4.18732e-06 
915 1659 0 1.05991e-05 
755 563 0 4.89481e-05 
755 2456 0 3.15507e-05 
1098 2458 0 3.82219e-05 
634 1511 0 1.35315e-06 
207 1405 0 5.08524e-06 
572 1662 0 2.80944e-06 
572 2080 0 1.27843e-05 
2181 1159 0 2.46867e-05 
671 1508 0 6.85075e-06 
671 1639 0 8.58634e-06 
1662 462 0 6.61556e-06 
1662 1636 0 2.74064e-06 
1642 1508 0 6.25153e-06 
1352 1035 0 0.00058698 
419 21 0 4.15675e-05 
1454 4 0 1.7298e-05 
2456 1327 0 1.15027e-05 
1659 1094 0 8.00103e-07 
1659 1652 0 5.0834e-06 
1659 1677 0 9.17279e-06 
1638 1400 0 3.05372e-05 
1638 1159 0 2.96178e-05 
1677 2438 0 7.37963e-06 
1511 1652 0 2.05502e-06 
1511 2417 0 9.77961e-07 
1159 2458 0 2.54427e-05 
1159 462 0 1.02416e-05 
1159 908 0 6.12213e-06 
2458 2429 0 4.09967e-05 
1639 140 0 2.76741e-06 
1639 2095 0 1.1502e-05 
1508 1832 0 6.12709e-06 
1064 1938 0 1.72121e-07 
140 1405 0 4.96616e-06 
1004 1162 0 0.000419936 
1400 43 0 2.38511e-05 
1486 2466 0 1.31884e-05 
397 1460 0 5.84504e-06 
1460 902 0 6.21727e-06 
1460 908 0 1.56369e-05 
868 1405 0 2.3387e-06 
868 1124 0 8.39047e-06 
1652 148 0 3.78353e-06 
2080 170 0 1.89092e-05 
1832 2095 0 6.36272e-06 
1832 2018 0 8.89278e-06 
2042 269 0 2.69709e-06 
2429 107 0 1.29324e-05 
2393 107 0 2.27319e-06 
1321 1863 0 1.87892e-05 
2266 1863 0 1.19689e-05 
2266 43 0 2.96514e-05 
1863 2031 0 4.18879e-05 
1863 1424 0 1.16423e-05 
996 1239 0 2.13536e-05 
2031 2275 0 3.25288e-05 
2031 204 0 4.2923e-05 
2466 2420 0 2.27019e-06 
2466 2206 0 1.84357e-06 
204 579 0 2.08427e-05 
204 1477 0 1.22934e-05 
204 71 0 2.3547e-06 
2275 1282 0 1.28365e-05 
579 197 0 1.23267e-05 
902 1907 0 6.15178e-06 
2438 1590 0 5.88478e-06 
2417 646 0 3.56057e-06 
908 1282 0 8.28148e-07 
908 11 0 1.77643e-05 
170 1996 0 1.21333e-05 
170 1563 0 1.63349e-05 
1590 2095 0 1.39084e-05 
1590 1124 0 4.01396e-06 
1590 1161 0 1.17971e-05 
2095 2122 0 1.36434e-05 
11 1482 0 2.20117e-05 
1424 965 0 2.15878e-05 
239 1345 0 1.75824e-06 
1591 2191 0 8.14745e-07 
2430 2224 0 1.84099e-06 
1477 132 0 1.28599e-05 
1907 1013 0 3.20612e-06 
1907 1482 0 1.72181e-05 
1907 71 0 1.3814e-05 
1282 1448 0 5.0687e-06 
2407 148 0 6.19053e-06 
2407 1865 0 4.77792e-06 
148 1663 0 3.79257e-06 
1124 2306 0 2.98658e-06 
1124 2008 0 5.24943e-06 
1124 1604 0 1.42062e-05 
1482 833 0 1.23414e-05 
1482 2008 0 1.16617e-05 
1161 401 0 3.3564e-06 
781 737 0 8.6977e-07 
2191 2104 0 1.35649e-05 
965 71 0 2.27903e-06 
965 194 0 2.13941e-05 
965 448 0 2.24885e-05 
71 1823 0 7.49529e-06 
71 73 0 6.8359e-06 
1013 197 0 2.74687e-06 
1013 1823 0 6.82559e-06 
1013 1563 0 2.95783e-06 
1013 262 0 3.93831e-06 
1448 448 0 1.24835e-05 
511 2008 0 5.16114e-06 
1865 647 0 5.05648e-07 
1865 2251 0 1.75362e-06 
1663 2405 0 5.69613e-06 
2008 833 0 4.61382e-06 
2008 1666 0 1.1988e-05 
1604 679 0 1.34604e-05 
1604 1005 0 1.19109e-05 
1563 2048 0 6.62433e-06 
1563 418 0 9.45951e-06 
919 767 0 1.85923e-06 
1788 2306 0 7.59516e-06 
1431 524 0 1.39755e-05 
737 252 0 1.10383e-05 
863 860 0 4.51815e-05 
1823 896 0 1.35119e-05 
262 2267 0 1.33924e-05 
262 1484 0 1.95048e-06 
2405 2232 0 5.13656e-06 
2405 1922 0 4.50699e-06 
2405 2379 0 1.04683e-05 
447 1005 0 9.22799e-07 
833 2267 0 1.32847e-05 
833 2119 0 1.39069e-05 
833 1666 0 3.74563e-06 
1005 679 0 3.32622e-06 
1937 1575 0 1.10824e-06 
1522 1743 0 7.51968e-07 
401 1944 0 3.37396e-06 
401 2256 0 1.81935e-06 
252 194 0 2.45189e-05 
194 1265 0 4.52075e-06 
194 22 0 1.4242e-05 
1371 1598 0 1.31128e-05 
73 962 0 7.73262e-06 
1302 2451 0 1.98657e-07 
448 1108 0 6.76122e-06 
448 386 0 1.4758e-05 
1913 1330 0 8.33188e-06 
1108 1521 0 1.13935e-05 
1922 1489 0 1.86861e-06 
1922 1221 0 2.9457e-06 
1922 294 0 1.02542e-06 
2267 2380 0 1.25813e-05 
2267 928 0 1.00546e-05 
679 1666 0 5.46366e-06 
679 82 0 1.34709e-05 
1666 1138 0 1.3719e-05 
1666 1743 0 1.32685e-06 
2416 1085 0 1.33643e-06 
2119 2380 0 9.42521e-06 
2256 1944 0 1.00217e-05 
2256 2332 0 1.77573e-06 
524 1575 0 3.48466e-06 
524 2332 0 1.51948e-05 
1047 1265 0 1.96642e-05 
1598 581 0 6.40462e-06 
1265 962 0 2.65794e-05 
22 1627 0 1.02625e-05 
22 785 0 6.11696e-06 
962 1484 0 5.76896e-06 
962 124 0 6.24551e-06 
1627 785 0 3.91585e-06 
1521 802 0 1.60726e-05 
2305 1568 0 2.38129e-06 
2305 2396 0 1.58438e-06 
1489 2332 0 7.37135e-07 
1743 1170 0 4.46392e-06 
1944 64 0 9.20292e-06 
2332 2396 0 7.90099e-06 
1575 218 0 1.36467e-06 
428 212 0 2.83289e-05 
581 495 0 3.11247e-06 
581 785 0 3.05877e-06 
581 356 0 4.2004e-06 
2114 749 0 6.28711e-07 
244 253 0 7.03207e-06 
785 2277 0 6.53238e-06 
1714 802 0 4.62916e-07 
1714 853 0 4.4351e-06 
1737 1168 0 5.93215e-06 
1737 1023 0 8.9184e-06 
802 884 0 1.24902e-05 
253 83 0 2.92408e-06 
305 928 0 2.5683e-08 
305 1138 0 3.92632e-06 
305 2277 0 9.84269e-07 
928 1138 0 8.61583e-06 
928 2397 0 1.45549e-05 
1138 2136 0 8.30068e-06 
1138 10 0 1.02069e-05 
64 2396 0 5.32071e-06 
2396 576 0 1.69368e-06 
1904 1231 0 1.36798e-05 
749 324 0 2.30112e-06 
1966 495 0 5.3662e-06 
2277 2136 0 2.93397e-06 
2277 1274 0 6.05364e-06 
2041 2136 0 1.36296e-06 
2136 129 0 1.09738e-05 
884 1023 0 5.93589e-06 
884 576 0 2.13884e-06 
1023 1646 0 1.04769e-05 
2397 223 0 8.04627e-06 
2397 1950 0 1.09436e-05 
1162 1894 0 5.51586e-06 
708 208 0 6.42083e-06 
208 2199 0 2.93368e-06 
2085 749 0 6.51331e-06 
2085 2051 0 7.96323e-06 
2085 1825 0 4.62062e-06 
2051 495 0 3.35419e-06 
2051 439 0 4.02129e-06 
2051 31 0 6.88709e-06 
1846 692 0 1.16953e-05 
690 1274 0 5.55532e-06 
690 1999 0 1.68761e-06 
1274 439 0 3.46692e-06 
1274 1532 0 3.07956e-06 
1274 476 0 7.17473e-06 
2345 853 0 4.50067e-07 
2345 703 0 1.85858e-06 
853 2421 0 7.2754e-06 
2146 1023 0 5.2641e-06 
1532 129 0 3.40102e-07 
2086 1075 0 1.87685e-06 
2086 1693 0 3.3121e-06 
2157 2007 0 6.29444e-08 
2157 2136 0 4.96881e-06 
2157 969 0 4.85477e-06 
2157 2406 0 6.94715e-06 
2403 576 0 3.99279e-06 
2403 938 0 3.44796e-06 
1881 1646 0 1.28452e-06 
1881 1214 0 1.66653e-06 
314 67 0 6.73267e-06 
314 534 0 2.43744e-07 
1879 10 0 5.00106e-06 
1879 534 0 1.83897e-06 
147 64 0 1.11043e-05 
147 10 0 6.15639e-06 
147 1143 0 1.33424e-05 
147 192 0 4.08724e-07 
2062 1993 0 5.66714e-06 
2062 576 0 5.00736e-06 
2062 643 0 1.03565e-05 
2062 1470 0 9.29247e-06 
2319 1993 0 1.04904e-05 
2319 652 0 1.50004e-05 
2319 1470 0 9.60029e-06 
1037 592 0 4.5569e-06 
1037 2061 0 2.63315e-06 
1533 935 0 2.88689e-06 
1533 2096 0 3.17548e-07 
1825 935 0 2.45029e-06 
1825 1905 0 2.04429e-06 
1709 692 0 1.21167e-05 
1999 1246 0 9.02679e-07 
1999 1569 0 4.07835e-06 
894 703 0 2.84238e-06 
894 1044 0 3.15061e-06 
439 969 0 6.38463e-06 
31 1075 0 4.25844e-06 
31 2140 0 2.19872e-06 
149 2202 0 1.14959e-06 
1075 969 0 1.24679e-06 
129 427 0 4.4566e-06 
969 554 0 5.33393e-06 
969 973 0 5.85763e-06 
938 2421 0 4.88347e-06 
938 707 0 1.65442e-06 
1950 179 0 4.18139e-06 
1950 949 0 2.20605e-06 
1950 1587 0 1.02199e-05 
2406 1693 0 6.3586e-06 
2406 973 0 1.28657e-06 
2406 286 0 1.93918e-06 
1693 643 0 6.54553e-06 
1143 1468 0 1.46726e-05 
1470 1066 0 9.10322e-06 
1336 2166 0 4.04255e-06 
2199 404 0 2.1632e-06 
2183 2166 0 4.84492e-06 
2183 260 0 8.97256e-06 
2183 48 0 1.58442e-06 
476 1947 0 5.89616e-06 
476 2143 0 5.24587e-06 
1905 2109 0 1.21237e-06 
1569 427 0 4.36284e-06 
1569 2143 0 4.29428e-06 
1569 1751 0 6.64921e-07 
703 1339 0 5.58236e-06 
2140 2373 0 1.0442e-06 
2140 1067 0 1.80084e-06 
2421 246 0 7.67593e-06 
2421 1250 0 6.48774e-06 
707 1339 0 3.03554e-06 
949 509 0 3.38584e-06 
427 1786 0 3.99782e-06 
973 116 0 1.49457e-06 
973 1610 0 4.53678e-06 
973 1203 0 2.64836e-06 
2373 1250 0 1.42381e-06 
2373 2141 0 2.51699e-07 
982 1786 0 6.75004e-07 
1214 742 0 8.4933e-07 
1214 513 0 2.80764e-06 
1587 1007 0 7.31455e-06 
534 1007 0 3.30646e-06 
643 948 0 1.40745e-05 
1224 652 0 7.60767e-06 
1224 555 0 3.20975e-06 
338 2385 0 6.79316e-06 
2059 1429 0 8.46549e-06 
1093 430 0 6.93974e-07 
890 1682 0 4.62353e-06 
445 695 0 5.69128e-06 
445 1971 0 4.47463e-06 
404 2281 0 8.40947e-07 
48 175 0 6.68526e-06 
48 159 0 3.9238e-06 
2238 321 0 7.29663e-06 
1947 1971 0 6.46938e-06 
175 2410 0 1.07964e-05 
175 1867 0 1.36649e-06 
2143 2110 0 9.69739e-06 
246 1781 0 3.87347e-06 
246 1183 0 5.61037e-06 
1339 101 0 4.42444e-06 
554 1067 0 6.72905e-06 
1786 509 0 3.32768e-06 
1786 556 0 3.61268e-06 
1786 729 0 2.09537e-06 
1250 286 0 7.20466e-07 
1250 491 0 5.89962e-06 
1250 2384 0 2.81637e-06 
286 1146 0 5.07036e-07 
1007 1747 0 1.11412e-05 
1007 1468 0 1.47474e-05 
1007 869 0 7.41688e-06 
1468 2356 0 1.10494e-05 
1468 1789 0 4.73937e-06 
1066 491 0 6.1465e-06 
1066 1977 0 5.09266e-06 
378 1682 0 4.96369e-06 
1682 797 0 9.63999e-06 
1682 2070 0 7.13822e-06 
1429 820 0 6.56859e-06 
430 2248 0 4.60728e-06 
1707 1117 0 1.62095e-06 
1971 2221 0 8.5727e-06 
1971 2281 0 7.53237e-06 
1971 543 0 2.10127e-07 
2281 2410 0 8.49494e-06 
321 2368 0 8.1357e-06 
2410 865 0 5.11372e-06 
2410 1867 0 2.81567e-06 
2079 2242 0 3.79376e-06 
2109 1153 0 1.42972e-07 
1067 1781 0 4.20905e-06 
1067 730 0 6.06836e-06 
1781 1867 0 1.91881e-06 
101 2357 0 1.3312e-06 
1751 1483 0 4.38586e-08 
1183 205 0 7.30487e-06 
2141 1256 0 6.88087e-07 
729 482 0 7.12021e-06 
2384 1212 0 9.80585e-07 
513 2229 0 2.93833e-06 
2356 1256 0 8.90387e-06 
2356 423 0 1.24092e-07 
491 2229 0 7.22215e-06 
1747 828 0 6.78096e-06 
1146 1808 0 2.15529e-06 
948 1073 0 7.25425e-06 
948 1723 0 1.18652e-05 
1977 1487 0 2.15668e-06 
1977 2171 0 3.50731e-06 
277 797 0 4.67146e-06 
558 2188 0 5.95605e-06 
797 2188 0 6.73401e-06 
820 913 0 9.87723e-07 
820 185 0 4.19298e-06 
2248 1583 0 8.28387e-06 
2221 1188 0 7.3232e-06 
2221 2070 0 1.00716e-05 
2070 185 0 9.56537e-06 
2070 2227 0 3.47547e-07 
2070 456 0 2.76325e-06 
185 1117 0 9.81156e-06 
865 1117 0 7.00658e-06 
865 914 0 3.82766e-06 
2368 1153 0 6.39055e-06 
2368 2360 0 7.73336e-06 
159 1811 0 8.4363e-06 
2242 1365 0 1.72432e-06 
2242 770 0 4.88289e-06 
1408 2110 0 3.54688e-06 
1867 1811 0 3.24468e-06 
1867 1471 0 2.17935e-06 
2110 730 0 8.68117e-07 
2110 2239 0 7.34114e-06 
2110 1619 0 8.6957e-06 
730 2239 0 7.42049e-07 
730 2039 0 8.06369e-06 
556 2239 0 5.61627e-07 
1256 1212 0 7.33771e-06 
2229 2369 0 7.34192e-06 
869 482 0 4.07829e-06 
869 1293 0 8.53865e-06 
1723 1808 0 3.46449e-06 
1723 855 0 1.11143e-05 
1073 224 0 7.43013e-06 
1414 713 0 2.12891e-06 
1414 677 0 1.19406e-06 
2188 913 0 3.05571e-06 
2188 800 0 4.51463e-06 
1540 1188 0 5.85788e-06 
1540 1364 0 2.98874e-06 
1540 1583 0 5.38265e-06 
913 677 0 7.83515e-06 
913 1105 0 4.13468e-06 
1450 1105 0 2.99985e-06 
1450 2347 0 9.4775e-07 
479 591 0 1.01135e-05 
1117 1105 0 1.35781e-05 
2093 2069 0 2.5599e-07 
770 1105 0 6.50288e-06 
2150 2360 0 4.15648e-06 
2150 631 0 4.52478e-06 
1471 570 0 3.00643e-06 
1153 570 0 2.82643e-06 
1811 2357 0 5.70735e-06 
1811 1588 0 4.6148e-06 
1811 1712 0 4.83039e-06 
1550 1443 0 5.28475e-06 
1550 2357 0 5.41201e-06 
1483 1650 0 3.90233e-08 
2239 1965 0 7.10747e-06 
205 942 0 4.9625e-06 
205 1588 0 2.64453e-06 
205 2391 0 5.10606e-06 
1588 2357 0 5.68732e-06 
1588 1212 0 5.82651e-06 
1588 2321 0 3.96579e-06 
1588 1696 0 1.96035e-06 
2357 1567 0 6.45587e-06 
365 1965 0 3.87862e-06 
1613 455 0 1.23358e-06 
1212 2391 0 2.55924e-06 
2056 1042 0 9.65388e-07 
482 423 0 5.35345e-06 
482 1965 0 6.84016e-06 
423 1808 0 2.86454e-06 
423 2097 0 2.61241e-06 
423 1959 0 4.29013e-06 
69 1696 0 2.29705e-07 
1293 2097 0 1.57905e-06 
1293 2343 0 1.31897e-05 
1808 1959 0 3.99244e-06 
2171 224 0 7.019e-06 
2171 467 0 7.80572e-06 
2335 1364 0 4.4866e-06 
899 1364 0 2.72358e-06 
677 1518 0 3.02616e-07 
1263 2134 0 1.54061e-06 
800 1647 0 3.78837e-06 
1583 298 0 7.88008e-06 
591 917 0 1.13145e-05 
591 1200 0 1.33668e-05 
917 2360 0 7.81912e-06 
917 395 0 1.03405e-05 
917 987 0 1.28717e-07 
1105 1150 0 1.48279e-05 
1105 1697 0 9.82028e-06 
2360 1099 0 4.60821e-06 
2350 2337 0 1.18516e-05 
1217 1697 0 2.13118e-07 
442 1619 0 4.27124e-06 
442 987 0 1.68363e-06 
914 2376 0 4.73628e-06 
570 942 0 6.98868e-07 
1619 2039 0 9.35462e-06 
1619 347 0 1.10715e-05 
942 2039 0 6.18884e-06 
1712 2321 0 2.63678e-06 
1712 2376 0 9.13878e-07 
1712 1398 0 5.75705e-06 
2039 940 0 5.024e-06 
1567 764 0 5.8191e-06 
455 940 0 3.62063e-06 
455 2391 0 2.54027e-06 
2391 1772 0 7.72407e-06 
2391 2315 0 6.20411e-06 
2369 932 0 7.80454e-06 
1965 2057 0 2.15881e-06 
1965 2027 0 9.94474e-06 
1696 463 0 2.67313e-06 
1042 467 0 7.72013e-07 
2097 1407 0 3.08182e-06 
2097 2343 0 6.15352e-06 
1959 1407 0 3.96102e-06 
1959 1182 0 3.95923e-06 
855 224 0 7.01021e-06 
855 1182 0 1.35744e-05 
1916 1078 0 1.6298e-05 
171 2134 0 6.15534e-06 
171 906 0 6.2089e-06 
1518 976 0 8.17853e-06 
1518 1584 0 1.33117e-06 
1357 92 0 5.09792e-07 
1357 2347 0 3.07593e-06 
1357 977 0 1.85026e-06 
298 557 0 7.14797e-06 