ITEM: TIMESTEP
18550000
ITEM: NUMBER OF ENTRIES
13319
ITEM: BOX BOUNDS ff ff ff
-0.01 0.45
-0.15 0.15
-0.08 0.1
ITEM: ENTRIES c_ppc[1] c_ppc[2] c_ppc[3] c_ppc[4] 
6298 11361 0 2.51373e-06 
2444 4260 0 2.97684e-06 
6982 9013 0 1.46433e-07 
486 2070 0 4.52054e-06 
11211 5290 0 5.67973e-06 
5377 2070 0 7.33064e-07 
3610 1235 0 6.1004e-07 
3610 2753 0 3.21033e-06 
2753 8033 0 7.41171e-06 
8033 10281 0 9.59835e-06 
10281 4111 0 5.20305e-06 
10281 12657 0 5.06916e-06 
12657 3321 0 7.84584e-08 
279 2178 0 8.66933e-05 
9893 10049 0 0.000257255 
9893 4647 0 0.000332191 
2178 1401 0 7.09481e-05 
10049 6726 0 0.000337804 
3363 1401 0 5.21803e-05 
1401 8205 0 0.000154508 
1401 99 0 0.000178753 
5837 546 0 0.000148743 
15710 546 0 0.000132736 
546 497 0 0.000202123 
16309 9168 0 0.000355401 
16309 2353 0 5.24459e-06 
1280 8711 0 6.40289e-05 
1013 9319 0 5.47574e-05 
9319 1479 0 0.000359698 
5586 6319 0 2.07802e-05 
7964 18237 0 2.05934e-05 
15655 14714 0 7.72095e-07 
2353 7160 0 1.64818e-05 
7160 3705 0 2.53272e-05 
8499 12634 0 1.25765e-05 
8447 1470 0 3.5669e-06 
4470 10858 0 2.07299e-05 
14563 17204 0 2.34524e-05 
1200 1776 0 5.98375e-07 
4044 799 0 1.79432e-05 
18285 17021 0 6.47795e-06 
7951 13263 0 6.4281e-06 
7757 7314 0 2.18472e-05 
9015 7653 0 9.01074e-06 
11903 15866 0 4.37568e-05 
6473 10719 0 2.26973e-05 
10719 12478 0 2.21986e-05 
17341 1075 0 3.29608e-05 
16619 9563 0 3.14348e-05 
6952 7325 0 1.63296e-05 
7325 2652 0 2.16659e-05 
16947 508 0 1.87693e-06 
4187 11450 0 4.99037e-06 
508 9184 0 8.41693e-06 
10086 4064 0 5.79334e-06 
2652 11450 0 3.14957e-06 
2652 12517 0 4.09931e-06 
11450 16830 0 4.87296e-06 
6600 4043 0 1.40335e-06 
3315 5665 0 2.6719e-06 
5852 734 0 8.66346e-07 
5408 838 0 0.000229284 
4590 456 0 0.000119746 
10800 5363 0 1.66788e-05 
5363 13463 0 4.25713e-06 
9895 17441 0 3.39925e-07 
9895 9105 0 9.05562e-06 
16830 15744 0 1.72164e-06 
16160 10976 0 1.15996e-05 
16160 4896 0 4.8305e-06 
667 3322 0 2.64844e-06 
4536 8079 0 1.42239e-05 
13168 7596 0 1.07697e-05 
13463 14975 0 6.41504e-06 
7877 9105 0 1.97287e-06 
7877 15318 0 5.51426e-07 
4290 17175 0 2.41384e-06 
4290 13084 0 1.09069e-06 
7765 2038 0 2.87091e-06 
7824 17568 0 4.52624e-06 
13762 17568 0 2.59413e-06 
17235 10393 0 2.59784e-06 
10309 8865 0 4.00913e-06 
13351 15318 0 4.31628e-06 
15318 9608 0 2.07123e-06 
15318 10323 0 5.74388e-06 
1258 10906 0 2.31687e-06 
1258 17175 0 3.38253e-06 
2256 1366 0 7.21625e-07 
12861 2997 0 1.51666e-07 
17175 9608 0 4.58673e-06 
17175 8946 0 5.72075e-07 
2038 5672 0 5.87598e-06 
16020 16197 0 1.00293e-05 
2997 4896 0 3.26997e-06 
13752 4896 0 1.20473e-07 
3921 17568 0 7.29843e-07 
4896 11415 0 1.56313e-06 
2195 734 0 6.91942e-07 
2195 282 0 1.65004e-06 
2195 1657 0 3.43638e-06 
17568 10393 0 2.12604e-06 
17568 11284 0 2.76446e-06 
17568 11449 0 7.4858e-06 
10849 1284 0 9.78882e-07 
4982 7596 0 1.78366e-07 
7596 9356 0 2.33474e-05 
14975 3946 0 1.1051e-05 
14975 12909 0 3.99381e-06 
15180 6290 0 3.63359e-06 
15180 4207 0 4.22651e-06 
4207 12283 0 1.3619e-06 
9608 3096 0 3.73696e-06 
1366 12283 0 2.52024e-06 
11415 2755 0 6.82445e-06 
11415 3096 0 4.10125e-06 
11415 9535 0 6.42313e-06 
8946 5672 0 6.39648e-06 
5672 16072 0 4.27895e-06 
282 1657 0 1.44431e-06 
282 2015 0 2.48582e-06 
282 10964 0 2.68559e-08 
11167 4780 0 5.97929e-06 
11167 8913 0 1.10921e-06 
11167 11284 0 7.86877e-06 
12417 3894 0 3.4977e-06 
12417 2755 0 3.27274e-06 
1657 3683 0 4.33733e-06 
11284 10393 0 8.16529e-07 
11284 12283 0 2.79083e-06 
11284 7949 0 6.77095e-06 
17450 6008 0 1.43161e-05 
17450 16492 0 3.61766e-06 
10323 9621 0 4.7296e-06 
10323 1248 0 4.96757e-06 
12909 9689 0 4.5929e-06 
12909 17088 0 3.80659e-06 
659 9046 0 3.67221e-06 
10835 2015 0 2.99289e-06 
10835 11007 0 1.51284e-06 
9356 2900 0 1.5553e-06 
9356 16492 0 8.03165e-06 
9356 11007 0 1.13721e-05 
12372 14808 0 8.97573e-07 
12372 16072 0 4.1608e-06 
3096 14808 0 2.54816e-06 
3096 6378 0 4.48229e-06 
14808 4869 0 1.80071e-06 
16072 9046 0 5.11463e-06 
16072 3565 0 1.6712e-06 
9046 10964 0 9.91747e-07 
13714 6290 0 1.11711e-06 
13714 8844 0 5.57142e-08 
13714 17501 0 3.09242e-06 
10964 3683 0 2.73627e-06 
10964 2832 0 2.85987e-06 
10964 3565 0 4.17949e-07 
5740 4527 0 1.17238e-06 
9535 9180 0 4.71227e-06 
9535 5497 0 3.03303e-06 
3683 8277 0 2.626e-06 
2832 3442 0 2.6935e-06 
7949 17351 0 8.64235e-07 
7949 7121 0 3.94996e-06 
7949 3915 0 4.06458e-06 
7949 16872 0 3.61669e-06 
15150 9570 0 1.61726e-06 
9689 9621 0 7.98221e-06 
9689 11437 0 1.99433e-06 
8713 2900 0 4.4383e-06 
8713 13743 0 9.19344e-06 
6378 8764 0 4.86322e-06 
6378 436 0 5.22111e-07 
9621 1248 0 1.71633e-07 
9621 17088 0 1.77224e-06 
17501 1705 0 6.15172e-06 
1248 13190 0 5.73088e-06 
1248 454 0 5.37483e-06 
1248 436 0 4.36714e-06 
17088 13190 0 2.26181e-06 
7185 1960 0 4.67418e-06 
11007 5872 0 2.60723e-06 
11007 4527 0 3.93982e-06 
11007 1272 0 4.57398e-06 
2978 12769 0 1.02817e-05 
13190 8277 0 5.36658e-06 
3565 9854 0 3.13661e-06 
3565 641 0 1.09148e-06 
9854 4527 0 4.48056e-06 
9854 16086 0 3.16294e-06 
1272 3915 0 4.45656e-06 
1272 7480 0 2.92979e-06 
1354 1382 0 5.36173e-06 
4869 8277 0 2.64863e-06 
4869 16868 0 4.7821e-06 
8277 641 0 3.28538e-06 
3915 8765 0 3.7716e-06 
3442 641 0 2.21713e-06 
12454 13079 0 1.00495e-06 
9716 11456 0 6.27925e-07 
11437 12526 0 1.4734e-06 
14348 9570 0 4.48413e-06 
14348 12526 0 2.67084e-06 
9570 12631 0 4.00132e-07 
12631 3840 0 2.17771e-06 
16728 17336 0 1.56477e-06 
1960 3301 0 2.13355e-06 
8764 11403 0 2.5778e-06 
8764 2381 0 3.00961e-06 
454 11980 0 4.38912e-06 
11998 15940 0 2.56346e-07 
436 2381 0 4.89199e-06 
3301 13243 0 4.0931e-06 
641 16086 0 2.94256e-06 
641 12828 0 2.05797e-06 
16086 8765 0 2.58105e-06 
16086 1316 0 3.30253e-06 
8765 11575 0 2.96363e-06 
8765 2236 0 2.33499e-06 
8765 7149 0 1.71677e-06 
7480 12715 0 3.8583e-06 
7480 8920 0 1.72423e-06 
4826 16872 0 2.85369e-06 
5409 16868 0 5.01195e-06 
16868 82 0 3.3864e-06 
16868 14399 0 3.03671e-06 
1644 16872 0 4.14058e-06 
1644 4433 0 2.48032e-06 
1644 7149 0 4.68829e-06 
16872 11715 0 4.87751e-06 
694 8059 0 2.11756e-07 
11456 1281 0 1.6029e-07 
15029 13079 0 2.00512e-07 
13079 15659 0 1.22084e-06 
17336 13899 0 1.82352e-06 
1281 11403 0 8.60699e-07 
15875 13743 0 1.00335e-05 
15875 394 0 8.63678e-06 
15940 11575 0 3.38323e-06 
15940 16081 0 2.85031e-06 
15940 8064 0 2.94322e-06 
9919 3784 0 2.5268e-06 
2381 15122 0 7.40175e-06 
7819 3054 0 1.47659e-06 
82 7540 0 8.58748e-06 
82 12769 0 9.20838e-06 
82 8340 0 1.50641e-06 
82 15122 0 3.02157e-06 
7540 13243 0 5.06221e-06 
7540 12828 0 5.09519e-06 
7540 9593 0 5.25495e-07 
7701 3802 0 1.25029e-06 
12715 3054 0 7.5315e-07 
12715 5931 0 1.84195e-06 
12828 7785 0 1.12538e-07 
12828 6709 0 3.59419e-06 
8920 3054 0 1.22255e-06 
1316 3802 0 3.31081e-07 
2236 7149 0 8.04217e-07 
4433 7670 0 4.48873e-06 
4433 2022 0 1.80998e-09 
4916 12922 0 1.55364e-05 
11643 937 0 2.4246e-07 
937 5599 0 8.7866e-07 
1754 248 0 1.29736e-06 
9234 5714 0 2.44984e-06 
9234 14995 0 6.59162e-07 
5714 1481 0 1.72174e-06 
5714 12295 0 4.08548e-06 
1631 16081 0 1.79834e-07 
1631 1473 0 1.35521e-07 
13899 12835 0 2.49869e-06 
1481 8523 0 2.23019e-06 
1481 11292 0 1.8542e-06 
14995 394 0 2.75268e-06 
8523 8340 0 1.97229e-06 
7518 6931 0 7.8952e-09 
7370 11923 0 2.90085e-07 
7370 9593 0 8.43128e-08 
1113 11923 0 4.03307e-07 
1113 8064 0 1.42126e-06 
1113 11747 0 1.10895e-06 
6622 5829 0 3.37294e-07 
6622 3259 0 1.02025e-06 
8340 6931 0 1.39084e-06 
11923 8091 0 9.08609e-07 
3054 5931 0 1.07002e-06 
3054 17058 0 1.91713e-06 
5829 16259 0 2.425e-06 
15122 6517 0 2.78802e-06 
15122 2609 0 2.66386e-06 
15122 10786 0 5.42002e-06 
9593 4610 0 3.89812e-07 
9593 2670 0 8.46361e-07 
4610 3802 0 6.84171e-07 
8091 13312 0 1.72054e-06 
7785 6709 0 5.81157e-07 
7785 7207 0 1.45063e-06 
3802 10568 0 2.10108e-06 
3802 6709 0 2.68318e-06 
10568 7149 0 2.38405e-06 
5931 5588 0 9.48399e-07 
5931 14037 0 2.10003e-06 
3061 10786 0 3.36104e-06 
6709 6385 0 2.34464e-06 
7149 5588 0 1.80482e-06 
7149 13841 0 3.29392e-06 
2675 633 0 1.95791e-06 
12922 2140 0 2.76417e-06 
8914 12737 0 1.05897e-05 
14863 14188 0 3.55798e-06 
14863 13165 0 5.25959e-06 
5599 12540 0 7.448e-06 
248 4012 0 2.16761e-06 
248 11221 0 2.43256e-06 
4012 16021 0 2.82696e-06 
5862 15130 0 2.33321e-06 
11320 8973 0 6.97027e-07 
11320 12835 0 1.15141e-06 
9912 3498 0 1.16591e-07 
16021 394 0 6.35469e-06 
16021 12295 0 4.33884e-06 
16021 8900 0 3.40639e-06 
394 3654 0 3.66639e-06 
8973 8064 0 1.1776e-07 
3498 16259 0 9.56412e-08 
6304 6517 0 2.70621e-06 
6304 12295 0 5.21112e-06 
6304 6553 0 3.9411e-06 
8064 17058 0 3.65065e-06 
8064 13139 0 2.94487e-06 
16259 17058 0 3.50763e-06 
16259 8236 0 2.81835e-06 
16259 4190 0 1.01186e-06 
16259 2458 0 5.14851e-07 
6931 11157 0 4.38607e-06 
6931 1639 0 4.73749e-06 
6931 16435 0 3.14999e-07 
11157 3654 0 3.59662e-06 
17058 7461 0 1.03782e-06 
17058 112 0 1.74914e-06 
17058 2458 0 2.30314e-06 
1639 7207 0 2.21836e-07 
1639 973 0 5.80501e-06 
1639 12620 0 1.94263e-06 
7207 2670 0 1.43716e-06 
7207 12620 0 2.99614e-06 
4507 12047 0 8.86772e-07 
4507 3654 0 3.39266e-07 
4507 2670 0 2.00315e-06 
13312 5588 0 2.36313e-06 
13312 16925 0 2.03371e-06 
13312 112 0 2.48698e-06 
15337 4190 0 1.0522e-06 
10786 7597 0 1.41702e-06 
10786 12620 0 2.16034e-06 
12047 7652 0 1.64371e-06 
7652 13841 0 2.44447e-06 
7652 16925 0 1.40829e-06 
7652 4994 0 5.54683e-07 
13841 4165 0 1.55445e-06 
13841 1964 0 1.77678e-06 
2141 10298 0 1.52324e-06 
9106 8503 0 3.96979e-06 
9106 16997 0 2.07429e-06 
8303 11221 0 3.05935e-06 
12737 13952 0 4.71751e-06 
13165 11125 0 5.28616e-06 
11221 12540 0 3.89639e-07 
15708 13952 0 7.53619e-07 
2115 11125 0 1.60145e-06 
13793 15130 0 4.81923e-06 
13793 10731 0 2.22927e-06 
15130 11747 0 4.93821e-07 
12540 12295 0 4.02941e-06 
12540 7746 0 4.10437e-06 
12835 12447 0 2.83516e-06 
12295 16435 0 5.0568e-06 
8900 10731 0 1.19976e-07 
8900 15961 0 3.61617e-07 
8900 6798 0 3.47685e-06 
6553 4377 0 1.35829e-06 
3654 13139 0 4.52595e-06 
13139 16925 0 2.2933e-06 
13139 4294 0 2.01394e-06 
13139 8614 0 4.98819e-06 
13139 10518 0 4.44542e-06 
7461 16401 0 6.18114e-07 
7461 2458 0 6.78794e-07 
8236 996 0 3.22173e-06 
2670 12465 0 4.42021e-06 
2670 77 0 4.84045e-06 
112 4190 0 1.52966e-06 
112 8359 0 2.82661e-06 
4190 15788 0 1.01118e-06 
12620 14909 0 4.96049e-06 
12620 8338 0 5.60665e-06 
10298 15788 0 2.8978e-06 
12744 9623 0 5.28258e-06 
12744 8338 0 7.65955e-06 
12744 10854 0 7.59528e-06 
14909 12465 0 3.4902e-06 
14909 8508 0 1.94009e-06 
14909 12880 0 3.32053e-07 
12465 12023 0 1.27071e-06 
12465 15851 0 2.85301e-06 
1964 11307 0 1.56536e-06 
14037 8359 0 1.66353e-06 
14037 11048 0 1.74004e-06 
13777 7224 0 6.15595e-09 
7224 7463 0 3.49216e-06 
7609 16896 0 3.67459e-07 
13952 6164 0 1.62824e-06 
13952 1716 0 1.37159e-07 
11125 12447 0 5.16355e-06 
11125 5959 0 4.48257e-06 
11125 3839 0 1.29474e-06 
8692 2217 0 1.94904e-06 
7746 16077 0 4.10015e-06 
7746 5185 0 2.30738e-06 
12447 5786 0 5.48222e-06 
5786 8614 0 5.68914e-06 
4294 6798 0 2.4195e-06 
4294 1407 0 5.76841e-07 
16435 77 0 5.22509e-06 
16435 5923 0 6.00659e-06 
15961 9660 0 1.79559e-06 
15961 12844 0 3.33447e-06 
11414 2458 0 1.46303e-07 
11414 8817 0 3.18435e-07 
3064 16729 0 3.53637e-07 
77 14293 0 2.49494e-06 
9660 13459 0 1.4268e-06 
9660 10186 0 1.35852e-06 
10518 11307 0 2.35394e-06 
10518 10883 0 5.01937e-06 
10518 10186 0 8.02237e-07 
2458 8563 0 2.13007e-06 
8508 5907 0 1.67516e-06 
8338 5325 0 2.30853e-06 
8338 13651 0 4.51104e-06 
15788 8359 0 2.00172e-06 
15788 4126 0 3.15491e-06 
15851 14115 0 3.72272e-06 
15851 9880 0 6.36169e-07 
8359 5832 0 3.11502e-06 
8359 1181 0 2.26933e-06 
10715 6649 0 6.10423e-06 
8063 103 0 2.20684e-06 
5959 8676 0 3.03759e-06 
7437 2129 0 1.1769e-06 
9573 8485 0 5.63803e-07 
6164 13427 0 2.37916e-06 
6164 4560 0 3.58645e-06 
6164 9474 0 2.64842e-06 
9294 914 0 3.37573e-06 
8022 8485 0 1.08136e-06 
1716 14902 0 1.4218e-06 
1716 7857 0 7.30839e-07 
7463 14902 0 4.13358e-06 
7463 12890 0 3.05501e-06 
5093 3839 0 1.03872e-06 
5093 2551 0 1.15426e-06 
7482 14902 0 3.41661e-07 
3839 1282 0 1.93038e-06 
6205 2217 0 5.55594e-06 
6205 8817 0 1.04041e-06 
2217 5072 0 2.30202e-06 
5280 5185 0 2.66856e-06 
5280 4170 0 1.85396e-06 
16711 4170 0 2.05368e-06 
16711 12844 0 4.06049e-06 
6798 1407 0 2.92891e-06 
6798 13044 0 4.61893e-06 
17006 8817 0 2.03644e-09 
4170 5923 0 2.54691e-06 
4170 10673 0 1.83422e-06 
12844 5923 0 1.66201e-06 
12844 13044 0 4.045e-06 
12844 6242 0 1.53373e-06 
1407 13772 0 1.37504e-06 
1407 11691 0 1.71016e-06 
1407 13728 0 1.45617e-06 
8570 2807 0 2.54707e-06 
5923 5907 0 1.96194e-06 
5923 3401 0 5.02412e-06 
5493 13459 0 1.67806e-06 
7223 4279 0 4.46489e-07 
8563 12814 0 2.32102e-06 
16729 16299 0 5.30295e-07 
16729 11179 0 8.78051e-07 
14293 12067 0 2.97592e-06 
10883 14818 0 4.77105e-06 
10883 14433 0 4.64955e-06 
5907 5916 0 2.70945e-06 
10186 15604 0 8.25002e-07 
10186 4421 0 2.12221e-06 
14818 4126 0 4.6304e-06 
13651 4573 0 1.48984e-06 
13651 4691 0 5.34369e-06 
13651 9788 0 3.27988e-07 
7664 4573 0 1.27412e-06 
7664 12880 0 1.80941e-06 
7664 5916 0 3.1709e-06 
15604 1181 0 8.20685e-07 
15604 2542 0 4.8008e-06 
15604 4421 0 5.18382e-06 
1181 2033 0 1.99354e-06 
9837 4126 0 3.12304e-06 
13385 11048 0 2.78913e-06 
13385 9541 0 2.83693e-06 
13385 6000 0 2.27091e-06 
10220 4126 0 1.58394e-06 
10220 15663 0 3.11555e-07 
103 7626 0 2.63177e-06 
4560 3151 0 2.93203e-06 
14902 11540 0 3.66529e-06 
13044 11540 0 5.91007e-06 
11691 13728 0 9.42844e-07 
4421 14433 0 5.88161e-06 
4421 2033 0 5.28192e-07 
4126 4799 0 2.19529e-06 
4126 9313 0 3.286e-06 
1774 9585 0 5.13398e-06 
1774 11870 0 1.71191e-06 
6902 11939 0 4.30794e-07 
6902 5428 0 2.23655e-06 
1687 9474 0 1.28254e-07 
12890 5428 0 8.47796e-07 
13783 2938 0 1.63725e-06 
13783 1600 0 2.23481e-06 
13783 5072 0 1.34189e-06 
9474 11540 0 4.43725e-06 
5072 1282 0 1.48053e-06 
1282 16674 0 1.27567e-07 
10673 4956 0 6.93358e-07 
17208 14512 0 9.68641e-07 
17208 7233 0 9.96173e-07 
501 2292 0 9.23008e-07 
13728 2292 0 1.41871e-06 
4279 7233 0 1.41372e-06 
4279 14433 0 2.55207e-06 
14773 14209 0 8.89908e-07 
14773 11179 0 4.13837e-07 
11179 12814 0 1.81667e-06 
14595 4691 0 5.19036e-08 
2292 8542 0 2.77841e-06 
12814 2033 0 3.50087e-06 
3247 9313 0 1.57679e-08 
5916 6860 0 3.51271e-06 
5916 11870 0 9.94519e-07 
6860 9585 0 2.34141e-07 
8542 9585 0 3.75436e-06 
2033 1357 0 2.06767e-06 
2033 9541 0 1.71948e-06 
9313 9541 0 1.98073e-06 
9585 4765 0 2.6114e-06 
1357 4765 0 2.14421e-06 
15663 5636 0 2.37595e-06 
1477 6518 0 1.98938e-06 
7357 610 0 0.000410622 
610 6446 0 5.91281e-06 
2723 14031 0 3.42872e-06 
5191 9777 0 1.05116e-06 
1257 12564 0 1.29525e-06 
6446 16361 0 3.60352e-06 
6446 12743 0 3.7183e-06 
5613 8233 0 1.02595e-05 
5613 16765 0 1.88674e-05 
14759 1813 0 8.56315e-06 
14759 16765 0 2.95945e-05 
16662 4121 0 1.1604e-06 
14685 13746 0 1.24727e-06 
8233 8672 0 6.03179e-06 
9768 9037 0 3.68271e-06 
9768 17798 0 1.74979e-06 
4121 13939 0 1.81523e-06 
4121 12099 0 1.58196e-06 
9037 17513 0 4.58087e-07 
9037 12484 0 3.85548e-06 
13744 12656 0 6.0253e-07 
8698 8672 0 5.34226e-06 
8698 1828 0 3.63959e-06 
8672 7986 0 3.94609e-06 
8672 6449 0 1.86348e-06 
13939 7425 0 5.61718e-07 
17513 7313 0 1.232e-06 
12810 13765 0 1.8072e-07 
7986 9955 0 6.58982e-06 
7986 6449 0 5.72531e-07 
13765 17761 0 3.04907e-06 
13765 6853 0 4.40871e-06 
14304 12847 0 1.44104e-06 
1828 16003 0 2.00194e-06 
7425 13122 0 2.32129e-06 
6279 8785 0 1.81354e-06 
17761 3493 0 2.12174e-06 
11701 8111 0 2.4732e-06 
16003 8655 0 5.74902e-07 
9571 8744 0 1.13375e-06 
13088 8744 0 2.61366e-06 
13088 13122 0 8.55739e-06 
8785 1007 0 2.62924e-06 
8919 11274 0 5.53381e-07 
8111 1250 0 2.8557e-06 
8111 17481 0 1.92695e-06 
5778 11676 0 1.27313e-06 
8655 16960 0 1.68553e-06 
8655 15512 0 5.31001e-06 
8744 16949 0 7.28217e-07 
14179 3493 0 1.02512e-06 
14179 916 0 1.4414e-06 
1250 17083 0 5.72107e-07 
13892 6545 0 1.19339e-06 
13892 16922 0 3.11238e-06 
9033 12243 0 1.0241e-06 
9033 15512 0 5.34947e-08 
9033 1758 0 8.22738e-06 
1007 5661 0 3.11551e-06 
916 16472 0 9.65993e-07 
17481 5592 0 3.17476e-06 
17481 6417 0 1.9515e-06 
6545 16960 0 2.40719e-06 
6545 17083 0 2.65358e-06 
6545 11462 0 1.83413e-06 
16960 16568 0 3.01024e-06 
16960 5611 0 2.64711e-06 
16949 9734 0 1.92808e-06 
16949 8970 0 1.80694e-06 
7836 11020 0 1.96341e-06 
5592 17083 0 3.27657e-06 
5592 1739 0 2.7761e-06 
5592 16472 0 5.03702e-06 
5592 4083 0 1.1515e-06 
16568 12243 0 5.93863e-06 
16568 11462 0 3.81056e-06 
16568 16091 0 3.94457e-06 
16568 15253 0 1.33262e-05 
12243 4054 0 2.33526e-06 
12243 8607 0 4.31571e-06 
8931 9734 0 3.48943e-06 
8931 4509 0 3.87352e-06 
8931 16988 0 9.63131e-06 
8931 17168 0 2.09956e-06 
9734 4509 0 2.81057e-06 
9734 3504 0 5.49826e-06 
5661 3504 0 2.97599e-06 
1739 11462 0 4.45488e-06 
1739 14558 0 3.31659e-06 
1739 11135 0 1.50371e-06 
11462 15844 0 3.30322e-06 
11462 8437 0 2.12021e-06 
3504 11020 0 6.03415e-06 
3504 4998 0 4.04126e-06 
3504 2506 0 3.60021e-06 
3504 17484 0 3.55765e-06 
11020 675 0 1.54187e-06 
11020 16472 0 6.68983e-06 
11020 17484 0 2.49955e-06 
14558 11135 0 3.13513e-06 
14558 16472 0 4.02307e-06 
16091 15184 0 3.17701e-06 
16091 9671 0 4.59379e-06 
5899 2084 0 1.06856e-07 
5899 8974 0 3.48637e-06 
675 4998 0 4.32487e-06 
675 6177 0 4.875e-06 
11135 15844 0 1.68808e-06 
11135 7426 0 1.18232e-06 
11135 12772 0 2.87698e-06 
11135 9411 0 2.59703e-06 
15844 12772 0 3.62111e-06 
15844 15626 0 1.07088e-06 
16106 2506 0 5.16121e-06 
16106 11561 0 2.63616e-06 
4998 3452 0 4.33627e-06 
4998 2506 0 1.97677e-06 
4998 16178 0 7.06288e-07 
7426 9411 0 3.11536e-06 
7426 6177 0 4.59951e-06 
7426 10942 0 4.5413e-06 
12772 15184 0 2.25159e-06 
12772 9411 0 4.14683e-06 
12772 10490 0 5.93386e-06 
12772 2591 0 1.12215e-06 
15184 10490 0 1.63536e-06 
3452 2780 0 1.38254e-06 
3452 6360 0 2.86957e-06 
3452 16051 0 7.12595e-06 
3452 4754 0 4.637e-06 
2780 11393 0 4.59269e-06 
2780 4754 0 6.27672e-06 
9411 7663 0 4.94819e-06 
9411 1633 0 1.47408e-06 
10490 8346 0 5.95149e-06 
10490 16364 0 2.91557e-06 
10490 1633 0 1.4982e-06 
11393 7663 0 4.09737e-06 
11393 12903 0 2.24406e-06 
11393 7315 0 2.3975e-06 
7663 15194 0 6.46844e-06 
7663 12903 0 3.34743e-06 
8346 5524 0 5.73081e-06 
8346 5243 0 1.24407e-06 
8346 5741 0 3.8885e-06 
4772 4343 0 2.71904e-06 
4772 11561 0 3.13293e-06 
4772 16051 0 6.39492e-06 
6360 5209 0 3.81671e-06 
6360 2197 0 1.86708e-06 
5209 1858 0 4.4429e-06 
16364 8659 0 3.82095e-06 
16364 5243 0 1.28432e-06 
16364 15899 0 3.69203e-07 
5524 5243 0 4.13021e-06 
5524 10734 0 3.27076e-06 
4343 13328 0 2.27097e-06 
4343 9794 0 2.646e-07 
2197 16051 0 2.05843e-06 
15194 1858 0 4.0171e-06 
15194 14387 0 8.36718e-06 
15194 7315 0 4.56009e-06 
8659 14387 0 1.44848e-06 
8659 17303 0 3.21899e-06 
5243 17303 0 3.55097e-06 
13328 4809 0 6.76142e-07 
13328 6753 0 2.6155e-06 
1858 14216 0 5.1198e-06 
14387 11467 0 1.11813e-05 
14387 5275 0 3.98761e-06 
10074 8694 0 2.84927e-06 
10074 10737 0 4.84698e-06 
14216 11400 0 5.59933e-06 
14216 10737 0 1.91794e-06 
14216 8188 0 3.68516e-07 
3706 12912 0 8.03878e-07 
11467 4575 0 4.71445e-06 
11467 11335 0 1.06805e-05 
15890 7220 0 2.92813e-06 
6146 8694 0 1.34851e-06 
6146 10421 0 2.09848e-06 
14242 7220 0 2.6463e-06 
14242 4575 0 6.69318e-06 
7220 13403 0 1.04198e-06 
7481 9134 0 1.1283e-05 
7481 13045 0 9.4136e-06 
16765 2628 0 3.47109e-05 
3844 17798 0 2.26108e-06 
3844 10349 0 2.51929e-06 
3844 2920 0 1.25186e-05 
14545 14531 0 2.92661e-06 
8268 10349 0 3.47463e-06 
8268 132 0 2.10578e-06 
8268 14316 0 4.99457e-06 
13746 6853 0 2.75169e-06 
13746 5411 0 2.61135e-06 
12847 4881 0 2.68707e-06 
16988 11577 0 8.67589e-06 
16472 2452 0 2.27467e-06 
2506 6218 0 1.85124e-06 
6177 1801 0 4.19428e-06 
6177 13480 0 1.87591e-06 
11561 3737 0 3.28385e-06 
11561 6688 0 1.15143e-06 
12903 10942 0 3.97409e-06 
12903 13919 0 2.53919e-06 
16051 3009 0 5.001e-06 
1633 5275 0 3.12159e-06 
10734 9072 0 2.72444e-06 
5275 7987 0 1.71944e-06 
3940 10737 0 1.20039e-07 
10737 4263 0 4.60186e-06 
12912 742 0 1.92643e-06 
12912 4964 0 1.97275e-06 
17303 4575 0 8.00501e-06 
17303 14057 0 5.45913e-06 
17303 2210 0 3.26196e-06 
6753 13214 0 3.35622e-06 
6753 4129 0 2.46747e-06 
4575 4059 0 2.63683e-06 
4575 13403 0 9.68909e-07 
3265 3822 0 3.19177e-07 
674 8487 0 7.80097e-06 
3424 18298 0 2.35114e-06 
11120 4804 0 5.72194e-06 
13045 12743 0 9.14318e-06 
12743 11875 0 3.49633e-06 
15163 2920 0 7.70726e-06 
6736 14485 0 4.52356e-07 
10349 4804 0 1.50003e-06 
11875 10053 0 1.61248e-06 
12099 17449 0 3.66204e-06 
14316 8768 0 4.01471e-06 
12484 16800 0 8.26338e-08 
12484 3856 0 2.89855e-06 
12484 17449 0 1.75276e-06 
6379 6853 0 4.37352e-07 
8768 4881 0 2.47698e-06 
8768 8138 0 3.56167e-07 
6449 6865 0 2.70591e-06 
14772 5976 0 3.76361e-07 
12656 8468 0 6.78675e-07 
6853 3036 0 3.37735e-06 
6853 14077 0 4.7987e-06 
4881 6865 0 1.23396e-06 
17645 10794 0 1.6402e-06 
3856 17789 0 3.28581e-06 
1726 1034 0 7.95023e-07 
8138 11676 0 1.831e-06 
8138 9419 0 3.20887e-06 
8138 5717 0 3.2679e-06 
6865 6043 0 5.28662e-06 
6865 9227 0 2.91824e-06 
17789 17601 0 3.35578e-06 
6943 7717 0 7.92989e-07 
1034 6417 0 1.99692e-06 
1034 4852 0 1.51325e-06 
11676 2880 0 1.83378e-06 
11676 9803 0 2.91255e-07 
13122 11577 0 6.62563e-06 
13122 10794 0 9.96846e-06 
16922 9803 0 2.18617e-06 
11577 13094 0 3.33439e-06 
17601 8970 0 3.01723e-06 
17601 4966 0 1.41361e-06 
2989 6417 0 1.62536e-06 
2989 2452 0 2.284e-06 
6417 2880 0 5.93484e-08 
6417 4083 0 4.02739e-07 
2880 17894 0 2.33285e-06 
15512 5611 0 3.81622e-06 
8970 3824 0 1.50169e-06 
8970 10721 0 2.41567e-06 
4966 17641 0 1.70037e-06 
17894 1364 0 2.28247e-06 
17894 4813 0 3.00634e-06 
17894 17998 0 6.24512e-07 
1364 9806 0 1.97624e-06 
17641 2452 0 2.31861e-06 
17641 17484 0 4.06931e-06 
17641 1801 0 5.82037e-07 
2452 6725 0 2.02759e-06 
4083 10299 0 8.00665e-07 
16230 15253 0 3.66635e-07 
17168 3824 0 2.32484e-06 
17168 9639 0 2.52323e-06 
3824 5553 0 2.34516e-06 
10299 1801 0 3.17573e-06 
10299 17461 0 2.49014e-06 
4813 17461 0 2.66138e-06 
8437 15253 0 4.55179e-06 
8437 15626 0 3.71911e-06 
8437 10602 0 2.28391e-06 
15253 9671 0 4.76313e-06 
15253 8974 0 6.99133e-06 
15253 13510 0 1.16894e-05 
9639 6218 0 2.47745e-07 
9639 3737 0 3.25637e-06 
9639 14105 0 2.32423e-07 
17484 16178 0 5.45397e-06 
17484 7151 0 3.10082e-06 
1801 8639 0 4.94239e-06 
17461 15626 0 4.5833e-06 
17461 10942 0 4.46101e-06 
15626 15206 0 1.80224e-06 
9671 15206 0 3.08261e-06 
9671 9637 0 3.57781e-06 
8974 8607 0 1.13248e-06 
10221 16178 0 4.64604e-06 
10221 16410 0 4.44808e-06 
6675 10887 0 9.39949e-07 
15206 2591 0 3.02073e-06 
9637 9072 0 1.12718e-06 
9637 17491 0 1.90102e-06 
9637 8363 0 2.11256e-06 
3737 9070 0 9.52591e-06 
16178 4754 0 3.81537e-06 
16178 9070 0 5.01313e-06 
16410 13480 0 2.64799e-06 
16410 1870 0 4.28289e-06 
10942 1870 0 4.08642e-06 
2591 10887 0 2.25667e-06 
2591 13908 0 2.07626e-06 
2591 9005 0 1.6721e-06 
17491 5264 0 1.2019e-06 
17491 10096 0 1.48427e-06 
4754 13919 0 3.92764e-06 
4754 5676 0 6.12004e-06 
10887 8450 0 3.14374e-06 
5264 5741 0 5.60837e-06 
5264 14107 0 1.72938e-06 
5264 16453 0 3.38614e-06 
13919 3876 0 3.31262e-06 
8450 7315 0 2.85591e-06 
8450 742 0 2.06731e-06 
8450 6720 0 2.91297e-07 
13908 15899 0 2.17121e-06 
13908 5741 0 1.58855e-06 
6688 3619 0 5.90126e-07 
3009 2560 0 3.80382e-06 
3009 3619 0 2.63852e-06 
3009 15580 0 6.4099e-06 
7315 4738 0 4.9867e-06 
15899 7987 0 1.60237e-06 
15899 2210 0 2.59227e-06 
5741 14057 0 4.63682e-06 
4738 16834 0 4.22953e-06 
4738 5948 0 3.1229e-06 
742 7987 0 1.3633e-06 
742 6260 0 1.52916e-06 
7987 5344 0 1.24104e-06 
7987 6720 0 2.4607e-06 
7987 9911 0 4.93273e-07 
14057 13975 0 6.5205e-06 
14057 8198 0 3.96563e-06 
13214 10421 0 6.66086e-06 
13214 15580 0 6.26375e-06 
13214 15052 0 1.8565e-06 
13214 3822 0 3.61229e-06 
4129 8188 0 2.22293e-06 
4129 4263 0 1.94328e-06 
4964 8188 0 2.21533e-06 
4964 12623 0 1.47961e-06 
13365 4404 0 7.2964e-07 
4059 8730 0 3.92954e-06 
4059 16499 0 3.25307e-06 
13403 6659 0 6.79591e-07 
4804 4331 0 2.88634e-05 
1237 6035 0 1.18378e-05 
2920 4331 0 3.59045e-05 
2628 18297 0 1.80864e-05 
2628 14398 0 1.85737e-05 
12906 14485 0 1.92741e-06 
12906 12588 0 2.06451e-07 
3515 7911 0 4.13785e-06 
3515 2754 0 2.89473e-06 
1011 14531 0 2.29899e-06 
1011 14398 0 1.75286e-05 
14992 7786 0 2.65332e-06 
14485 14738 0 2.2953e-06 
7911 2902 0 2.05419e-06 
10053 1573 0 2.53453e-06 
10053 12685 0 2.43611e-05 
14531 11433 0 6.29841e-06 
14738 5976 0 7.4206e-07 
5976 17449 0 5.20814e-07 
17449 3739 0 7.31337e-07 
17449 13426 0 4.28567e-06 
2902 15487 0 9.55488e-07 
3036 14344 0 3.23651e-06 
11433 6043 0 6.72524e-06 
11433 18306 0 3.43638e-06 
3739 8468 0 4.51997e-06 
3739 10794 0 5.81888e-06 
5717 14077 0 4.28395e-06 
5717 13590 0 4.33524e-06 
6043 8558 0 2.77628e-06 
14077 10389 0 3.28067e-06 
14077 7210 0 4.65183e-06 
1362 9803 0 6.50553e-07 
1362 7770 0 1.51503e-06 
10794 9616 0 8.60099e-06 
10389 4852 0 1.86816e-06 
10389 7717 0 3.59027e-06 
9227 3864 0 4.82293e-06 
9227 15687 0 1.72298e-06 
7717 17776 0 3.28633e-06 
7717 7778 0 1.93548e-06 
9803 9104 0 3.14973e-06 
9803 8531 0 1.94876e-06 
17776 14718 0 3.5418e-06 
2835 17998 0 6.28654e-06 
2835 17359 0 7.11996e-06 
8531 17998 0 7.66809e-07 
2188 9806 0 1.67509e-06 
2188 1549 0 2.23338e-06 
2188 15687 0 1.76216e-06 
8165 14718 0 2.89347e-06 
8165 8749 0 1.24091e-06 
6725 15377 0 9.59565e-06 
17998 3836 0 2.80486e-06 
17998 7099 0 3.12944e-06 
9806 13510 0 1.57464e-06 
14718 8639 0 3.74624e-06 
3836 6765 0 2.27108e-06 
10602 7099 0 1.97324e-06 
13510 1549 0 2.50235e-06 
13510 8802 0 9.02438e-06 
14105 6548 0 1.03824e-06 
14105 3643 0 1.53394e-07 
17316 7151 0 4.23848e-06 
17316 9070 0 5.15797e-06 
17316 14861 0 3.18061e-06 
17316 3643 0 3.53913e-06 
17316 8128 0 2.35456e-06 
7151 5553 0 2.96478e-06 
7151 8639 0 4.73748e-06 
7151 16056 0 4.8922e-06 
6765 1988 0 2.51393e-06 
6765 13480 0 3.12579e-06 
6765 13116 0 1.25374e-06 
1988 9929 0 2.82455e-06 
1988 3261 0 9.45829e-07 
12612 1870 0 2.93729e-07 
9070 5676 0 7.60227e-06 
9070 1903 0 1.35816e-06 
9005 3239 0 1.07275e-06 
9005 1220 0 9.7789e-07 
5676 2560 0 2.25236e-06 
5676 2495 0 7.10944e-06 
5676 1903 0 2.8015e-06 
4293 15792 0 8.31783e-07 
1870 3239 0 3.92531e-06 
1870 10504 0 4.88248e-06 
14107 14966 0 1.97612e-06 
2560 1903 0 3.71652e-06 
2495 16834 0 7.8308e-06 
2495 5426 0 7.27585e-06 
2495 13842 0 2.77402e-07 
2495 8244 0 6.63087e-06 
16834 3876 0 5.38238e-06 
16834 13819 0 3.56439e-06 
16834 4263 0 6.89849e-06 
16834 4395 0 1.37788e-06 
3876 6260 0 1.89221e-06 
3876 10504 0 4.93457e-06 
6720 9911 0 3.14669e-06 
6720 10504 0 3.95513e-06 
6720 8283 0 4.09947e-06 
9911 8198 0 2.97223e-06 
8198 11874 0 3.33472e-06 
3619 7380 0 4.07144e-06 
13819 15580 0 3.54352e-06 
13819 1720 0 1.74902e-06 
13819 11420 0 7.21717e-07 
6260 5948 0 1.94157e-07 
6260 10504 0 2.45236e-07 
6260 12217 0 3.75498e-06 
2210 11840 0 3.38483e-06 
2210 16499 0 2.47063e-06 
16882 11874 0 1.39671e-06 
16882 2113 0 1.55562e-06 
15580 1720 0 1.77775e-06 
15580 15052 0 2.62515e-06 
1720 4263 0 5.52477e-06 
1720 5765 0 4.89925e-06 
1720 11853 0 2.56346e-06 
4263 5948 0 3.03144e-06 
5948 12538 0 4.16679e-06 
15052 3822 0 2.34176e-06 
15052 5768 0 2.56604e-06 
277 2113 0 8.80671e-07 
277 7053 0 1.00397e-06 
10598 2113 0 2.33548e-06 
10598 15077 0 2.63784e-06 
3822 7145 0 1.81551e-06 
5765 13891 0 5.41258e-07 
5765 7145 0 4.89333e-06 
12623 8730 0 3.03647e-06 
12623 12217 0 2.82493e-06 
12623 12316 0 6.39274e-07 
12623 3593 0 2.02208e-06 
6659 7053 0 1.63416e-07 
18297 11738 0 1.09712e-05 
12588 16660 0 1.65476e-05 
4331 6048 0 3.27423e-05 
8577 4587 0 1.87101e-05 
10146 9412 0 1.18222e-05 
14215 13812 0 3.41984e-06 
14344 2483 0 3.2108e-06 
13426 10488 0 5.69205e-06 
13426 14671 0 3.4081e-06 
10488 7551 0 7.09623e-06 
7210 7551 0 5.76385e-06 
7210 5800 0 4.01995e-06 
13590 7731 0 4.66289e-06 
9616 6294 0 9.34195e-06 
9616 4762 0 1.05841e-05 
7551 7778 0 3.14033e-06 
7551 6294 0 6.00231e-06 
7551 11657 0 2.85362e-06 
7551 17990 0 8.1257e-06 
15537 12818 0 3.39439e-07 
15537 14844 0 1.31432e-06 
5420 8558 0 7.91559e-06 
7778 17359 0 7.44144e-06 
7778 10634 0 7.18326e-06 
7778 6294 0 8.05151e-06 
12818 17359 0 1.59216e-06 
12818 17990 0 2.44652e-06 
638 10822 0 1.772e-06 
638 4800 0 2.91132e-06 
7770 6145 0 1.09528e-05 
16910 3154 0 9.79894e-07 
15687 14522 0 2.48443e-06 
15470 3154 0 1.44578e-06 
8749 3327 0 3.71687e-07 
10634 17201 0 7.20294e-06 
10634 17855 0 2.30713e-06 
7573 6348 0 5.73819e-06 
10822 7099 0 3.01116e-06 
1260 10616 0 2.82625e-06 
7099 9652 0 3.41833e-06 
8802 6292 0 7.80603e-06 
6548 14861 0 1.24451e-06 
6548 8915 0 3.5467e-06 
5553 17201 0 4.79669e-06 
5553 1264 0 2.1023e-06 
14861 12973 0 2.45024e-06 
8639 7033 0 4.68967e-06 
8639 12492 0 6.65404e-07 
11885 8893 0 2.57187e-06 
11885 6697 0 4.44648e-06 
3643 14230 0 3.35836e-06 
9929 10096 0 1.70979e-06 
8128 1903 0 5.67305e-06 
8128 12112 0 6.50273e-06 
5945 3239 0 3.58159e-06 
5945 11563 0 1.77949e-06 
4049 16453 0 5.21239e-06 
16056 5426 0 5.12143e-06 
15792 5426 0 3.67468e-06 
15792 3542 0 4.65526e-06 
1266 3542 0 1.12995e-07 
10096 16453 0 1.96151e-06 
10096 3047 0 1.522e-06 
10096 1220 0 2.26127e-06 
10562 1903 0 3.79249e-06 
10562 7380 0 4.54221e-06 
10562 9188 0 5.16456e-06 
1903 13842 0 1.23632e-06 
5426 15784 0 5.06278e-06 
3239 14966 0 3.01817e-06 
3239 5016 0 3.05483e-06 
16453 11874 0 3.22593e-06 
13842 11420 0 4.25071e-07 
13842 10019 0 9.15381e-07 
10504 8283 0 3.93865e-06 
14966 6761 0 7.9336e-07 
14966 11970 0 1.01982e-06 
11874 4327 0 2.03628e-06 
7380 11420 0 1.4802e-06 
8244 17133 0 7.48931e-06 
11420 9947 0 7.61061e-07 
4395 8305 0 1.78549e-06 
4395 5339 0 2.04761e-07 
8283 11150 0 6.50677e-06 
8283 15133 0 1.79759e-07 
7134 12316 0 5.90367e-08 
11840 16499 0 2.64513e-06 
11840 15551 0 7.05256e-06 
11840 17433 0 4.2169e-06 
11840 7977 0 1.82211e-06 
5768 12617 0 1.72883e-06 
5768 2658 0 9.43623e-07 
17133 7891 0 5.35901e-06 
17133 11837 0 5.11708e-06 
12217 12316 0 5.99488e-07 
12217 5339 0 1.29434e-06 
2113 17433 0 1.78614e-06 
7891 12538 0 2.64674e-06 
7891 3699 0 2.85262e-06 