ITEM: TIMESTEP
10800000
ITEM: NUMBER OF ENTRIES
20852
ITEM: BOX BOUNDS ff ff ff
-0.01 0.45
-0.15 0.15
-0.08 0.1
ITEM: ENTRIES c_ppc[1] c_ppc[2] c_ppc[3] c_ppc[4] 
35760 18538 0 3.81822e-06 
21345 40449 0 5.88333e-08 
40449 38372 0 1.03322e-07 
38372 39511 0 1.43184e-07 
39891 39819 0 4.91777e-07 
9501 39819 0 5.74609e-07 
39408 31827 0 9.15575e-07 
39819 38575 0 1.4795e-06 
31827 11799 0 2.77507e-06 
39165 40315 0 2.0461e-05 
39511 21672 0 1.69616e-07 
11799 40022 0 3.27928e-06 
40315 28705 0 3.54128e-05 
38575 38532 0 1.22453e-06 
40339 39737 0 2.25542e-07 
21672 19527 0 5.25676e-07 
21672 11379 0 1.67597e-07 
38532 40022 0 8.87569e-07 
38532 19527 0 5.79725e-07 
38532 25216 0 1.01717e-06 
38532 28136 0 6.13368e-07 
18293 37141 0 6.90952e-07 
19527 33149 0 6.9308e-07 
25216 36378 0 9.11371e-07 
22484 22955 0 1.11432e-07 
37228 36382 0 1.69817e-08 
39737 34406 0 3.01257e-07 
28705 35728 0 2.07043e-06 
28705 31554 0 7.85178e-06 
28705 37861 0 1.172e-05 
11379 33149 0 4.20875e-07 
11379 12179 0 9.43792e-08 
33149 28136 0 2.99834e-07 
33149 12179 0 6.14619e-07 
33149 7399 0 5.16542e-07 
33149 32414 0 1.18909e-07 
40884 36378 0 4.1817e-07 
22955 31691 0 1.57263e-07 
14949 27062 0 2.38431e-08 
34406 36057 0 1.96497e-07 
37861 17545 0 1.52195e-06 
12179 31297 0 5.16945e-07 
36378 23030 0 2.40291e-07 
36378 28821 0 9.24222e-07 
27062 7810 0 9.53599e-08 
36382 36057 0 1.25916e-08 
36057 17714 0 1.82973e-07 
36057 37213 0 1.54099e-07 
17545 36896 0 1.57006e-07 
17545 36456 0 7.07299e-08 
36896 16434 0 1.06969e-07 
31297 4814 0 3.7024e-07 
8718 23030 0 8.8672e-08 
8718 27311 0 1.19044e-07 
7810 33328 0 1.00137e-07 
7810 29349 0 1.02694e-07 
17714 33328 0 2.52066e-07 
32414 14887 0 1.36626e-07 
28821 31691 0 3.22781e-07 
28821 33214 0 4.63111e-07 
31691 27485 0 2.40362e-07 
37213 34806 0 1.84141e-07 
14887 4814 0 1.7316e-07 
14887 27311 0 1.3306e-07 
14887 28359 0 9.42218e-08 
35737 33214 0 1.39492e-07 
35737 1222 0 1.01118e-07 
3948 29832 0 1.3719e-07 
33328 29349 0 1.54056e-07 
33328 32563 0 1.8265e-07 
34806 36456 0 3.15073e-08 
34806 14196 0 2.67649e-07 
27485 29832 0 4.35827e-07 
4814 23206 0 3.69771e-07 
27311 28359 0 1.40555e-08 
27311 31629 0 1.83874e-07 
29832 6692 0 3.60375e-07 
29832 29331 0 1.41487e-07 
29349 27844 0 1.85738e-07 
14196 4995 0 2.41129e-07 
14196 31085 0 4.92268e-08 
4995 25795 0 3.38733e-07 
23206 28359 0 9.42433e-08 
23206 9067 0 3.69686e-07 
28359 23944 0 1.22467e-07 
31629 29889 0 1.93824e-07 
1222 20088 0 1.72092e-07 
29610 6692 0 2.51273e-08 
6692 28989 0 2.96615e-07 
29331 30985 0 7.04125e-08 
27844 32563 0 7.74775e-08 
27844 8055 0 2.09659e-07 
32563 23242 0 1.9587e-07 
30799 31678 0 1.86331e-08 
31085 17898 0 1.06509e-07 
25795 15647 0 1.7012e-07 
23944 18984 0 1.51093e-07 
23944 29889 0 4.62736e-08 
20088 20508 0 1.82783e-07 
30109 11254 0 5.04497e-08 
30985 11036 0 8.96098e-08 
23242 18877 0 1.82136e-07 
23242 31678 0 7.81046e-08 
7278 4226 0 1.08051e-07 
7278 31678 0 7.46392e-08 
20393 4226 0 6.4745e-08 
17898 20948 0 5.88167e-08 
18943 15647 0 5.12562e-09 
15647 12113 0 1.88384e-07 
15647 33027 0 2.76461e-07 
4226 26011 0 1.54147e-07 
9067 22752 0 3.74279e-07 
18984 22752 0 1.484e-07 
18984 17062 0 1.50254e-07 
29889 17062 0 2.31729e-07 
20508 17062 0 1.35242e-07 
20508 26823 0 1.19173e-07 
28694 26823 0 6.38899e-08 
11254 26823 0 8.27847e-08 
11254 30376 0 8.65751e-08 
28989 30376 0 2.96775e-07 
11036 20295 0 1.31402e-07 
8055 3266 0 2.22032e-07 
18877 3266 0 6.35839e-08 
18877 30506 0 1.61722e-07 
28157 28618 0 2.15493e-07 
33027 28618 0 2.60464e-07 
22752 21001 0 3.95015e-07 
17062 8885 0 3.24272e-07 
26823 19656 0 2.09622e-07 
30376 29864 0 2.82399e-08 
30376 16378 0 3.00402e-07 
3266 18439 0 2.55195e-07 
31024 28871 0 9.79449e-08 
20948 26011 0 3.10509e-08 
28618 17835 0 3.42889e-07 
13049 8162 0 1.83641e-07 
13049 6279 0 2.22558e-07 
21001 635 0 2.7737e-08 
21001 20327 0 3.57896e-07 
22055 635 0 3.35591e-08 
8885 635 0 3.79902e-08 
8885 17553 0 2.95347e-07 
19303 22393 0 5.8561e-08 
19656 20569 0 2.88504e-10 
19656 19717 0 2.30293e-07 
29864 20569 0 5.08603e-08 
16378 20295 0 1.51244e-07 
16378 20062 0 2.97593e-07 
20295 25930 0 1.86355e-07 
18439 30506 0 9.34789e-08 
18439 25930 0 4.20613e-08 
18439 2624 0 2.95025e-07 
30506 9483 0 1.33203e-07 
32490 26011 0 4.69856e-08 
26011 20075 0 2.16737e-07 
18116 20386 0 5.93559e-08 
635 3495 0 5.09932e-08 
22393 13766 0 8.32821e-08 
20569 20364 0 3.91928e-08 
25930 7932 0 1.67687e-07 
9483 28871 0 1.41005e-07 
9483 20137 0 4.89974e-08 
20075 14849 0 1.44855e-07 
20075 14951 0 2.16815e-07 
17835 25944 0 3.17414e-07 
8561 6279 0 2.61059e-07 
8561 20386 0 1.81756e-07 
20327 11340 0 3.32186e-07 
20327 3495 0 8.81705e-09 
17553 6332 0 2.83129e-07 
17553 13766 0 1.43129e-08 
19717 13766 0 5.10177e-08 
19717 9537 0 2.2439e-07 
20062 19410 0 2.89407e-07 
2624 7932 0 1.51797e-07 
2624 3875 0 2.63837e-07 
29216 20137 0 8.45658e-08 
14849 25944 0 2.00875e-07 
14849 26008 0 3.11021e-08 
25944 20386 0 1.82757e-07 
25944 23592 0 1.91335e-07 
20386 26107 0 7.13296e-08 
11340 17965 0 5.71901e-08 
11340 9161 0 2.86284e-07 
3495 17965 0 6.01545e-08 
6332 17965 0 3.55714e-08 
6332 75 0 2.65035e-07 
13766 19573 0 1.29516e-07 
9537 19409 0 2.22335e-07 
20364 17083 0 1.62198e-08 
19410 17083 0 7.04659e-08 
19410 3662 0 2.81144e-07 
7932 20632 0 1.89769e-07 
3875 20137 0 1.45803e-07 
3875 20632 0 2.0461e-07 
3875 17489 0 1.92689e-07 
20137 28085 0 7.62277e-08 
20137 27830 0 1.45929e-07 
22355 14951 0 1.6483e-07 
22355 28085 0 1.49207e-08 
22355 26893 0 1.8032e-07 
23592 26107 0 1.91936e-07 
23592 26008 0 2.82775e-07 
17965 3328 0 8.21956e-08 
19573 17386 0 1.51338e-07 
17083 19409 0 5.9243e-08 
17083 2577 0 3.47301e-08 
20632 3662 0 9.46243e-08 
20632 7035 0 3.51153e-07 
27830 17489 0 5.65083e-09 
27830 20782 0 3.47672e-07 
26893 11838 0 4.34275e-07 
26893 20782 0 9.18721e-07 
11838 26008 0 4.24433e-07 
26008 26289 0 2.83368e-07 
27030 6714 0 3.59197e-07 
27030 26289 0 3.54968e-07 
27030 17610 0 1.89699e-07 
9161 3328 0 2.37289e-08 
9161 12230 0 2.54559e-07 
3328 15691 0 5.49436e-08 
75 344 0 2.52572e-07 
17386 19409 0 5.00462e-08 
17386 344 0 2.74411e-08 
17386 3447 0 1.39074e-07 
19409 17646 0 2.02155e-07 
2577 3662 0 5.75739e-08 
2577 17646 0 8.53422e-08 
2577 258 0 3.64383e-08 
3662 3445 0 2.99601e-07 
7035 17489 0 1.91166e-07 
7035 3445 0 3.09759e-07 
7035 1514 0 3.45676e-07 
20350 20782 0 5.78257e-07 
20350 2019 0 5.66399e-07 
20350 10971 0 9.24194e-08 
26289 23666 0 4.7985e-08 
26289 17610 0 1.4035e-07 
13710 17610 0 2.49414e-07 
20426 16554 0 2.63951e-08 
16973 23666 0 1.89534e-07 
12230 12331 0 2.18718e-07 
344 2481 0 2.41415e-07 
17646 3447 0 1.02415e-07 
17646 265 0 2.20146e-07 
3445 258 0 3.46745e-07 
3445 1416 0 2.64034e-07 
2019 1514 0 5.62233e-07 
2019 7972 0 1.59277e-07 
18386 16554 0 6.37754e-08 
18386 10971 0 1.00817e-07 
18386 10436 0 3.92049e-08 
16554 23666 0 1.40676e-07 
23666 17610 0 2.0063e-07 
23666 24816 0 1.52348e-08 
17610 24816 0 3.6426e-07 
10971 4876 0 4.97199e-08 
15691 12331 0 5.11241e-09 
15691 4472 0 5.27967e-08 
3447 2481 0 1.54387e-07 
258 265 0 3.21555e-07 
258 1516 0 1.25188e-07 
1514 1416 0 5.58504e-07 
1514 1275 0 3.31614e-07 
4876 7972 0 3.3961e-08 
24459 4143 0 3.55895e-08 
24816 1861 0 2.73549e-07 
24816 11786 0 4.52071e-07 
1861 41 0 1.55138e-07 
13913 14152 0 3.02197e-07 
13913 3604 0 1.33769e-07 
12331 4472 0 4.99366e-08 
12331 3802 0 1.75629e-07 
4472 2481 0 1.7974e-07 
4472 3802 0 1.44569e-07 
4472 3443 0 9.74052e-08 
2481 860 0 1.28236e-07 
2481 1547 0 2.27172e-07 
860 265 0 3.92472e-07 
860 1547 0 3.76194e-07 
860 2321 0 5.74187e-08 
265 1516 0 1.19977e-07 
265 2321 0 1.76796e-07 
1516 1416 0 6.04622e-07 
1516 2321 0 6.04767e-07 
1516 2330 0 1.54903e-07 
1416 733 0 1.73925e-07 
1275 7972 0 1.14813e-07 
1275 3708 0 3.64303e-07 
7972 3564 0 5.43234e-08 
945 6927 0 1.92559e-08 
11786 20091 0 3.9985e-07 
4088 24645 0 2.09427e-07 
4088 16845 0 2.65406e-07 
24645 6433 0 1.72802e-07 
24645 18975 0 1.71438e-07 
3802 2848 0 1.49928e-07 
3802 3443 0 2.59949e-07 
1547 3443 0 4.20283e-07 
1547 3215 0 1.51212e-07 
1547 2692 0 7.4354e-08 
2321 2692 0 5.58017e-07 
2321 3436 0 2.23107e-07 
733 3990 0 1.02736e-07 
733 3708 0 2.06881e-07 
3564 6927 0 6.06972e-08 
4143 2212 0 1.35524e-07 
18975 166 0 2.23859e-07 
2848 3443 0 4.47637e-07 
3443 3215 0 4.54997e-07 
3215 2692 0 5.55341e-07 
3215 991 0 4.82117e-07 
3215 7020 0 1.82506e-07 
2692 3436 0 5.1089e-08 
2692 7020 0 2.74948e-07 
3436 2330 0 5.78705e-08 
3436 7020 0 2.96797e-07 
3436 12369 0 1.84083e-07 
2330 3990 0 1.0032e-07 
2330 12369 0 1.09755e-07 
3990 12369 0 2.98787e-07 
3990 3061 0 3.01139e-07 
3708 3061 0 4.44259e-07 
6927 527 0 6.32641e-08 
1060 2212 0 1.17726e-07 
1060 527 0 1.75197e-07 
2212 11984 0 1.72056e-07 
20091 16845 0 1.14345e-07 
20091 11984 0 3.86711e-07 
16845 13565 0 2.29045e-07 
16100 3311 0 1.65387e-07 
527 3208 0 1.46579e-07 
527 7101 0 6.74111e-08 
991 2628 0 5.98929e-07 
991 1337 0 4.38366e-07 
7020 1337 0 4.08722e-07 
7020 1195 0 4.34818e-07 
12369 1195 0 3.63886e-07 
12369 15245 0 2.15652e-07 
3061 15245 0 2.62126e-07 
3061 2442 0 6.00127e-07 
11984 2058 0 4.76045e-07 
13565 166 0 6.87184e-08 
13565 13222 0 2.101e-07 
166 3251 0 1.68406e-07 
3208 2442 0 1.50975e-07 
2628 7083 0 6.58319e-08 
2628 6901 0 1.53377e-07 
1337 6901 0 1.21874e-07 
1337 5179 0 4.79277e-07 
1337 6504 0 3.29948e-08 
1195 6504 0 2.44953e-07 
1195 1247 0 3.8522e-07 
1195 14535 0 1.08378e-07 
15245 14535 0 1.80222e-07 
15245 10384 0 1.03519e-07 
2442 4276 0 3.44102e-07 
2442 500 0 4.23881e-07 
2058 13222 0 1.39753e-07 
2058 9193 0 4.8833e-07 
3251 3311 0 2.62282e-07 
3251 19818 0 2.85297e-07 
7083 7473 0 7.32411e-08 
5179 6504 0 2.30142e-07 
5179 7473 0 3.86194e-07 
5179 2106 0 3.5844e-07 
1247 14535 0 2.06704e-07 
1247 2106 0 3.24057e-07 
1247 2163 0 3.4612e-07 
14535 14722 0 5.73025e-08 
14722 10384 0 1.61816e-08 
10384 14746 0 1.20396e-07 
4276 4015 0 2.62364e-07 
500 353 0 4.83886e-07 
353 6438 0 4.97736e-07 
19818 1368 0 1.27022e-06 
19818 8809 0 1.3095e-06 
1368 4486 0 7.87616e-09 
9193 8809 0 1.36736e-06 
9193 6438 0 1.45305e-06 
8809 17537 0 2.9328e-07 
7473 6798 0 4.55769e-07 
7473 5200 0 3.09412e-07 
2106 5200 0 5.68337e-07 
2106 5508 0 5.10149e-07 
2163 5508 0 3.55741e-07 
2163 7572 0 4.21086e-07 
14746 7572 0 2.98631e-07 
14746 8871 0 3.18744e-07 
4015 8871 0 4.63403e-07 
4015 957 0 4.89656e-07 
6438 957 0 1.28868e-06 
6438 18469 0 5.86697e-09 
15855 4486 0 4.57508e-07 
15855 17537 0 3.56065e-07 
15855 13765 0 3.60083e-08 
4486 29 0 3.9411e-07 
4486 13765 0 7.38364e-08 
9011 5200 0 5.02364e-07 
9011 5193 0 6.23916e-07 
9011 354 0 3.17223e-07 
5200 8772 0 1.62703e-07 
8772 5508 0 8.95831e-08 
8772 354 0 3.24293e-07 
8772 7999 0 2.44477e-07 
5508 10031 0 4.3223e-07 
10031 7999 0 4.15537e-07 
10031 18257 0 5.20591e-07 
7572 16543 0 1.91454e-07 
16543 8871 0 3.37336e-07 
16543 18257 0 5.57272e-07 
16543 5087 0 4.50677e-07 
18601 957 0 1.08049e-06 
18601 5087 0 1.05948e-06 
18601 16607 0 2.19457e-07 
18469 20239 0 2.18408e-07 
13765 1845 0 4.73717e-07 
354 8984 0 1.59265e-07 
354 3242 0 1.88353e-07 
7999 3242 0 3.37025e-07 
7999 23460 0 2.02713e-07 
18257 23460 0 3.57722e-07 
18257 18165 0 1.63271e-07 
5087 18165 0 8.11541e-07 
20239 5787 0 2.22702e-07 
1845 14208 0 2.85441e-07 
23460 10886 0 4.21812e-07 
14208 14152 0 3.26783e-07 
10445 8984 0 1.17506e-07 
10445 12538 0 3.86653e-07 
12538 15723 0 4.02529e-07 
12538 2634 0 2.82162e-07 
12538 13893 0 2.67494e-07 
15723 3242 0 3.72044e-07 
6882 10886 0 3.64436e-07 
6882 13893 0 3.86116e-07 
6882 2567 0 6.61887e-08 
10886 3242 0 1.49724e-07 
7427 25971 0 6.63823e-07 
7427 2567 0 6.60569e-07 
25971 23460 0 2.64032e-07 
25971 18165 0 7.51811e-07 
25971 27416 0 1.97202e-07 
3175 14048 0 1.98061e-07 
3175 27416 0 2.19153e-07 
14048 5087 0 3.12245e-07 
14048 24789 0 2.0048e-07 
16890 16607 0 2.49718e-07 
24863 15288 0 3.2792e-08 
24863 22964 0 1.71108e-08 
5787 4842 0 1.45869e-07 
23221 14208 0 2.88523e-07 
23221 27302 0 1.01353e-08 
23221 16263 0 2.4048e-07 
2391 3604 0 1.08532e-07 
2634 2326 0 9.39214e-08 
13893 2326 0 4.09237e-07 
13893 2914 0 2.60879e-07 
2567 2914 0 6.13282e-07 
27416 6022 0 2.11912e-07 
24789 28166 0 2.45676e-07 
22964 27254 0 3.43289e-08 
4842 20819 0 4.18225e-07 
4842 16263 0 3.86395e-07 
27302 14905 0 4.01492e-08 
3722 2326 0 3.44359e-07 
3722 7447 0 3.98871e-07 
9323 2914 0 5.16173e-07 
9323 7447 0 5.11547e-07 
2914 4587 0 2.07496e-07 
2914 20524 0 1.3942e-07 
4587 6022 0 1.94813e-07 
4587 27298 0 7.18631e-08 
28166 4560 0 1.20167e-07 
28166 21051 0 1.86456e-07 
7447 6601 0 2.32109e-07 
7447 13473 0 2.28779e-07 
7447 25997 0 1.38405e-07 
20524 13473 0 1.72054e-07 
19104 14905 0 2.92313e-08 
6601 30004 0 1.48724e-07 
13473 30166 0 2.52611e-07 
30166 37832 0 1.1612e-07 
28444 40805 0 5.50548e-08 
40805 39955 0 4.38889e-08 
39955 18627 0 5.85457e-08 
39839 42722 0 3.00267e-05 
25619 1578 0 5.97199e-05 
12104 16952 0 5.3091e-05 
730 4547 0 2.82691e-05 
25768 16952 0 5.65197e-05 
25768 2415 0 4.80454e-05 
563 8198 0 4.31229e-05 
14107 3809 0 7.72514e-05 
3809 25492 0 6.91467e-05 
8198 31828 0 2.91552e-05 
5208 7472 0 5.82021e-05 
7472 4567 0 0.000109656 
18931 36352 0 1.4386e-05 
2940 538 0 1.94912e-05 
34446 25092 0 4.84256e-05 
1600 20016 0 3.84715e-07 
31087 42723 0 3.3502e-05 
24969 33531 0 6.71902e-06 
3169 4646 0 2.52961e-05 
30165 16946 0 8.98164e-07 
40995 25278 0 5.41007e-06 
32618 5247 0 8.16216e-07 
32618 32930 0 8.97867e-07 
30812 15841 0 1.18911e-06 
30812 1389 0 1.00771e-06 
30812 15745 0 1.041e-06 
38078 32660 0 1.76467e-06 
38078 29050 0 1.63143e-06 
38078 34838 0 1.61901e-06 
11922 34208 0 1.03273e-06 
11922 21354 0 5.11283e-07 
11922 13482 0 4.95173e-07 
17072 41047 0 5.70287e-07 
34534 22270 0 7.71928e-08 
10109 30198 0 4.65345e-06 
41047 38624 0 2.18529e-06 
4483 19226 0 9.65148e-06 
10690 2472 0 0.000110503 
19226 13957 0 1.90556e-07 
2472 33925 0 2.49629e-05 
33768 28209 0 6.77664e-06 
39574 23134 0 2.91653e-06 
33925 3799 0 7.33181e-05 
11184 26282 0 1.82997e-06 
28805 14090 0 2.37337e-07 
28805 40143 0 1.53834e-07 
38933 40143 0 1.59583e-06 
14090 38878 0 1.22137e-06 
38878 12742 0 9.30569e-07 
33197 25206 0 3.77095e-07 
7460 4585 0 2.48532e-07 
40095 39707 0 3.24502e-08 
8018 26588 0 1.0194e-06 
8018 37042 0 5.97394e-07 
18582 1737 0 9.99228e-07 
3664 15270 0 2.61543e-09 
12410 14743 0 3.37685e-07 
17655 27630 0 1.93229e-08 
21123 30651 0 5.97876e-06 
15365 3601 0 6.81859e-05 
31753 12922 0 8.0506e-06 
13631 30468 0 7.2896e-07 
31670 8129 0 2.09047e-07 
28913 24464 0 1.09244e-06 
24194 27630 0 7.14702e-07 
21610 9184 0 5.42795e-07 
27630 8001 0 3.16857e-07 
9184 35914 0 2.31667e-06 
3390 22915 0 1.47359e-06 
22915 18566 0 5.41671e-06 
30470 12507 0 8.05569e-07 
7933 16326 0 0.000108259 
16484 39734 0 3.98155e-06 
7675 519 0 8.92e-06 
12922 41449 0 9.57566e-07 
20706 2005 0 9.1733e-07 
20905 40620 0 1.64947e-06 
432 15668 0 7.50371e-07 
40620 14186 0 7.20458e-07 
16926 19022 0 2.36088e-07 
10164 35925 0 1.06234e-06 
19106 3828 0 2.40481e-08 
35748 25680 0 2.7137e-07 
34164 8956 0 5.08606e-06 
35914 32587 0 8.99094e-07 
15929 6148 0 1.28823e-05 
20305 37854 0 1.42799e-06 
20305 34566 0 2.68909e-06 
37854 17490 0 3.58299e-06 
33167 35800 0 1.55074e-06 
35800 32590 0 1.86802e-05 
17490 327 0 2.07653e-06 
327 26461 0 1.32285e-06 
14316 26461 0 1.06321e-06 
14316 15527 0 5.26545e-07 
4491 37526 0 6.14797e-08 
8129 3828 0 2.27088e-06 
35218 39392 0 8.43424e-07 
15527 3279 0 1.30571e-06 
14186 15127 0 4.4275e-07 
19022 27194 0 8.46555e-07 
19022 31215 0 1.92342e-07 
27194 17853 0 4.56702e-07 
17913 32587 0 5.54043e-07 
7595 19148 0 2.74946e-07 
15127 24208 0 7.38023e-07 
8956 10625 0 7.31956e-07 
8956 32587 0 1.61246e-06 
27312 34479 0 1.77887e-06 
21887 6347 0 2.98914e-06 
23789 16826 0 7.45704e-08 
16826 19325 0 5.73325e-07 
36585 19325 0 2.80724e-06 
20013 26085 0 1.88428e-06 
17778 32265 0 3.77562e-07 
42227 29007 0 5.06565e-07 
31886 35554 0 4.81785e-07 
39392 29399 0 6.54077e-07 
39392 29186 0 4.50196e-07 
33884 20375 0 6.68106e-07 
35554 9157 0 4.00375e-07 
31215 16950 0 5.92117e-07 
19148 26079 0 3.12258e-07 
16903 13756 0 2.09015e-06 
9157 32990 0 1.87311e-07 
29672 24389 0 7.26223e-07 
12514 24389 0 8.89971e-07 
34479 13686 0 8.83025e-07 
34479 27679 0 7.75152e-07 
34479 32990 0 2.46513e-08 
27679 7468 0 1.04974e-06 
27679 23009 0 3.36119e-07 
39745 28200 0 3.72765e-06 
39745 28493 0 3.19451e-06 
35234 29544 0 9.91856e-07 
24116 30033 0 7.3347e-07 
24116 9311 0 5.00262e-08 
4046 35392 0 2.69503e-06 
20831 37526 0 1.06861e-06 
1871 24539 0 1.74248e-06 
1871 3319 0 2.37852e-06 
17621 28655 0 2.83865e-07 
30017 41717 0 5.02583e-07 
17699 29399 0 3.38641e-07 
14377 11970 0 1.95706e-06 
26047 38684 0 4.22046e-07 
29399 22497 0 6.89844e-07 
26416 37160 0 8.02516e-08 
41014 16643 0 4.09167e-07 
33473 30741 0 1.59334e-06 
16950 21375 0 1.66881e-06 
23161 33433 0 4.72975e-07 
24287 12306 0 1.19369e-06 
24961 32827 0 2.40608e-06 
24961 23496 0 8.04144e-07 
12306 32585 0 1.29116e-06 
29191 32585 0 5.3073e-07 
13756 5670 0 2.93862e-06 
13756 30741 0 1.53883e-06 
32990 32838 0 5.61662e-07 
5670 21962 0 2.18928e-06 
38354 17154 0 4.39979e-07 
24389 28635 0 1.69034e-06 
18281 4796 0 1.59217e-06 
18281 994 0 1.50781e-06 
13978 30034 0 9.36597e-07 
35050 23360 0 8.53175e-07 
29484 29822 0 1.88956e-06 
29484 34255 0 6.97803e-07 
6709 2690 0 4.46525e-08 
24539 23360 0 3.91685e-07 
23360 21763 0 2.80035e-07 
23360 7340 0 1.68164e-06 
24309 20515 0 3.59029e-07 
14421 1981 0 1.04824e-07 
38464 32205 0 2.36069e-06 
33622 39882 0 3.49227e-07 
22369 3023 0 3.07822e-07 
39882 38684 0 6.89957e-07 
29880 17794 0 5.58461e-07 
20354 38037 0 5.54798e-07 
12951 28433 0 1.37269e-06 
12951 38037 0 8.40137e-07 
38684 25567 0 1.23387e-06 
28433 10767 0 2.71548e-06 
28433 2981 0 7.41637e-07 
28433 15068 0 8.57061e-07 
21375 8837 0 2.10994e-06 
21375 38329 0 1.2142e-06 
16643 23511 0 3.57831e-07 
11235 32585 0 1.75829e-07 
30741 37992 0 4.87092e-08 
30741 38590 0 1.50263e-06 
41768 10767 0 2.62192e-07 
30969 26079 0 2.40855e-07 
30969 17154 0 7.85745e-07 
29570 28411 0 3.6635e-07 
30113 28411 0 3.53973e-07 
30113 13479 0 2.72213e-07 
32838 191 0 5.04528e-07 
26650 20008 0 2.47818e-07 
28411 10907 0 2.77794e-07 
42422 6153 0 1.41698e-06 
42422 22011 0 5.98829e-07 
42422 2532 0 7.39658e-08 
21962 22011 0 1.39679e-07 
21962 35175 0 4.14997e-07 
994 9907 0 1.13693e-06 
30034 40084 0 2.2111e-06 
40911 29822 0 1.24922e-06 
40911 6752 0 8.50555e-07 
29065 29180 0 7.62191e-07 
32652 23626 0 3.31099e-07 
32652 18234 0 9.62328e-07 
5139 22238 0 4.44878e-07 
29082 20515 0 2.94514e-07 
23626 20515 0 2.49572e-07 
23626 18234 0 1.00583e-06 
23626 13287 0 1.8687e-07 
21379 24307 0 1.11468e-07 
34255 38148 0 2.5795e-07 
17032 33442 0 6.83356e-07 
7340 28515 0 1.37464e-06 
14834 21464 0 1.78108e-07 
14834 19948 0 5.14819e-08 
14600 18920 0 1.84511e-07 
14600 18618 0 2.97355e-07 
28515 21597 0 7.77261e-07 
19921 34051 0 6.00984e-07 
36400 27278 0 8.10856e-07 
3023 18074 0 3.45895e-07 
3023 18618 0 2.87341e-07 
17951 22288 0 2.11521e-06 
20059 35796 0 6.05376e-07 
20059 41459 0 1.47442e-07 
35796 36096 0 1.96182e-07 
36096 28429 0 5.36537e-08 
36096 20303 0 6.23761e-07 
17794 26336 0 7.83766e-07 
18074 22900 0 2.24077e-07 
28982 38037 0 1.83219e-06 
28982 7123 0 1.42042e-06 
18123 20962 0 6.09167e-07 
8172 37763 0 2.78424e-07 
25765 2981 0 1.72724e-06 
2981 27184 0 1.68804e-06 
15068 19181 0 1.68731e-06 
25567 23496 0 2.27268e-06 
25567 5310 0 1.14713e-06 
663 13468 0 5.07448e-09 
27184 22314 0 2.18775e-07 
23496 25591 0 2.71828e-06 
13872 19387 0 1.65661e-06 
13479 21210 0 5.72813e-07 
21210 21943 0 7.55777e-07 
38590 41308 0 1.56499e-06 
38590 27218 0 1.20301e-06 
8837 20008 0 1.72061e-06 
16860 39868 0 4.16383e-07 
16860 23490 0 5.48062e-07 
22011 24992 0 6.85442e-07 
5850 35175 0 3.82942e-07 
5850 41308 0 3.53297e-07 
9907 30797 0 3.12403e-07 
25591 25448 0 2.3453e-06 
39868 10024 0 4.46123e-07 
35175 21630 0 1.32061e-06 
35175 36518 0 6.36819e-07 
4429 21460 0 6.03918e-06 
35090 6872 0 4.83734e-07 
29180 7151 0 9.05007e-08 
32132 24724 0 6.29414e-07 
40192 28817 0 3.01264e-07 
6752 17182 0 1.4649e-06 
6752 10460 0 1.26044e-06 
22238 39502 0 6.95361e-07 
22238 19261 0 2.6857e-07 
22238 24275 0 2.65505e-07 
38148 35439 0 4.51241e-07 
13287 10776 0 3.63537e-08 
13287 27133 0 7.9885e-07 
13287 5048 0 1.22574e-07 
21325 10261 0 6.44964e-07 
21325 22721 0 9.2229e-07 
39502 24724 0 5.72902e-07 
39502 28885 0 4.60252e-07 
24724 36086 0 4.87025e-07 
24724 14773 0 1.86733e-07 
15138 30797 0 2.47071e-07 
15138 12132 0 2.38425e-07 
19948 28379 0 4.70847e-07 
28885 22500 0 3.34677e-07 
18920 18731 0 1.752e-07 
19490 28379 0 2.97845e-07 
19490 6481 0 5.10148e-07 
25764 19095 0 1.01033e-07 
6930 23014 0 6.65728e-07 
6930 23169 0 1.3174e-06 
27278 37118 0 1.13747e-06 
29155 12451 0 1.16482e-06 
28108 42358 0 3.3774e-07 
28108 21597 0 4.79097e-07 
28108 25355 0 2.41324e-07 
37118 6481 0 5.85372e-07 
37118 6181 0 1.25065e-06 
18248 41459 0 1.25341e-07 
18248 37446 0 1.16262e-06 
18248 26981 0 4.59685e-07 
10702 14436 0 2.80066e-07 
20303 27071 0 9.91222e-07 
20303 15451 0 5.03088e-07 
5310 23169 0 1.10451e-06 
37446 37763 0 2.03186e-07 
27071 22900 0 9.53804e-07 
27071 27218 0 1.32797e-06 
38329 6105 0 3.50725e-07 
37763 23571 0 4.67667e-07 
32992 20317 0 1.62636e-08 
19181 31569 0 3.64257e-07 
19181 23174 0 5.65796e-08 
19181 41198 0 9.13615e-07 
13468 40819 0 6.43472e-07 
8363 5923 0 1.20956e-06 
13288 13252 0 4.55452e-08 
21943 27218 0 1.01754e-06 
41308 3838 0 2.5742e-06 
41308 41372 0 4.88435e-07 
23490 40819 0 1.81901e-07 
22040 4992 0 6.10262e-07 
22040 5923 0 1.30119e-06 
22040 15020 0 1.16763e-06 
24992 8728 0 4.7372e-07 
41656 36518 0 5.26293e-07 
41656 36728 0 4.12848e-07 
25871 15953 0 1.8505e-06 
32691 15569 0 4.70757e-07 
32924 39115 0 1.72556e-07 
34117 27058 0 2.82489e-07 
36081 11582 0 1.15135e-05 
40446 20601 0 1.74139e-06 
40446 19682 0 4.08799e-06 
37564 26168 0 3.46178e-06 
34274 3808 0 2.26351e-06 
3843 35439 0 9.65999e-07 
3843 6872 0 6.45604e-07 
2748 1287 0 6.99945e-07 
3808 19261 0 2.5703e-06 
7151 9796 0 1.35578e-06 
35439 36780 0 5.8146e-07 
10460 18536 0 1.07443e-06 
10460 31833 0 1.33242e-07 
27133 9463 0 4.63402e-07 
27133 30163 0 4.35483e-06 
27133 9924 0 1.57173e-06 
10261 26972 0 1.15868e-06 
10261 35093 0 1.5166e-07 
24275 6595 0 8.68309e-07 
24275 22721 0 4.73817e-07 
6595 28817 0 7.93664e-07 
6595 16200 0 1.03333e-06 
28817 40742 0 6.79273e-07 
18536 28379 0 5.54707e-07 
9463 30548 0 3.96636e-07 
22721 16796 0 7.1606e-07 
14773 16200 0 1.23359e-06 
40742 19162 0 5.89699e-07 
40742 27297 0 1.25422e-06 
21086 41337 0 3.35705e-07 
11351 14712 0 2.22513e-07 
34324 36780 0 1.06319e-06 
34324 22993 0 2.6636e-06 
28379 9911 0 5.16392e-07 
28379 32707 0 1.12976e-08 
5048 41420 0 7.71969e-07 
14799 19095 0 5.85221e-07 
14799 9924 0 5.07037e-07 
14799 34261 0 2.226e-07 
6359 34261 0 5.87423e-07 
40266 22500 0 5.66821e-07 
40266 20117 0 5.60968e-07 
40266 26552 0 8.67828e-07 
41420 26981 0 8.0784e-07 
19095 26169 0 6.45736e-07 
26169 31781 0 3.51086e-07 
18171 34903 0 6.80898e-07 
18731 3756 0 5.66339e-07 
27503 22165 0 8.92298e-07 
16921 31277 0 1.57697e-06 
38856 39168 0 1.20836e-07 
22500 27813 0 1.9987e-07 
31277 23169 0 8.59266e-07 
31277 39645 0 2.63137e-06 
31277 19960 0 2.99021e-06 
26981 19859 0 4.2974e-07 
667 33582 0 1.47528e-07 
6181 8887 0 1.21669e-06 
6181 12611 0 4.50655e-09 
6181 2513 0 2.90671e-07 
13510 15769 0 2.97666e-06 
13510 35820 0 2.56667e-06 
22900 36762 0 3.36156e-07 
36762 30768 0 3.74425e-07 
36762 3764 0 6.23943e-07 
19129 19960 0 2.50886e-06 
19129 3013 0 1.91595e-06 
26144 19859 0 6.54538e-07 
14436 18819 0 1.81571e-07 
14436 34967 0 3.73436e-07 
15451 18819 0 4.82182e-07 
15613 28049 0 4.79396e-07 
15613 10176 0 2.49395e-07 
6105 34007 0 3.62748e-07 
33582 40819 0 2.47192e-07 
8887 5923 0 1.13333e-06 
15769 6651 0 2.94848e-06 
18819 35526 0 3.68252e-07 
40819 34893 0 8.27225e-07 
23571 17395 0 5.7129e-07 
23571 28114 0 8.97085e-07 
6651 13137 0 1.52917e-06 
6651 39115 0 5.13831e-07 
6651 32638 0 1.51382e-06 
35526 24857 0 3.99277e-07 
35526 32638 0 1.71773e-07 
27218 34927 0 1.78684e-06 
27218 16734 0 1.02029e-06 
3838 36728 0 1.06728e-06 
41198 15326 0 8.37931e-08 
17395 13137 0 3.05724e-07 
17395 15020 0 1.23745e-06 
13137 35060 0 9.22911e-07 
13137 36700 0 2.47475e-07 
24857 27058 0 4.45146e-07 
24857 22068 0 1.04893e-07 
41372 4684 0 9.00257e-07 
36728 20537 0 6.02516e-07 
29098 17319 0 4.55978e-07 
35060 7944 0 6.90973e-07 
35060 37726 0 3.60774e-07 
24930 34927 0 1.78247e-06 
24930 30215 0 4.14414e-07 
24930 16712 0 1.06224e-06 
24930 22068 0 1.45322e-06 
30215 11107 0 4.22383e-07 
30215 21522 0 7.56919e-07 
21460 35420 0 2.08009e-06 
17094 21128 0 6.06301e-07 
26855 25649 0 2.85692e-06 
40305 19271 0 1.19835e-06 
35963 31504 0 3.20924e-07 
6872 35028 0 6.42721e-07 
9796 1287 0 2.12162e-07 
9796 32733 0 3.62973e-06 
26168 30163 0 4.42156e-06 
24926 34482 0 2.15455e-07 
24926 28801 0 5.00577e-07 
18083 366 0 1.478e-06 
18083 35653 0 1.07307e-06 
1287 30548 0 1.40237e-06 
1287 4744 0 2.26978e-06 
30163 26972 0 1.93561e-06 
30163 25960 0 2.16767e-06 
26972 28801 0 9.83878e-07 
28801 19341 0 5.54775e-07 
28801 11433 0 2.98628e-06 
28152 14531 0 2.03805e-07 
36780 16557 0 6.88717e-07 
31833 16557 0 1.98459e-07 
366 34225 0 8.06193e-07 
366 35323 0 1.68467e-06 
24501 26684 0 8.16585e-08 
9924 9911 0 9.99866e-07 
9924 25960 0 5.35117e-07 
35093 20117 0 1.51915e-06 
16200 26552 0 8.99652e-07 
16200 35323 0 1.6358e-06 
26684 39645 0 1.60525e-06 
26684 11701 0 1.76973e-06 
9911 35351 0 4.64189e-07 
9911 21785 0 5.31368e-07 
34261 13777 0 3.35786e-07 
26552 30108 0 1.17599e-06 
19162 34903 0 6.77312e-07 
27297 29038 0 3.90213e-07 
22993 39645 0 2.60236e-06 
33418 39764 0 6.21736e-07 
32707 32550 0 9.62309e-07 
35351 32550 0 3.65658e-07 
25030 36963 0 7.32635e-07 
25030 22880 0 1.25074e-06 
34297 35512 0 6.00455e-07 
39645 39764 0 1.88694e-06 
39764 39168 0 8.34255e-07 
39764 4655 0 1.49372e-06 
31781 36671 0 2.68103e-07 
28056 17216 0 4.4027e-07 
19714 30768 0 1.64771e-09 
27037 19960 0 3.92951e-06 
39168 41709 0 7.56354e-07 
39168 11527 0 1.1925e-07 
41709 12611 0 7.86067e-07 
35820 32550 0 2.49913e-06 
36671 38536 0 6.84563e-07 
36671 41790 0 6.53304e-07 
36671 28049 0 2.33174e-07 
38536 17216 0 3.99888e-07 
38536 34146 0 4.1345e-07 
16525 18946 0 2.00905e-07 
16525 10705 0 2.88699e-07 
30768 5747 0 6.12495e-07 
19668 9216 0 3.40414e-07 
19960 36973 0 2.01501e-06 
19859 41790 0 2.10882e-07 
19859 22944 0 4.21047e-07 
41790 5444 0 8.68772e-07 
25355 11291 0 7.9575e-08 
2513 8060 0 2.8822e-07 
34967 12651 0 5.59225e-07 
34007 39296 0 6.68501e-07 
36658 20556 0 5.90187e-08 
27730 17343 0 1.447e-07 
3764 33980 0 1.14189e-06 
3764 16734 0 1.22534e-06 
34893 5242 0 6.81256e-08 
34893 21885 0 7.97638e-07 
28114 4679 0 4.23344e-07 
28114 12328 0 4.58955e-07 
17288 34927 0 2.24196e-06 
17288 41573 0 8.39556e-07 
16734 21522 0 7.46403e-07 
20537 18354 0 3.05652e-07 
20537 18086 0 7.10459e-07 
20537 20643 0 2.83428e-07 
32638 37726 0 1.39973e-06 
32638 9868 0 8.04438e-08 
34927 19467 0 3.93698e-07 
21522 4684 0 8.12671e-07 
21522 30060 0 1.19914e-06 
21522 36604 0 9.7223e-07 
21690 20824 0 4.2925e-08 
15020 31349 0 1.10699e-06 
37726 40997 0 9.76737e-07 
18354 23417 0 1.59525e-07 
18354 27418 0 2.86551e-07 
8847 3861 0 0.000113482 
24437 19682 0 1.05104e-05 
24437 14213 0 1.26113e-05 
35420 6712 0 5.72255e-06 
39641 35028 0 1.60484e-06 
36152 4773 0 2.36009e-06 
17712 40443 0 4.19716e-07 
11886 35444 0 7.73435e-08 
4744 24895 0 8.65496e-07 
4744 22802 0 2.35092e-07 
25191 31116 0 4.89485e-06 
25191 8352 0 6.64322e-06 
9141 12738 0 4.62748e-07 
24895 25960 0 2.79694e-06 
8352 21092 0 3.35211e-06 
16557 40733 0 8.38513e-07 
23580 38027 0 1.12402e-06 
25960 8658 0 4.09516e-06 
21092 41181 0 1.13371e-06 
20301 41181 0 6.62265e-07 
20301 31998 0 7.58825e-07 
35323 12738 0 5.4218e-07 
35323 31998 0 1.29273e-06 
39390 17471 0 7.8728e-07 
39390 31394 0 1.84708e-07 
39390 11701 0 1.48586e-06 
8658 22880 0 2.07696e-06 
8658 15256 0 5.59009e-07 
8658 37542 0 3.23983e-06 
16796 41219 0 6.04393e-07 
25953 34955 0 6.19831e-07 
17491 1278 0 2.92754e-07 
17491 21785 0 1.18091e-06 
29811 4934 0 2.30849e-07 
1278 25892 0 9.03573e-07 
13777 21208 0 6.43633e-08 
34903 11213 0 5.00256e-07 
34903 18946 0 9.91263e-07 
30005 5747 0 1.58139e-06 
30005 24212 0 1.48986e-06 
30005 21286 0 4.72113e-07 
4655 25892 0 1.89118e-06 
4655 16788 0 1.95134e-06 
32550 16788 0 7.16657e-07 
11213 37806 0 2.25585e-07 
11213 19551 0 4.45284e-07 
12528 21286 0 5.01477e-07 
25483 6648 0 1.95512e-07 
18946 20827 0 7.89603e-07 
18946 19551 0 5.5803e-07 
5747 9216 0 7.46386e-07 
9216 23000 0 3.2637e-07 
11527 29904 0 2.30475e-07 
12611 28547 0 7.66086e-07 
17216 10176 0 4.96605e-07 
10705 33274 0 6.46986e-07 
4572 12291 0 2.92175e-07 
36973 39296 0 1.7584e-06 
28547 6648 0 5.07323e-07 
28547 20556 0 2.78968e-07 
28547 4679 0 5.06809e-07 
27389 34146 0 1.85792e-08 
10176 15986 0 5.46132e-07 
33980 13698 0 8.89722e-07 
30042 18086 0 1.37876e-06 
30042 36753 0 4.92678e-07 
39296 21885 0 5.0342e-07 
39296 34957 0 8.22384e-07 
39296 7968 0 1.99312e-06 
15986 33532 0 9.96697e-07 
15986 30060 0 1.29843e-06 
15986 17735 0 1.22688e-06 
9868 28595 0 2.72742e-07 
40423 35259 0 3.90507e-07 
30060 33532 0 3.66763e-07 
30060 37717 0 4.11779e-07 
30060 13798 0 9.08718e-07 
20824 10414 0 1.45764e-07 
20824 29702 0 2.85322e-07 
20824 33102 0 9.33612e-08 
6415 21885 0 3.86213e-07 
21885 8531 0 7.76352e-07 
21488 31349 0 1.71597e-06 
21488 34957 0 1.85982e-06 
21488 21792 0 3.86944e-07 
21488 21458 0 2.71059e-07 
31349 36700 0 8.76166e-07 
40997 41573 0 5.02177e-07 
40997 10965 0 1.16844e-06 
40997 33920 0 5.44259e-07 
41573 25685 0 5.36478e-07 
23417 10300 0 1.00886e-06 
23417 20643 0 6.31942e-07 
38054 35398 0 2.83117e-07 
17319 10095 0 1.21261e-06 
17319 21792 0 1.21731e-06 
36700 3641 0 1.32708e-06 
36700 12328 0 1.31615e-06 
25685 33373 0 4.1566e-07 
36604 33491 0 4.40921e-07 
36604 13798 0 2.09811e-07 
36604 7357 0 5.91319e-07 
3861 37672 0 3.66305e-05 