ITEM: TIMESTEP
20000000
ITEM: NUMBER OF ENTRIES
3725
ITEM: BOX BOUNDS ff ff ff
-0.01 0.45
-0.15 0.15
-0.08 0.1
ITEM: ENTRIES c_ppc[1] c_ppc[2] c_ppc[3] c_ppc[4] 
940 3693 0 0.000130623 
3693 1285 0 5.08732e-05 
613 111 0 2.73459e-05 
594 81 0 0.000677829 
2895 2161 0 8.45138e-05 
2163 4921 0 7.03279e-05 
2163 2187 0 4.26631e-05 
749 4921 0 3.283e-05 
4921 2161 0 2.30726e-05 
2017 4074 0 3.14484e-05 
2161 3857 0 7.56251e-05 
2187 4063 0 1.54761e-05 
2559 4260 0 3.61994e-05 
3857 4063 0 6.92182e-06 
506 2952 0 4.09725e-05 
1854 4552 0 1.56262e-06 
4920 3951 0 1.82762e-06 
4387 2847 0 6.6499e-06 
4387 1783 0 4.22402e-06 
3839 2825 0 2.89081e-05 
2763 1181 0 1.01867e-05 
2763 2618 0 2.92584e-06 
248 3997 0 2.72317e-06 
2671 2781 0 2.95427e-05 
4059 1625 0 2.1811e-06 
4059 1755 0 5.17602e-06 
4708 1625 0 7.49577e-06 
1062 2773 0 1.60766e-05 
2781 704 0 2.6587e-05 
3983 2010 0 1.41557e-05 
3983 1755 0 1.21838e-05 
2482 493 0 1.68617e-06 
3190 493 0 7.646e-06 
2931 774 0 5.358e-06 
2931 2851 0 3.53597e-06 
1190 2773 0 1.95788e-05 
3670 3616 0 6.91696e-06 
2465 4139 0 2.45176e-06 
3877 4552 0 3.41566e-06 
704 229 0 1.39824e-05 
704 1405 0 7.46013e-06 
704 1907 0 8.17915e-06 
1405 4552 0 3.74852e-06 
3570 4405 0 4.3218e-06 
2851 4273 0 3.13811e-06 
4318 2343 0 1.99752e-06 
1907 1901 0 6.42195e-07 
3488 4246 0 7.68478e-07 
4246 582 0 1.69433e-07 
2451 582 0 2.16913e-07 
2343 3616 0 3.56174e-06 
582 962 0 1.92668e-07 
3616 3883 0 5.32805e-06 
2136 1561 0 1.07515e-06 
1561 1544 0 1.76737e-06 
1114 300 0 2.90135e-06 
4399 2812 0 7.27437e-06 
4399 4357 0 1.34251e-05 
4001 4357 0 6.1655e-06 
4001 3476 0 3.26833e-05 
14 4880 0 2.75428e-06 
14 4566 0 6.10746e-05 
2499 2386 0 3.2299e-05 
1079 3478 0 1.3193e-05 
1079 4084 0 2.41823e-05 
1079 1435 0 5.71844e-06 
3478 1135 0 1.33426e-06 
4084 4839 0 3.20888e-05 
754 4223 0 1.91965e-06 
1389 4599 0 2.49043e-05 
955 864 0 5.20217e-06 
4599 4663 0 4.57951e-05 
4599 2545 0 3.93076e-05 
4551 825 0 2.36958e-05 
2297 4454 0 6.17903e-06 
4700 2786 0 2.7116e-05 
4663 985 0 4.67596e-05 
4663 3854 0 1.07669e-05 
1081 985 0 5.0613e-05 
1081 4454 0 4.31792e-05 
1081 864 0 2.66642e-05 
4454 2080 0 3.36289e-05 
4454 3574 0 2.96307e-05 
4454 3124 0 1.47076e-05 
3854 4420 0 5.21243e-06 
3854 3325 0 1.97702e-05 
985 3122 0 1.9437e-05 
985 1238 0 3.46494e-05 
2786 3559 0 2.98263e-05 
2786 112 0 2.3187e-05 
2786 4723 0 8.51921e-06 
3122 4340 0 2.49735e-05 
2151 662 0 5.20755e-06 
3574 2080 0 1.52337e-06 
3574 662 0 8.07069e-07 
3574 641 0 2.42045e-05 
3574 2753 0 2.07183e-05 
3559 2591 0 2.98736e-05 
3559 1427 0 2.83202e-06 
3559 2405 0 2.74903e-06 
4420 112 0 1.78512e-05 
4420 3023 0 3.78309e-06 
662 4340 0 1.50695e-05 
662 641 0 1.30523e-05 
112 2591 0 3.84536e-05 
112 4054 0 2.57241e-05 
112 1888 0 1.59992e-06 
3023 4340 0 2.04775e-06 
3023 3088 0 1.02452e-05 
2591 1360 0 4.62158e-05 
2591 2405 0 1.81121e-05 
4054 3088 0 1.639e-05 
4054 1542 0 1.99484e-05 
1119 641 0 8.0933e-06 
1119 3677 0 3.70883e-06 
1360 3968 0 8.43931e-07 
1360 1761 0 5.40657e-05 
1360 3622 0 2.30096e-05 
3088 130 0 1.28132e-05 
3088 4162 0 1.80982e-05 
4262 895 0 3.75157e-05 
4262 130 0 3.64231e-05 
4262 1361 0 4.71117e-05 
4262 1971 0 2.71052e-05 
4162 2159 0 1.69569e-05 
4162 4614 0 1.19501e-05 
1761 3370 0 4.063e-05 
1761 3171 0 3.03579e-05 
1761 1276 0 1.78606e-05 
741 1542 0 2.96095e-05 
741 3968 0 1.81158e-05 
741 2159 0 3.62424e-05 
1361 1224 0 1.35954e-05 
1361 1233 0 9.63395e-06 
1361 3493 0 2.84261e-05 
3370 1837 0 3.60037e-05 
3370 1826 0 2.01527e-05 
2159 3038 0 3.03184e-06 
2159 738 0 1.45822e-05 
2159 3757 0 3.47106e-05 
3038 1692 0 6.81044e-06 
3038 1904 0 5.05522e-06 
3493 1692 0 1.61319e-05 
3493 2588 0 2.66614e-05 
3171 1837 0 2.47299e-05 
738 1837 0 1.14297e-05 
738 1826 0 2.16956e-05 
1692 3757 0 1.75682e-05 
4357 2163 0 1.53438e-05 
4880 2386 0 8.54618e-06 
4340 895 0 2.57621e-05 
1888 3968 0 1.59072e-05 
1888 3622 0 1.67061e-06 
895 130 0 9.87145e-06 
895 615 0 2.07248e-05 
1542 1660 0 7.67823e-07 
130 4614 0 3.43557e-05 
3968 3708 0 1.20449e-05 
371 4314 0 8.91537e-06 
1837 1826 0 2.57783e-05 
3757 1600 0 2.56421e-05 
3476 2386 0 2.12539e-05 
3476 1288 0 2.71874e-05 
4566 3307 0 4.76479e-06 
4566 979 0 6.87743e-05 
2386 4321 0 1.33474e-05 
4839 4321 0 4.37741e-05 
4839 4401 0 4.23986e-05 
4249 825 0 1.10174e-05 
4249 413 0 1.48565e-05 
4249 4888 0 5.89403e-05 
3307 2545 0 2.82379e-05 
2545 992 0 9.27166e-06 
2545 1965 0 2.95828e-05 
825 4888 0 3.08265e-05 
825 4134 0 7.38727e-06 
825 1664 0 1.19209e-05 
864 3124 0 4.86756e-05 
864 4188 0 1.76767e-05 
1238 1348 0 1.48519e-05 
1238 4642 0 3.7658e-05 
1238 3269 0 9.4668e-06 
3269 105 0 1.78718e-05 
1965 1427 0 3.22068e-05 
4723 1427 0 1.93529e-05 
4723 3971 0 2.62319e-05 
4723 4642 0 3.7379e-05 
3124 4268 0 3.1699e-05 
1427 2405 0 4.19027e-05 
3325 1348 0 6.47738e-06 
3325 3971 0 1.12235e-05 
3325 4277 0 9.23331e-07 
3325 2255 0 2.1425e-05 
1348 4268 0 1.18269e-05 
1348 4060 0 7.47957e-06 
4268 615 0 1.45446e-05 
2753 620 0 1.20639e-05 
2753 4798 0 2.35452e-06 
2753 3117 0 2.19629e-05 
3971 2405 0 2.83264e-05 
3971 1241 0 1.27287e-05 
2405 3622 0 5.31191e-05 
2405 2997 0 1.44069e-05 
4060 615 0 5.24141e-06 
615 2358 0 1.89085e-05 
615 680 0 2.33564e-05 
1241 2530 0 1.69561e-05 
2897 4614 0 1.65122e-05 
3677 1269 0 7.90391e-06 
3677 4187 0 8.77171e-06 
3622 1516 0 3.79684e-05 
2530 1660 0 1.46947e-05 
2530 1516 0 2.00145e-05 
2530 3708 0 8.22962e-06 
2358 4614 0 1.50815e-05 
2358 558 0 1.91714e-06 
1971 2514 0 2.8008e-05 
4614 2219 0 3.72233e-05 
3708 11 0 8.83733e-06 
3708 3069 0 6.11699e-06 
2219 1826 0 4.49709e-05 
2219 1600 0 3.83583e-05 
2219 1660 0 4.56338e-05 
2219 4668 0 7.1099e-06 
1904 558 0 6.27647e-06 
1276 557 0 4.46176e-05 
1276 1516 0 4.48217e-05 
1826 2128 0 8.42921e-06 
1600 2128 0 2.12888e-06 
1600 1899 0 2.98082e-05 
4916 4923 0 2.77312e-07 
4321 1288 0 5.2379e-06 
4401 2369 0 4.25329e-05 
4134 1677 0 4.66162e-05 
1664 1420 0 1.29817e-05 
4188 1420 0 2.7725e-05 
4642 1677 0 2.32521e-05 
105 2173 0 6.51332e-05 
2481 2704 0 2.49331e-05 
2481 2694 0 1.76744e-05 
2481 3300 0 1.075e-05 
2255 2483 0 2.22493e-05 
2255 4232 0 1.02944e-05 
3117 1420 0 4.77694e-05 
3117 680 0 2.55574e-05 
3117 3961 0 6.34972e-06 
3117 2142 0 1.58973e-05 
3300 2179 0 1.65283e-05 
3300 4232 0 1.82576e-05 
2997 3410 0 9.14742e-06 
2997 2726 0 9.71534e-07 
1516 4329 0 2.36779e-05 
1660 4751 0 1.8377e-05 
1660 4601 0 3.4934e-05 
558 1758 0 4.57013e-06 
4189 1936 0 3.29735e-06 
4202 1045 0 1.44961e-05 
4202 3326 0 1.11788e-05 
11 2128 0 8.33721e-06 
11 746 0 1.00669e-05 
11 498 0 1.12892e-05 
2128 1443 0 1.14137e-05 
358 1936 0 5.90172e-07 
1288 1213 0 8.59637e-05 
3152 979 0 1.66573e-05 
3152 2369 0 2.16587e-06 
979 2369 0 3.65094e-06 
979 3286 0 6.47105e-05 
3286 2369 0 2.06949e-05 
3286 2704 0 3.60651e-05 
4168 2012 0 4.85242e-05 
4168 2208 0 0.000100132 
4168 3814 0 5.15982e-05 
2704 2694 0 7.39409e-06 
1420 3814 0 2.92278e-05 
887 942 0 1.7883e-06 
2694 2348 0 2.38599e-06 
2179 3410 0 4.60841e-06 
2179 756 0 5.75387e-06 
2179 1703 0 1.937e-06 
4682 4601 0 1.21244e-05 
4187 1543 0 1.20604e-05 
3410 4329 0 1.30424e-05 
32 2514 0 1.70497e-06 
4601 756 0 1.27399e-05 
4601 216 0 3.84827e-05 
4751 1045 0 2.25229e-05 
2514 2650 0 2.2295e-05 
4329 4149 0 4.96507e-06 
4329 1812 0 2.34153e-05 
3069 756 0 6.91128e-06 
3069 3760 0 1.21118e-05 
1045 1758 0 3.03868e-06 
1045 4668 0 2.60276e-05 
1045 1780 0 2.72109e-05 
1758 725 0 1.09228e-05 
1443 4668 0 5.87923e-06 
1443 4501 0 1.11711e-05 
4668 1899 0 1.69508e-05 
1936 3001 0 4.55437e-06 
498 697 0 9.14347e-06 
1899 4130 0 1.01566e-05 
2940 4894 0 2.60141e-05 
4894 1677 0 4.20771e-05 
4894 2958 0 3.27402e-05 
4894 4328 0 1.16089e-05 
2958 2295 0 2.54985e-05 
2958 2348 0 1.6963e-05 
1709 3961 0 1.44641e-05 
1709 1461 0 9.95643e-06 
1709 2878 0 3.65577e-06 
2295 4786 0 3.44744e-06 
2483 2617 0 1.95118e-05 
3961 2142 0 1.54927e-05 
4232 1703 0 1.93449e-05 
2446 1209 0 3.36153e-05 
2446 4025 0 2.47737e-06 
1209 2650 0 5.40513e-06 
2109 1662 0 7.09866e-07 
2109 806 0 3.259e-06 
2650 2561 0 4.86258e-06 
756 1824 0 1.14726e-05 
1780 2033 0 2.71363e-05 
2448 1943 0 4.26761e-05 
1812 4501 0 1.53454e-05 
1812 1824 0 3.90617e-06 
1812 1465 0 2.63706e-05 
3760 1824 0 1.28283e-05 
3760 3665 0 2.52005e-05 
725 416 0 1.84017e-05 
4501 4108 0 8.41916e-06 
3326 2927 0 1.37989e-05 
3326 3665 0 7.95755e-06 
4108 4130 0 7.84655e-06 
4108 2125 0 1.90721e-05 
4130 2125 0 4.34387e-06 
3001 1873 0 7.3282e-06 
2878 2617 0 3.79007e-05 
2878 1232 0 3.64037e-05 
942 1461 0 5.22957e-06 
4786 3163 0 2.93329e-06 
4786 516 0 1.41811e-05 
4786 3843 0 6.89486e-05 
3163 1703 0 2.33859e-06 
2617 4025 0 4.61865e-05 
1622 2858 0 4.92049e-06 
1703 4179 0 3.70803e-05 
1703 216 0 2.23871e-05 
1662 216 0 3.13536e-05 
1662 4079 0 1.55323e-05 
1662 4590 0 2.7114e-05 
4179 4149 0 1.64549e-06 
4179 516 0 2.76997e-05 
216 889 0 2.18485e-05 
216 2662 0 3.07947e-05 
2033 2722 0 7.55558e-06 
2033 1077 0 2.34059e-05 
4149 1824 0 9.90992e-06 
806 1943 0 2.71105e-05 
806 1171 0 3.1933e-05 
1824 889 0 5.37254e-07 
2662 889 0 1.53644e-05 
2662 1943 0 2.65428e-05 
2662 4733 0 3.54914e-05 
580 3597 0 2.26549e-05 
2125 4733 0 2.22408e-05 
3665 264 0 2.6834e-05 
416 3597 0 7.75658e-06 
416 4417 0 8.95599e-06 
416 1873 0 1.1156e-05 
1873 792 0 3.11976e-06 
553 3615 0 5.32908e-06 
1798 4078 0 1.20177e-05 
1798 3843 0 3.56496e-06 
1461 3615 0 1.28742e-05 
1461 3717 0 1.12923e-06 
516 4837 0 1.85133e-05 
516 2622 0 8.91607e-06 
4079 4836 0 1.15661e-06 
4025 1171 0 5.45807e-05 
1077 2889 0 2.51076e-05 
1077 2373 0 5.92959e-06 
1077 1088 0 2.05746e-05 
1077 3992 0 1.52907e-05 
2889 1763 0 7.07522e-06 
1171 714 0 5.64435e-05 
889 4837 0 1.0499e-05 
889 109 0 2.19624e-05 
2583 2370 0 4.89084e-06 
1763 3503 0 8.96605e-06 
4733 4204 0 5.07099e-05 
4733 109 0 2.11033e-05 
1943 3597 0 2.9923e-05 
1943 3506 0 1.03473e-05 
1943 4173 0 2.27866e-05 
1465 3778 0 3.11659e-05 
1852 2121 0 3.60666e-06 
3597 4417 0 3.45894e-05 
2121 4204 0 2.30463e-05 
3615 3502 0 1.60353e-05 
4078 1029 0 3.45769e-05 
4836 4590 0 5.81274e-06 
4836 4775 0 7.64763e-07 
2622 822 0 3.38566e-05 
2622 3843 0 3.65873e-05 
2622 175 0 3.43548e-05 
822 4590 0 3.75778e-05 
822 958 0 1.01537e-05 
1088 3502 0 8.36785e-06 
1088 4775 0 1.48685e-05 
2373 1658 0 1.29038e-06 
4590 4775 0 3.15736e-05 
4590 4861 0 2.96152e-05 
4837 2874 0 2.7204e-05 
2370 486 0 1.01916e-05 
2874 1279 0 3.84811e-05 
714 3506 0 3.8602e-05 
714 3503 0 3.48772e-05 
714 45 0 1.12322e-05 
109 1005 0 1.43387e-05 
3503 3132 0 1.22999e-05 
3503 4864 0 1.6145e-05 
4173 696 0 1.71475e-05 
4173 4857 0 1.12493e-05 
3506 675 0 3.13151e-05 
2980 4204 0 3.27571e-05 
2980 3778 0 1.11281e-05 
2980 1279 0 4.68061e-06 
2980 1005 0 2.90676e-05 
675 792 0 2.68131e-05 
3132 792 0 7.81398e-06 
3778 4204 0 3.41722e-05 
4204 2154 0 3.83058e-05 
517 696 0 1.01551e-05 
517 1239 0 1.33223e-05 
792 1334 0 5.47702e-06 
3502 2376 0 1.90879e-05 
3773 2686 0 5.63462e-05 
175 1859 0 3.18737e-05 
958 4153 0 8.15344e-06 
4775 4153 0 1.51556e-05 
4775 45 0 2.53921e-05 
3992 1486 0 1.05156e-05 
3992 1646 0 7.03471e-06 
4861 1799 0 3.39021e-05 
45 4457 0 2.86786e-05 
45 737 0 1.19912e-05 
45 4124 0 3.80665e-06 
486 4857 0 8.46793e-07 
486 1097 0 9.33853e-06 
1486 4457 0 1.66255e-05 
1279 4465 0 3.67e-05 
1005 2572 0 1.46405e-05 
1005 4465 0 1.33161e-06 
1005 2062 0 1.65902e-05 
4800 4457 0 3.70573e-06 
4800 824 0 3.23251e-06 
824 4864 0 1.22798e-05 
824 1334 0 7.51775e-06 
824 1766 0 5.92257e-06 
2154 2547 0 2.47243e-05 
1239 606 0 8.02041e-06 
1963 2686 0 1.79174e-05 
2376 1646 0 1.41306e-05 
2376 2184 0 7.81078e-06 
737 2184 0 8.66648e-06 
737 1115 0 8.03706e-06 
1646 4556 0 1.9135e-05 
1859 1354 0 3.34762e-05 
1799 3399 0 5.54257e-06 
1799 3900 0 2.50297e-05 
1799 739 0 3.02449e-05 
4457 4864 0 1.12905e-05 
4457 1339 0 8.45381e-06 
4457 202 0 1.41435e-05 
3385 3900 0 3.99153e-06 
4864 1101 0 2.34192e-05 
533 3900 0 3.70905e-06 
4465 2301 0 4.63088e-05 
4465 1354 0 3.01134e-05 
4465 2485 0 2.18213e-05 
2572 606 0 1.74573e-05 
2572 4125 0 8.02643e-06 
1766 1302 0 5.9879e-06 
1766 4140 0 1.09901e-05 
1766 995 0 1.31286e-05 
3058 4504 0 9.48263e-06 
3226 735 0 2.35954e-05 
3582 4069 0 3.14683e-06 
4069 861 0 1.59087e-06 
2184 3046 0 1.16082e-05 
2184 1886 0 7.42532e-06 
4316 4902 0 7.10331e-06 
589 4804 0 1.00219e-05 
3399 2520 0 2.12111e-06 
3399 861 0 7.51673e-06 
4556 4124 0 1.89379e-05 
4556 259 0 2.0132e-05 
4556 3536 0 1.32055e-05 
4124 739 0 1.82317e-05 
1354 115 0 1.24682e-05 
1354 2485 0 1.04178e-05 
3900 4677 0 1.00942e-05 
3900 1442 0 2.06638e-05 
739 3793 0 2.62057e-05 
739 202 0 1.13261e-05 
202 1325 0 4.37411e-06 
2062 2547 0 1.11078e-05 
2062 1442 0 1.37589e-06 
2062 4441 0 1.81962e-05 
4125 3769 0 9.98783e-06 
4125 4441 0 1.39691e-05 
3793 4140 0 2.62029e-05 
2547 1695 0 4.27937e-06 
2547 4441 0 1.44726e-05 
4902 3185 0 1.2414e-05 
4902 4003 0 9.51937e-06 
1115 1160 0 2.08255e-06 
4677 1957 0 1.79807e-05 
1957 4065 0 6.45183e-06 
1957 1160 0 1.45414e-05 
1957 4339 0 8.96751e-06 
3536 1160 0 1.7489e-05 
3536 917 0 8.98931e-06 
3536 2090 0 1.39766e-05 
1442 4441 0 1.25907e-05 
3769 2740 0 8.26353e-06 
2485 1695 0 3.0629e-05 
2485 473 0 2.74441e-05 
4441 2005 0 8.06872e-06 
4441 4231 0 2.45257e-05 
995 2233 0 2.1472e-05 
995 4747 0 5.45887e-06 
3185 3046 0 3.34032e-05 
3046 1860 0 1.22217e-05 
4003 4905 0 7.34659e-07 
4003 2736 0 1.13082e-05 
3484 3339 0 7.37255e-06 
4905 3284 0 8.62916e-06 
1299 187 0 2.69659e-05 
1908 187 0 1.07843e-05 
1908 2287 0 3.27e-06 
1908 2207 0 6.48022e-06 
1160 987 0 7.38357e-06 
1160 4883 0 1.33349e-05 
917 2484 0 5.99006e-06 
473 187 0 1.67818e-05 
473 2207 0 1.90192e-05 
187 3631 0 2.8144e-05 
987 2740 0 1.27282e-05 
987 2090 0 1.00321e-06 
681 2090 0 3.97251e-06 
681 4747 0 1.13307e-05 
2740 2233 0 7.5682e-06 
2740 4758 0 8.71788e-06 
4747 3746 0 8.81039e-06 
755 3703 0 3.83225e-06 
3175 503 0 1.14734e-05 
3703 1769 0 3.84157e-06 
1769 922 0 6.9491e-06 
2406 1860 0 2.4717e-05 
1860 488 0 2.9235e-06 
1860 1910 0 2.09538e-05 
2627 503 0 4.63273e-06 
3211 3339 0 4.29322e-06 
3211 3184 0 2.52245e-06 
3211 3439 0 3.65245e-06 
3339 2144 0 2.17112e-05 
3339 1022 0 2.02047e-06 
3339 2276 0 1.51845e-05 
3284 4883 0 9.87215e-06 
3852 3787 0 8.19205e-07 
2144 4339 0 1.38124e-05 
2144 2287 0 1.79785e-05 
2144 1909 0 2.92314e-06 
1909 4339 0 1.25502e-05 
1909 4883 0 8.04266e-06 
4883 3547 0 1.41019e-05 
4883 3260 0 1.27654e-05 
2207 2041 0 3.08039e-06 
2207 1982 0 1.43344e-05 
4339 3631 0 1.32755e-05 
4339 768 0 1.63383e-05 
2090 3547 0 2.29596e-06 
2005 2041 0 8.99022e-07 
1191 638 0 1.00269e-06 
638 334 0 1.41931e-06 
638 1318 0 2.58063e-06 
2041 1682 0 1.08159e-05 
1682 4231 0 4.31456e-06 
4231 2834 0 1.39896e-05 
4758 2713 0 1.35741e-06 
2736 4305 0 1.26843e-05 
3184 3111 0 4.87747e-06 
3915 1910 0 2.36022e-06 
3915 459 0 1.55179e-06 
3915 3260 0 2.24912e-06 
459 2939 0 1.24212e-06 
2276 1910 0 6.9845e-06 
2276 1736 0 2.74066e-05 
2287 3631 0 1.41068e-05 
2287 3177 0 2.04196e-05 
3631 768 0 9.69102e-06 
3631 3899 0 3.32711e-05 
3631 2506 0 5.46303e-06 
4378 768 0 5.7722e-06 
4378 1736 0 7.69575e-06 
3547 3642 0 1.11992e-05 
3547 267 0 8.17428e-06 
3547 3260 0 5.46899e-06 
3547 3019 0 1.05961e-05 
3642 2594 0 1.2093e-05 
3642 1318 0 6.89039e-06 
3642 3019 0 7.34018e-06 
768 2834 0 1.79263e-05 
3899 2312 0 8.04644e-06 
3899 1095 0 2.07192e-05 
3899 1032 0 8.56803e-06 
3899 4307 0 1.85948e-05 
2713 2834 0 8.74781e-06 
2713 267 0 5.54312e-06 
1318 3746 0 8.75562e-06 
1318 267 0 1.94926e-06 
1318 2944 0 7.23265e-06 
1095 2834 0 1.28777e-05 
1095 1927 0 8.48486e-06 
1199 267 0 1.19588e-05 
2970 503 0 6.17382e-06 
3967 922 0 6.96126e-07 
503 2939 0 8.04361e-06 
922 1022 0 5.18721e-06 
1022 4561 0 8.26973e-06 
1910 1398 0 2.24441e-05 
3177 1010 0 1.9004e-05 
3177 3183 0 1.79884e-06 
1982 2312 0 2.16249e-06 
1982 2506 0 4.48998e-07 
1982 2760 0 1.2064e-05 
1736 3260 0 1.07916e-06 
1736 1857 0 1.02179e-05 
1736 2699 0 2.52073e-05 
1736 1340 0 1.66276e-05 
3260 1398 0 5.75623e-06 
3260 2364 0 1.31515e-05 
2312 499 0 1.90799e-06 
1032 1421 0 3.88067e-06 
1032 4307 0 5.55523e-06 
1032 4131 0 1.24242e-05 
267 4618 0 9.29562e-06 
1927 4307 0 5.88822e-06 
1306 3470 0 3.83927e-06 
1131 1528 0 6.41433e-07 
1685 2907 0 1.14608e-05 
1685 1655 0 3.59908e-06 
1685 524 0 1.36539e-05 
793 4305 0 5.53686e-06 
1655 3865 0 1.30287e-05 
55 2414 0 4.78875e-06 
4305 4805 0 7.29609e-06 
4305 2229 0 1.15454e-05 
1010 1696 0 7.97404e-06 
4561 1398 0 3.55581e-06 
4561 2414 0 7.52025e-06 
4561 3786 0 1.0811e-05 
1398 4805 0 3.63695e-06 
1398 2735 0 8.08856e-06 
1398 2799 0 1.22215e-05 
4805 2229 0 2.20495e-06 
4805 1450 0 5.37509e-06 
3183 743 0 7.57247e-06 
3183 3685 0 2.9551e-06 
1857 2414 0 1.49967e-05 
3254 4131 0 1.10064e-06 
2699 3019 0 1.00758e-05 
2699 2364 0 1.06452e-05 
2699 4618 0 2.04171e-05 
2699 1551 0 3.46865e-06 
3019 2866 0 3.32068e-06 
3019 2944 0 1.88024e-05 
3019 2364 0 1.24049e-05 
3739 3685 0 5.9643e-06 
4307 4688 0 7.21753e-06 
4307 700 0 1.24452e-05 
4307 1550 0 1.33452e-05 
1421 1551 0 1.41459e-06 
4618 4547 0 1.57983e-05 
4618 3238 0 9.42226e-06 
4618 2302 0 8.00182e-06 
2944 523 0 6.53263e-06 
3154 100 0 1.30041e-06 
3865 2775 0 3.15693e-06 
3848 2735 0 3.01342e-06 
3848 3387 0 9.94147e-08 
2229 1752 0 1.38805e-05 
2229 2735 0 7.29975e-06 
2229 1808 0 1.08412e-05 
2414 1696 0 3.9804e-06 
2414 171 0 2.02067e-05 
2735 2799 0 4.44344e-06 
2735 3619 0 4.30746e-06 
2799 3786 0 1.08335e-05 
2799 4393 0 5.60165e-06 
2799 1566 0 1.10991e-05 
2799 378 0 2.59497e-06 
1450 1053 0 9.57497e-06 
1340 1551 0 6.08098e-06 
1340 3492 0 8.07863e-06 
1340 1618 0 1.28275e-05 
2364 4393 0 2.06252e-05 
2364 4548 0 7.05613e-06 
2760 743 0 3.31157e-06 
2760 2855 0 1.14308e-05 
3685 3492 0 5.18483e-06 
4548 15 0 4.68858e-06 
4548 3238 0 3.2602e-06 
4548 226 0 5.02262e-07 
4548 3096 0 7.71752e-06 
1551 1566 0 1.98273e-06 
1551 3511 0 2.87934e-06 
1551 3675 0 2.06962e-06 
3238 1566 0 3.16219e-06 
3238 2820 0 3.11e-06 
700 4575 0 1.25292e-05 
4131 1382 0 7.82688e-06 
1550 4433 0 1.34907e-05 
4688 1482 0 4.39784e-06 
4688 3465 0 3.89862e-06 
3511 1725 0 5.28986e-06 
3511 3465 0 1.60214e-06 
523 1725 0 5.43995e-06 
523 2820 0 2.82377e-06 
100 691 0 4.21584e-06 
100 3378 0 9.31247e-06 
1911 4621 0 1.70308e-05 
524 3847 0 1.58559e-05 
4005 3847 0 3.74432e-06 
691 2390 0 1.88062e-06 
1667 3387 0 2.97031e-06 
1667 1140 0 1.22035e-05 
4801 1011 0 6.03625e-06 
4801 1972 0 4.86439e-06 
2390 3619 0 2.14979e-06 
3387 143 0 2.30121e-06 
3387 3707 0 2.72462e-06 
1011 1696 0 9.43618e-06 
1011 3859 0 1.23427e-06 
3619 4087 0 1.13896e-07 
3619 2780 0 3.83206e-06 
1808 378 0 5.61005e-06 
1808 278 0 4.1853e-06 
1696 743 0 9.568e-06 
1696 2293 0 1.0252e-05 
3786 3492 0 7.62935e-06 
3786 2440 0 1.01571e-05 
743 2855 0 6.80821e-06 
4393 2715 0 9.89732e-06 
4393 1217 0 1.83932e-05 
3492 150 0 2.63453e-06 
3492 3675 0 3.74869e-07 
3492 4806 0 9.4086e-06 
2855 4575 0 1.03524e-05 
2855 3979 0 2.34096e-06 
3675 2813 0 3.75603e-06 
1566 3596 0 8.43734e-06 
4575 3603 0 7.13437e-06 
2302 1725 0 1.30114e-05 
2302 554 0 8.07603e-06 
2302 2820 0 4.16334e-06 
2302 3596 0 9.57596e-06 
2302 4082 0 2.31684e-06 
2820 4594 0 4.29358e-06 
1482 4433 0 1.65015e-06 
1482 996 0 3.10668e-06 
3465 1382 0 4.2039e-06 
3847 1250 0 1.05307e-05 
4022 3707 0 2.14127e-06 
1972 1250 0 3.10344e-06 
3707 1669 0 7.49406e-07 
2775 2360 0 1.4815e-05 
1891 171 0 1.90595e-05 
1891 3200 0 1.49767e-05 
1891 4285 0 1.03814e-05 
1891 2780 0 5.87542e-06 
171 1867 0 2.0553e-05 
2440 2993 0 3.92752e-06 
378 1289 0 4.0544e-06 
1217 772 0 8.92777e-06 
1217 3372 0 1.1674e-05 
1217 664 0 9.63191e-06 
69 3979 0 8.04397e-07 
1618 2985 0 1.34172e-05 
1047 3096 0 2.777e-07 
1047 2425 0 4.54338e-06 
3096 2425 0 8.1327e-06 
3596 2425 0 3.90833e-06 
3596 391 0 9.86229e-06 
1382 554 0 1.16829e-05 
1382 996 0 1.57357e-05 
554 1417 0 6.35318e-06 
352 3378 0 2.26631e-05 
3561 4062 0 5.61688e-06 
1250 2429 0 3.44558e-06 
1669 4647 0 3.11858e-06 
1669 3051 0 1.86849e-06 
2360 415 0 6.14893e-06 
287 3892 0 3.62431e-06 
3859 74 0 2.59901e-06 
2780 772 0 3.02102e-06 
2780 4671 0 5.10047e-06 
772 3051 0 5.34292e-06 
772 3390 0 8.7075e-06 
1867 4806 0 3.38371e-06 
1867 3404 0 1.674e-05 
1867 1945 0 1.16937e-05 
4806 2813 0 6.62507e-06 
4806 2993 0 8.49318e-06 
4806 2985 0 2.51027e-06 
1289 2985 0 5.71833e-06 
1289 2608 0 5.04574e-06 
2985 1417 0 2.32272e-06 
2985 2517 0 3.88282e-06 
2985 2844 0 6.37884e-06 
2985 2909 0 7.55018e-06 
2985 4525 0 5.2475e-06 
3979 3995 0 1.86274e-06 
2813 3995 0 3.8037e-06 
2813 2844 0 2.87158e-06 
1417 391 0 6.61265e-06 
2425 664 0 8.30846e-06 
2425 391 0 9.90248e-06 
2425 323 0 6.25495e-06 
2425 1996 0 8.93681e-06 
2425 1362 0 5.63802e-06 
3995 996 0 6.09539e-06 
4594 3391 0 4.65665e-06 
4594 2251 0 2.79963e-06 
3603 996 0 1.76569e-05 
996 1775 0 1.92567e-05 
896 166 0 3.2256e-06 
3277 4062 0 3.94831e-07 
4285 2993 0 3.7116e-06 
4285 3441 0 8.27188e-06 
4285 3571 0 7.16246e-06 
3051 3441 0 6.38057e-06 
3390 3372 0 9.059e-06 
3390 3409 0 6.36073e-06 
3390 94 0 1.15915e-05 
3404 337 0 7.44188e-06 
2993 495 0 5.60587e-06 
3372 292 0 1.80719e-06 
3372 614 0 1.14585e-05 
664 2909 0 2.71125e-06 
664 3209 0 5.8535e-06 
2844 4274 0 3.44372e-06 
323 1362 0 4.31197e-06 
515 1732 0 7.52732e-06 
515 2107 0 2.61552e-06 
391 2006 0 1.44022e-05 
170 4274 0 2.29767e-06 
1775 2107 0 6.46204e-06 
1775 4372 0 6.33957e-06 
1819 2251 0 8.55564e-07 
3660 2129 0 3.0637e-06 
2129 1402 0 1.04955e-05 
2129 1967 0 7.22927e-06 
1267 369 0 7.9405e-06 
4452 1402 0 4.84014e-06 
4452 2711 0 7.05744e-07 
4452 3571 0 4.24075e-06 
4062 3409 0 5.94361e-06 
4062 369 0 3.39227e-06 
3571 710 0 6.51312e-06 
3441 107 0 4.73108e-06 
3441 1588 0 1.06949e-05 
3409 2942 0 7.35291e-06 
3409 2246 0 7.59054e-06 
3892 2796 0 1.04117e-05 
614 292 0 1.77851e-06 
614 3209 0 5.55927e-06 
495 4671 0 7.06894e-06 
495 561 0 7.93447e-06 
4671 3113 0 5.68577e-07 
4671 1810 0 5.25787e-06 
561 1732 0 7.3584e-06 
3209 1362 0 1.40966e-06 
3209 3060 0 8.12675e-06 
1362 1996 0 5.57679e-06 
1732 4274 0 3.53018e-06 
4274 2503 0 4.4861e-06 
4274 3189 0 7.07938e-07 
1367 2006 0 2.35579e-06 
1367 487 0 3.04072e-06 
1996 2251 0 5.24103e-06 
2107 914 0 5.08067e-06 
4508 3189 0 1.75285e-06 
2006 362 0 1.42454e-05 
2006 230 0 5.72599e-06 
3695 2852 0 1.30855e-06 
4372 3189 0 5.30256e-06 
1192 1099 0 9.85598e-06 
957 1661 0 2.62642e-05 
2680 536 0 2.86215e-06 
1434 1402 0 2.26374e-06 
2000 68 0 5.45696e-06 
2000 2076 0 5.73134e-08 
1402 4322 0 7.64515e-06 
369 2942 0 1.46603e-05 
369 3057 0 1.39121e-05 
2408 415 0 4.333e-06 
2408 3939 0 3.40212e-06 
107 4380 0 1.35755e-06 
3057 2836 0 1.87806e-05 
2942 2732 0 1.23854e-05 
2942 94 0 1.49539e-05 
2942 1437 0 8.3987e-06 
2711 710 0 4.28366e-06 
2711 1341 0 4.35508e-06 
4051 74 0 2.37934e-06 
4051 3256 0 1.36712e-06 
1588 2246 0 4.24492e-06 
1588 1810 0 2.1434e-06 
1588 4570 0 8.83677e-06 
1588 2428 0 8.87271e-06 
2246 305 0 1.57607e-06 
2246 2089 0 5.11542e-06 
2796 245 0 1.72418e-05 
1810 4386 0 3.42243e-06 
1810 2575 0 3.1062e-06 
4386 3390 0 1.4273e-06 
4386 2608 0 5.03614e-06 
4386 2607 0 6.80489e-06 
3256 1945 0 9.65458e-06 
3256 337 0 4.20369e-06 
3256 561 0 1.98647e-06 
3256 367 0 5.62e-06 
3256 2271 0 7.18405e-06 
2575 3252 0 5.5639e-06 
2575 2865 0 2.90996e-06 
2575 1641 0 4.76939e-06 
3252 2517 0 2.43758e-06 
3252 1362 0 7.39634e-06 
3252 4049 0 1.66233e-06 
487 1641 0 3.93149e-06 
914 4496 0 5.06344e-06 
914 2503 0 6.66956e-06 
914 2852 0 8.57929e-06 
914 3189 0 3.50454e-06 
914 192 0 1.87411e-06 
3125 1996 0 7.64626e-06 
3125 2251 0 3.78869e-06 
3125 1155 0 1.06197e-05 
3189 3196 0 5.34519e-06 
230 2971 0 6.73063e-06 
230 3593 0 1.60658e-06 
230 1155 0 9.8289e-06 
362 2917 0 7.75838e-06 
2971 3215 0 4.8828e-06 
3215 2251 0 4.12722e-06 
3215 1693 0 5.08514e-06 
2541 1661 0 5.533e-06 
1661 2847 0 1.83577e-05 
1661 4633 0 1.18099e-05 
1661 899 0 3.58475e-05 
1197 2203 0 6.26483e-07 
2203 2285 0 2.85652e-07 
188 1935 0 1.47691e-05 
3939 508 0 1.10331e-05 
3939 3055 0 1.05087e-05 
1678 710 0 6.43429e-06 
2836 710 0 8.98469e-06 
2836 4652 0 2.50314e-06 
2836 1922 0 6.76479e-06 
1341 3055 0 3.44533e-06 
710 2688 0 4.41267e-06 
710 1922 0 3.72718e-06 
305 2068 0 3.99174e-06 
4570 367 0 9.67334e-06 
4570 770 0 6.26532e-06 
4570 2428 0 1.95494e-06 
2607 1168 0 8.34199e-06 
367 3327 0 9.46242e-06 
2865 495 0 4.34977e-06 
2865 3875 0 4.93221e-06 
795 3060 0 5.82666e-06 
795 4033 0 3.57407e-06 
795 2630 0 6.91613e-07 
3060 2857 0 1.38746e-05 
3060 4039 0 1.31566e-05 
4496 2271 0 5.62779e-06 
4049 2630 0 2.68089e-06 
4226 1242 0 4.8402e-06 
2503 3593 0 3.71796e-06 
2503 2043 0 6.90379e-06 
1155 1242 0 6.57971e-06 
1155 1915 0 1.37633e-05 
3593 1915 0 2.85029e-06 
3593 3941 0 1.46676e-06 
3658 4186 0 7.00281e-07 
1499 1601 0 6.35781e-06 
2917 3941 0 8.23796e-08 
2917 4227 0 6.61117e-06 
1937 588 0 1.18173e-05 
769 2285 0 9.93127e-06 
2285 508 0 1.11516e-05 
2285 588 0 8.09065e-06 
2285 684 0 1.24933e-05 
3520 3103 0 6.10181e-06 
899 1924 0 2.8899e-05 
899 1935 0 2.81329e-05 
899 3982 0 2.22855e-05 
1924 4652 0 2.43422e-05 
1924 1549 0 1.20306e-05 
508 3984 0 4.48764e-06 
508 1152 0 3.42819e-06 
1935 1301 0 7.59169e-06 
1935 4046 0 3.2418e-06 
1935 3419 0 2.37081e-05 
418 684 0 4.34831e-06 
1922 3935 0 3.27291e-06 
2068 3871 0 3.43065e-06 
3055 3327 0 1.01633e-05 
2688 3935 0 1.53626e-06 
2089 2428 0 4.61467e-06 
2089 2018 0 3.40411e-06 
3327 245 0 8.89949e-06 
3327 3118 0 7.76865e-06 
2428 4033 0 1.15397e-06 
2428 4286 0 9.64815e-06 
1168 2018 0 8.26678e-06 
1168 3519 0 9.64647e-06 
1168 302 0 8.09806e-06 
770 4033 0 1.72712e-06 
770 2630 0 5.73062e-06 
3519 2857 0 1.09246e-05 
3519 2003 0 2.40961e-06 
3519 2449 0 1.10679e-06 
245 4359 0 1.91615e-05 
2271 2259 0 5.10539e-06 
2271 4745 0 5.7268e-06 
3875 2642 0 1.72206e-06 
3875 4210 0 6.35506e-06 
2630 1641 0 5.1368e-06 
2630 1537 0 7.06273e-06 
61 4039 0 7.12876e-06 
61 1242 0 1.78401e-06 
61 2449 0 9.31061e-06 
1641 2043 0 6.59618e-06 
2043 4210 0 9.79625e-06 
2043 3784 0 5.57385e-06 
1915 1073 0 1.47331e-05 
1242 740 0 6.94947e-06 
1601 3341 0 6.85521e-06 
1601 2269 0 1.02292e-06 
3196 3941 0 1.17783e-08 
3196 4227 0 6.23549e-06 
3196 3784 0 8.74145e-06 
3941 4186 0 8.18387e-07 
3941 2805 0 2.92441e-06 
588 4691 0 1.66542e-06 
588 73 0 1.38958e-05 
684 1549 0 9.66341e-06 
1549 3419 0 2.39173e-06 
3419 4229 0 1.17658e-05 
3419 2032 0 1.30207e-05 
4046 467 0 6.26704e-06 
4046 3890 0 8.92812e-06 
3984 3935 0 1.51292e-06 
3871 4388 0 6.58736e-07 
3935 3218 0 3.11315e-06 
3851 2018 0 2.74962e-06 
3851 4286 0 6.09974e-06 
4286 4229 0 2.91296e-06 
4286 4695 0 8.46607e-06 
4286 631 0 8.5875e-06 
2018 2447 0 5.2428e-06 
2642 213 0 5.09329e-07 
2642 1511 0 2.26372e-06 
4033 3841 0 5.69495e-07 
2613 2449 0 5.86194e-06 
2259 3118 0 2.78647e-06 
2259 647 0 3.33264e-07 
2449 355 0 5.84012e-06 
2449 324 0 5.47386e-06 
4359 2352 0 9.15335e-06 
4359 3497 0 1.15057e-05 
4039 1537 0 1.49878e-05 
4745 88 0 5.68751e-06 
1073 4210 0 1.31686e-05 
1073 2805 0 5.99797e-06 
1073 1344 0 5.60593e-06 
740 1537 0 5.75869e-06 
740 3176 0 6.4134e-06 
3784 2805 0 3.21543e-06 
3784 88 0 9.42372e-06 
2805 2304 0 5.50793e-06 
2805 1169 0 3.94711e-06 
3653 805 0 9.8984e-06 
3653 1061 0 1.49886e-06 
1783 4691 0 1.21526e-06 
1783 3754 0 2.21943e-06 
3754 4679 0 5.29142e-06 
618 1152 0 4.91961e-06 
4679 207 0 5.47069e-06 
1152 2396 0 6.45084e-06 
2396 3218 0 5.47941e-06 
2396 1870 0 8.29707e-06 
3890 4388 0 8.89115e-06 
3890 207 0 1.06755e-05 
3890 4331 0 5.77453e-06 
3045 4229 0 9.78059e-06 
3045 1870 0 1.03789e-05 
4229 4283 0 2.60543e-06 
3218 1781 0 2.17542e-06 
3218 1145 0 3.52583e-06 
4695 3592 0 7.92943e-06 
4695 1393 0 3.74562e-06 
2032 2447 0 1.20271e-06 
2032 152 0 6.67124e-06 
1781 3592 0 2.5555e-06 
2447 3841 0 1.79458e-06 
2447 631 0 3.30123e-06 
3781 302 0 2.7253e-06 
3781 2571 0 7.15305e-07 
1511 3841 0 2.11306e-06 
1511 3592 0 3.73016e-06 
3841 1973 0 2.82013e-08 
302 674 0 7.4945e-06 
3118 1675 0 6.83813e-06 
647 4210 0 9.71545e-06 
647 3362 0 4.43022e-06 
647 2352 0 4.91547e-06 
647 2137 0 6.5834e-06 
1537 1344 0 1.03288e-05 
1537 3061 0 1.40439e-05 
3497 3341 0 4.97752e-06 
3497 88 0 4.17654e-06 
3497 1086 0 6.65741e-06 
4210 3431 0 1.34646e-05 
88 1488 0 1.03174e-05 
4404 3176 0 3.88967e-06 
4404 4669 0 1.4907e-07 
1061 847 0 2.07891e-06 
2703 1020 0 4.31446e-06 
4236 1137 0 4.98051e-06 
3043 1144 0 3.5792e-06 
3885 4379 0 1.28893e-06 
457 538 0 2.66985e-07 
457 3543 0 8.37327e-07 
457 4379 0 1.43246e-06 
538 4331 0 6.83479e-07 
207 1254 0 4.58405e-06 
207 4132 0 5.67478e-06 
4331 4283 0 2.6664e-06 
4331 3375 0 9.7667e-07 
1870 4379 0 1.42745e-06 
1870 2217 0 8.05646e-06 
4283 631 0 2.2102e-06 
4283 1036 0 3.22743e-06 
1145 3592 0 6.95535e-06 
1145 2217 0 2.86648e-06 
1145 3498 0 6.88876e-06 
3592 4077 0 4.25602e-06 
631 2822 0 8.64271e-06 
2571 152 0 3.10381e-06 
1675 3362 0 4.54002e-06 
1675 4077 0 2.37774e-06 
1675 4170 0 6.09301e-06 
674 355 0 2.68232e-06 
674 3921 0 3.94648e-06 
674 3089 0 5.83898e-06 
3061 1344 0 5.29161e-06 
3061 4002 0 1.32415e-05 
3061 3296 0 2.91324e-06 
3061 1947 0 4.18191e-06 
3431 1344 0 1.42006e-05 
3431 4406 0 1.98058e-05 
3431 2058 0 7.2042e-06 
1344 3176 0 5.25358e-06 
1344 4495 0 2.12421e-07 
355 4721 0 1.25426e-06 
2304 4666 0 5.5608e-06 
2304 3970 0 1.51393e-06 
3176 4495 0 8.65043e-06 
3176 865 0 1.88177e-06 
3729 1560 0 8.18305e-08 
346 3970 0 1.86476e-06 
4438 4299 0 7.04482e-07 
1020 3543 0 1.68006e-06 
1020 2072 0 7.20351e-06 
1020 1138 0 5.25243e-06 
1137 1623 0 6.99291e-06 
1137 2273 0 7.50948e-06 
4132 3728 0 1.601e-06 
4379 3187 0 1.8656e-06 
1036 1393 0 2.02115e-06 
1036 3287 0 2.47049e-06 
1036 1229 0 1.28681e-06 
1393 2217 0 1.0463e-07 
4177 2934 0 6.92315e-06 
4177 3679 0 2.46489e-07 
2217 3187 0 3.11763e-06 
2217 2951 0 6.69514e-06 
152 3921 0 2.49082e-06 
152 3375 0 5.41892e-06 
152 3364 0 4.9696e-06 
224 2167 0 8.17963e-07 
4077 2951 0 3.44415e-06 
4077 1545 0 2.72213e-06 
2167 3921 0 4.15276e-06 
2167 1230 0 4.70773e-06 
2167 2837 0 3.37008e-07 
3921 3364 0 5.60902e-06 
1230 4406 0 4.84847e-06 
4170 4406 0 1.82714e-05 
4170 3374 0 2.29981e-06 
4170 4456 0 2.23757e-06 
4406 1545 0 1.06513e-05 