ITEM: TIMESTEP
20000000
ITEM: NUMBER OF ENTRIES
4156
ITEM: BOX BOUNDS ff ff ff
-0.01 0.45
-0.15 0.15
-0.08 0.1
ITEM: ENTRIES c_ppc[1] c_ppc[2] c_ppc[3] c_ppc[4] 
1353 6002 0 3.2376e-06 
241 471 0 6.08125e-06 
1989 2065 0 1.09154e-06 
6845 160 0 0.000285499 
160 1152 0 0.000480777 
1152 6095 0 0.000621738 
3653 4925 0 0.000863023 
534 977 0 0.000504099 
534 6563 0 9.31537e-06 
4655 7080 0 4.01807e-05 
15 13 0 0.000296412 
6740 6704 0 1.47832e-05 
4005 4134 0 0.000315995 
3355 7949 0 2.53706e-05 
35 7825 0 8.03192e-06 
4239 6406 0 4.80956e-05 
6679 865 0 7.73822e-06 
6679 7278 0 1.11517e-05 
6679 7935 0 1.26979e-06 
4438 865 0 1.03776e-05 
4438 2932 0 1.06256e-05 
5857 4506 0 1.71953e-06 
2837 2099 0 7.77267e-06 
6250 5503 0 0.000219181 
5399 3879 0 1.32511e-06 
6147 2131 0 2.29568e-06 
7042 1637 0 5.39537e-06 
7042 2131 0 6.97439e-06 
7042 1884 0 8.61387e-06 
1884 2033 0 7.53095e-06 
3879 1737 0 3.21819e-06 
5790 2131 0 1.36857e-06 
6599 1737 0 2.13252e-06 
6599 4414 0 1.53717e-06 
666 3199 0 3.05294e-06 
3103 7107 0 5.24149e-06 
871 3395 0 1.84577e-06 
7323 278 0 2.8065e-06 
5912 3199 0 4.94387e-06 
5912 5343 0 3.0177e-06 
3305 5343 0 2.28447e-06 
2506 1679 0 2.32726e-06 
1679 2450 0 3.20575e-06 
1679 2730 0 2.57058e-06 
278 6332 0 9.23326e-06 
3178 88 0 1.39351e-06 
88 4159 0 1.10842e-06 
7064 6475 0 3.71777e-06 
4787 3617 0 2.75333e-06 
3689 2730 0 8.83392e-06 
3689 4458 0 1.76294e-06 
4424 3395 0 3.23425e-07 
3395 5343 0 8.80587e-07 
5232 3823 0 6.4215e-07 
5232 4458 0 2.32887e-06 
1066 6666 0 4.9374e-06 
1066 6033 0 1.29384e-06 
5343 730 0 6.70836e-07 
3823 6643 0 2.68354e-07 
6346 3605 0 1.68921e-06 
6332 4499 0 4.71572e-06 
6332 1401 0 3.39122e-06 
6332 3828 0 6.47954e-06 
3617 4458 0 8.8069e-07 
3617 4574 0 2.87043e-06 
962 4458 0 2.06592e-06 
7011 663 0 1.79119e-07 
4394 4574 0 9.08862e-07 
4394 3905 0 7.49216e-06 
4574 3905 0 3.60782e-06 
6588 4034 0 5.85713e-07 
7113 3905 0 7.21702e-06 
7113 5795 0 6.40659e-06 
6033 2358 0 2.91854e-07 
5589 1652 0 2.42516e-07 
1083 6457 0 2.11305e-05 
7485 4352 0 1.91903e-05 
7485 6427 0 1.29585e-05 
7485 1594 0 7.35161e-06 
6663 773 0 2.23527e-06 
5123 4367 0 1.25696e-05 
4367 2718 0 4.03668e-06 
6427 7433 0 1.60821e-05 
7433 2376 0 1.90466e-05 
2718 3051 0 9.63878e-06 
2718 7873 0 9.38619e-06 
2718 3548 0 5.79281e-06 
2718 6902 0 6.94725e-06 
2376 7873 0 1.58983e-05 
3548 4187 0 1.5454e-05 
3548 2142 0 6.2212e-06 
4187 5061 0 1.79921e-05 
1515 6243 0 3.70523e-06 
5538 7873 0 5.43356e-06 
5538 1018 0 4.02604e-06 
1018 3453 0 3.73721e-06 
1018 7348 0 7.89562e-06 
4472 7860 0 1.75093e-05 
4472 195 0 1.45082e-05 
195 5757 0 9.1078e-06 
195 1641 0 1.60965e-05 
195 5849 0 1.71874e-05 
5061 2601 0 6.09884e-06 
5061 2080 0 1.34043e-05 
2080 6811 0 1.10988e-05 
2080 2140 0 2.1729e-06 
2080 1478 0 4.49607e-06 
1478 2601 0 4.76742e-06 
1478 5322 0 4.48936e-06 
1468 2601 0 1.79165e-06 
1468 3968 0 4.76246e-06 
7348 6243 0 1.25378e-05 
7348 637 0 1.09836e-05 
1641 3615 0 1.00821e-06 
1641 637 0 1.59087e-05 
6811 2140 0 6.81348e-06 
6811 6368 0 1.3314e-05 
7078 3968 0 1.01577e-05 
7078 7562 0 1.03962e-05 
3968 6243 0 7.93111e-06 
3968 4853 0 4.72336e-06 
3622 637 0 1.31992e-05 
3622 4853 0 1.44725e-05 
3206 6460 0 2.3595e-06 
3206 5655 0 5.62592e-07 
5655 5229 0 2.84167e-05 
5655 3142 0 2.31415e-05 
5655 4336 0 2.37534e-05 
6368 7128 0 7.088e-07 
6368 6942 0 2.09404e-05 
6942 7562 0 1.59678e-05 
6942 1365 0 2.02814e-05 
7562 5322 0 5.20381e-06 
7562 1816 0 9.68871e-06 
7562 1476 0 1.39331e-05 
7562 267 0 3.60764e-06 
267 7503 0 3.7636e-06 
2792 4853 0 1.44034e-05 
2792 1946 0 1.70163e-05 
3697 6645 0 2.5477e-06 
3697 7057 0 4.56063e-06 
7057 4336 0 2.35611e-05 
6340 3919 0 2.47399e-05 
6340 1135 0 1.37568e-06 
3919 3142 0 2.60068e-05 
3919 1135 0 6.80271e-06 
2414 4973 0 3.32061e-05 
3284 102 0 1.17409e-06 
3284 2787 0 9.85498e-08 
6108 7269 0 4.10572e-06 
7906 2898 0 3.22227e-05 
2005 4352 0 4.66504e-05 
4555 1324 0 2.60288e-07 
4352 1594 0 3.76868e-05 
6321 7830 0 1.61344e-06 
6321 7228 0 7.2444e-06 
701 2628 0 8.13333e-06 
701 6238 0 8.24535e-06 
701 3768 0 1.37935e-05 
5837 3975 0 1.59401e-06 
5837 1722 0 7.25224e-07 
1594 5663 0 1.04398e-05 
6902 3133 0 6.91859e-06 
6902 3463 0 6.14212e-06 
7873 3463 0 7.48672e-06 
3453 7860 0 2.04369e-06 
3453 1722 0 4.83796e-06 
1722 6285 0 5.78906e-06 
3132 265 0 5.341e-06 
2345 1533 0 7.70552e-06 
3463 7446 0 1.27867e-05 
3463 3133 0 7.31795e-06 
3463 5914 0 1.60687e-05 
3463 1984 0 1.16522e-06 
7446 7860 0 1.15863e-05 
7446 6243 0 1.13449e-05 
7860 3615 0 7.71685e-06 
7860 7371 0 1.73931e-05 
7860 3405 0 5.80641e-06 
1533 3615 0 7.17271e-06 
1533 5849 0 8.66141e-06 
1533 2455 0 1.13599e-05 
1533 3478 0 1.51682e-05 
1533 4425 0 4.10114e-06 
236 5849 0 4.30132e-06 
6440 5312 0 3.60262e-06 
5312 1971 0 1.25846e-05 
5312 5914 0 1.08555e-05 
5312 6905 0 1.39701e-05 
1984 6243 0 6.64159e-06 
1984 674 0 7.50842e-06 
3405 2906 0 1.97472e-06 
3405 2621 0 1.14166e-05 
6243 1971 0 1.27403e-05 
6243 637 0 1.02991e-05 
3615 637 0 1.10542e-05 
3615 2379 0 3.65197e-07 
637 6460 0 5.07705e-06 
637 5229 0 2.04136e-05 
637 2379 0 2.73745e-06 
2455 5229 0 1.17e-05 
2455 284 0 9.74761e-06 
2379 2621 0 1.72616e-06 
5849 2207 0 1.50406e-05 
2140 6905 0 8.94264e-06 
7128 3512 0 4.16711e-06 
6300 1971 0 4.37048e-06 
6300 5658 0 3.12912e-06 
1971 1816 0 8.57133e-06 
1971 4853 0 5.32736e-06 
1971 674 0 1.65982e-06 
1971 4537 0 1.34046e-05 
3760 6460 0 1.81004e-06 
4853 575 0 8.34423e-06 
6460 6869 0 4.17051e-06 
3142 2207 0 3.01668e-05 
812 1263 0 2.05413e-06 
1365 3512 0 5.7776e-06 
1365 6234 0 6.64588e-06 
6234 1476 0 1.28799e-05 
6234 1345 0 3.46255e-07 
6234 2773 0 1.17714e-05 
7051 1476 0 8.14102e-07 
7051 4444 0 1.35892e-06 
7051 2773 0 6.57195e-07 
1816 7503 0 5.66042e-06 
1816 4771 0 2.68195e-06 
4771 2773 0 3.39797e-06 
4771 6210 0 1.30018e-06 
7503 5245 0 6.40776e-06 
5245 6645 0 2.27766e-06 
6645 6017 0 1.42638e-06 
5346 6787 0 1.92818e-06 
5346 4399 0 3.75319e-06 
4331 2267 0 9.3691e-07 
7934 6896 0 5.53098e-06 
6391 2504 0 4.38151e-07 
2198 4901 0 3.88213e-07 
6896 4124 0 1.34709e-05 
7784 6293 0 7.00649e-06 
3153 6238 0 5.10117e-06 
4124 6238 0 9.55444e-06 
4124 7727 0 2.81864e-06 
7727 3116 0 2.46163e-06 
7517 4091 0 1.378e-06 
5525 259 0 3.21155e-06 
5663 2534 0 5.24527e-06 
3133 5911 0 8.17299e-06 
3116 3768 0 1.40802e-05 
3116 5911 0 1.46121e-05 
4091 6285 0 3.5241e-06 
3768 7371 0 1.44607e-05 
3768 2906 0 1.20316e-05 
6285 7371 0 9.46847e-06 
6285 7138 0 1.10205e-05 
265 7371 0 7.41075e-06 
265 3478 0 6.954e-06 
7138 3478 0 8.13832e-06 
7138 259 0 7.7936e-06 
7138 3098 0 1.32778e-05 
2534 1315 0 8.79234e-06 
2534 1392 0 1.61856e-06 
7836 4376 0 8.98526e-07 
5914 828 0 1.58602e-05 
5914 4387 0 5.17757e-06 
4387 2906 0 9.61936e-06 
4387 674 0 6.42122e-06 
4387 954 0 9.1193e-06 
7371 2906 0 1.59549e-05 
2906 3422 0 2.32444e-05 
2906 3046 0 7.08976e-06 
7891 7810 0 7.21633e-06 
4425 5319 0 3.55007e-06 
4425 1398 0 8.1668e-06 
4376 205 0 1.88059e-06 
4376 6974 0 1.64039e-06 
6974 674 0 9.2541e-06 
205 6905 0 6.70159e-06 
674 3422 0 7.12867e-06 
674 3858 0 1.30006e-05 
2621 4537 0 1.29994e-05 
2621 284 0 2.71396e-06 
3422 4537 0 1.43124e-05 
3422 2087 0 2.14925e-05 
3422 3046 0 2.94718e-06 
564 284 0 1.86353e-05 
564 1398 0 4.57983e-06 
5319 1263 0 2.65091e-06 
5319 4470 0 4.42559e-06 
6905 5658 0 1.54843e-05 
5658 7143 0 1.64213e-05 
3858 7143 0 1.93187e-05 
3858 2441 0 1.03243e-05 
3858 2087 0 4.96839e-06 
3858 2192 0 1.30931e-05 
3858 6561 0 5.35858e-06 
4537 575 0 2.2594e-05 
284 3014 0 1.73965e-05 
284 3041 0 1.8916e-06 
1263 2892 0 3.82837e-06 
7143 4444 0 2.53328e-06 
7143 2773 0 2.51094e-05 
6190 575 0 8.33247e-06 
5435 1366 0 1.7654e-06 
5435 2192 0 1.38018e-06 
575 6017 0 1.26773e-05 
575 4501 0 1.95679e-05 
4501 6017 0 9.05081e-06 
4501 6289 0 1.58506e-05 
6017 3014 0 2.03051e-05 
3014 4182 0 2.58946e-06 
3014 2508 0 1.23206e-05 
3559 5997 0 6.83289e-06 
3559 2508 0 1.15649e-05 
2508 3041 0 1.32015e-05 
2508 3139 0 1.02838e-05 
2892 310 0 5.35741e-06 
3139 2670 0 9.52539e-06 
3139 1134 0 7.67605e-06 
6356 3916 0 1.82247e-05 
5549 4788 0 5.49486e-06 
2504 7916 0 1.37824e-05 
4620 4594 0 1.79176e-07 
3459 6721 0 6.19723e-06 
1541 587 0 2.63882e-05 
1541 5411 0 9.41071e-06 
259 3470 0 1.53156e-05 
5911 4716 0 1.38959e-05 
3736 3046 0 5.91772e-06 
3899 1315 0 1.52049e-05 
3899 1825 0 1.29143e-05 
3899 5770 0 6.69529e-06 
1315 1398 0 1.88169e-05 
7813 774 0 2.34936e-06 
7813 1458 0 1.07774e-05 
774 7892 0 6.27822e-06 
774 2100 0 1.84658e-06 
954 5995 0 1.09632e-05 
954 3046 0 6.57426e-06 
3046 1458 0 1.48099e-05 
3046 2583 0 1.139e-05 
3046 4781 0 8.01933e-07 
3046 6001 0 1.08178e-05 
3098 5059 0 8.13189e-06 
3098 2583 0 2.35391e-06 
1398 5324 0 1.77498e-05 
5995 2100 0 3.06209e-06 
7868 2441 0 5.52182e-06 
7868 3969 0 3.24823e-06 
7868 635 0 2.73714e-06 
6561 5942 0 1.07041e-05 
6001 2087 0 1.47231e-05 
6001 3666 0 1.08532e-05 
2583 1867 0 1.54525e-05 
5324 5444 0 1.7195e-05 
5444 3041 0 1.13857e-05 
5444 2670 0 2.32683e-05 
5444 1867 0 1.5904e-05 
2441 635 0 8.86129e-06 
2165 2192 0 3.43437e-06 
2087 6289 0 3.32911e-05 
2087 6251 0 1.96376e-06 
2087 5942 0 1.80316e-06 
3041 200 0 5.4733e-06 
3041 3296 0 2.03662e-05 
3041 6233 0 2.82889e-06 
5590 2192 0 2.47336e-06 
199 2192 0 3.48166e-06 
2582 2192 0 1.15471e-05 
2174 6674 0 5.69734e-06 
4182 6289 0 7.20598e-06 
4182 7556 0 5.07217e-06 
2057 5942 0 1.33081e-05 
2057 5543 0 1.49198e-05 
6289 3050 0 3.06429e-05 
5543 3296 0 1.40623e-05 
5543 2770 0 1.77897e-05 
5543 5632 0 1.12112e-05 
6233 3773 0 3.04498e-06 
6233 2770 0 5.35537e-06 
6233 5548 0 4.31871e-06 
7290 6197 0 6.59166e-07 
3916 4799 0 6.53604e-06 
7329 2424 0 3.29384e-06 
2424 1844 0 7.85999e-06 
1915 2401 0 8.6167e-06 
1844 7927 0 3.60229e-06 
649 4716 0 6.59866e-06 
5411 3470 0 1.52317e-05 
5411 2401 0 1.4063e-05 
5860 2652 0 3.21034e-06 
1881 1458 0 1.29147e-05 
4716 5405 0 6.98183e-06 
5405 1458 0 1.2178e-05 
5405 1186 0 1.19616e-05 
1825 343 0 1.17991e-05 
843 7908 0 4.36103e-06 
2100 1458 0 2.75849e-06 
7140 7389 0 3.66491e-06 
7140 5811 0 2.67809e-06 
2789 2256 0 1.08486e-05 
5811 6062 0 8.90374e-06 
5059 5651 0 2.67458e-06 
5059 1867 0 1.37479e-05 
5059 691 0 1.18417e-05 
5651 1223 0 1.47304e-06 
4659 3449 0 8.70006e-06 
4487 2550 0 2.65905e-06 
2256 7650 0 3.90423e-06 
3666 110 0 9.25633e-06 
6062 4781 0 8.50547e-06 
6062 110 0 3.02553e-06 
4781 1075 0 6.4726e-06 
1867 4049 0 2.32564e-05 
1867 1075 0 5.40956e-08 
1075 4122 0 7.39349e-06 
1075 110 0 3.31129e-06 
635 6944 0 6.29827e-06 
2550 1709 0 7.97933e-06 
7650 5942 0 7.99972e-06 
7650 110 0 8.02899e-06 
5942 7463 0 3.25434e-06 
6251 1612 0 1.33103e-06 
4049 3309 0 2.30116e-05 
7207 2670 0 1.20184e-05 
7207 4748 0 1.7909e-06 
7207 2627 0 1.04632e-06 
7207 5386 0 1.66714e-05 
7207 878 0 9.52408e-06 
6944 7463 0 5.15567e-06 
7463 1269 0 2.62132e-06 
2125 5632 0 8.23167e-06 
1612 3296 0 9.01308e-06 
1612 110 0 1.25041e-05 
1612 5697 0 6.8762e-07 
1612 322 0 7.88514e-06 
3296 322 0 1.56204e-05 
4748 5548 0 1.26984e-06 
5548 5830 0 4.13095e-06 
5386 3309 0 1.98015e-05 
7927 1186 0 5.74783e-06 
3288 7579 0 9.47127e-06 
3288 740 0 1.56597e-05 
343 7898 0 9.96266e-06 
343 2727 0 6.27019e-06 
889 5441 0 7.03951e-07 
5583 2914 0 3.47731e-07 
7579 7898 0 1.18705e-05 
7898 3599 0 1.9587e-05 
7898 2121 0 6.02182e-06 
7898 3958 0 5.73644e-07 
691 3063 0 8.92643e-06 
2914 7389 0 6.39695e-07 
2914 3449 0 1.52498e-05 
2914 3599 0 1.71757e-05 
7389 3599 0 5.97122e-06 
3599 3880 0 1.68668e-05 
3599 2736 0 7.89452e-06 
2121 7867 0 6.35852e-06 
7043 7908 0 5.46444e-06 
3958 7835 0 1.00227e-05 
3449 7592 0 3.51811e-06 
3449 6256 0 4.92639e-06 
7746 6497 0 1.53316e-06 
7867 110 0 5.84767e-06 
7010 6497 0 1.03468e-05 
7010 110 0 1.32905e-05 
7010 2736 0 1.6712e-05 
7010 2076 0 5.54476e-06 
110 2872 0 1.44048e-05 
110 2076 0 8.9884e-06 
5374 6514 0 4.19517e-06 
4122 1385 0 5.84723e-07 
4122 6359 0 5.81062e-06 
2872 5675 0 6.66739e-07 
2872 3309 0 1.58994e-05 
7739 6359 0 2.06446e-06 
7739 5286 0 6.99711e-06 
3309 7350 0 1.56173e-05 
1269 1709 0 4.52732e-06 
1269 6919 0 4.32114e-06 
6919 6545 0 4.29461e-06 
5976 6022 0 3.98165e-07 
6022 4817 0 1.11819e-05 
6022 7448 0 1.23412e-05 
6022 3770 0 8.49706e-06 
5697 322 0 1.06193e-06 
322 5675 0 7.17023e-06 
5675 1502 0 6.38321e-06 
3367 7800 0 3.44627e-06 
7350 6859 0 1.16035e-05 
2012 2067 0 7.20887e-05 
740 6184 0 1.1935e-05 
5550 755 0 1.84234e-05 
5550 2727 0 6.53669e-06 
5550 1043 0 1.01837e-05 
1043 6024 0 2.88483e-06 
6024 3063 0 1.37262e-05 
755 3880 0 3.51484e-05 
4837 2925 0 7.13532e-06 
4837 4138 0 4.59703e-06 
6006 2467 0 1.75636e-06 
3063 7747 0 4.71988e-06 
7747 6710 0 1.29194e-06 
4826 3880 0 3.865e-05 
4826 2001 0 3.74057e-05 
4826 3270 0 6.62668e-06 
2055 2736 0 1.88182e-05 
2055 3149 0 1.85397e-05 
2055 6228 0 5.15545e-06 
2055 7818 0 2.06198e-06 
2736 2467 0 4.36406e-07 
3082 7835 0 2.42242e-05 
3082 4068 0 9.52575e-06 
3082 6359 0 1.49488e-05 
7835 6514 0 5.37729e-06 
7835 4138 0 3.56561e-05 
4578 6710 0 1.04924e-06 
4068 897 0 9.24385e-06 
2001 6256 0 2.73032e-05 
5398 4701 0 3.6913e-07 
5398 6560 0 3.04167e-07 
4701 1990 0 4.82064e-07 
7818 3964 0 4.34425e-07 
7818 3790 0 4.93443e-06 
6514 2076 0 7.67601e-07 
6514 7494 0 4.28308e-06 
2076 2274 0 5.16714e-06 
2076 886 0 1.32244e-05 
6359 6102 0 2.9765e-06 
6359 1502 0 1.05551e-05 
6359 5286 0 8.51274e-06 
6256 4817 0 2.25383e-05 
6256 7703 0 1.34537e-06 
6256 3964 0 3.28359e-07 
7469 4817 0 3.02534e-06 
7469 3913 0 2.27799e-06 
3913 4711 0 3.02962e-06 
4638 4817 0 4.40072e-06 
6560 4817 0 2.89203e-06 
6560 3790 0 3.4274e-06 
6560 4962 0 2.96959e-06 
5975 1502 0 6.96531e-07 
1502 7448 0 1.13636e-05 
5286 7800 0 4.68128e-06 
5286 3632 0 1.15188e-05 
6102 1146 0 1.9124e-06 
4817 6545 0 2.00944e-05 
4817 1530 0 4.2271e-06 
7448 3770 0 3.38912e-06 
7800 4551 0 6.36787e-06 
6184 4692 0 3.41152e-05 
5493 4692 0 1.47524e-05 
5493 1905 0 2.483e-05 
5677 4898 0 6.34144e-07 
1905 4138 0 3.13565e-05 
1905 101 0 5.55101e-06 
1905 163 0 1.46333e-06 
1905 1945 0 2.03419e-05 
5747 101 0 2.48676e-06 
3148 5523 0 2.04337e-05 
2412 2701 0 7.38059e-06 
2412 4433 0 8.05552e-06 
4433 3149 0 1.67705e-05 
4898 6228 0 7.72489e-06 
4898 1220 0 1.63232e-05 
6228 2925 0 7.33814e-06 
2925 1990 0 1.12579e-05 
4762 4138 0 3.17802e-07 
4762 886 0 1.58729e-05 
4762 163 0 1.88038e-05 
163 7149 0 1.77892e-06 
4468 1945 0 6.51586e-06 
3317 3149 0 7.49059e-07 
3317 917 0 3.5045e-07 
3270 3964 0 4.33021e-06 
7084 7886 0 5.55507e-06 
6710 3307 0 3.16296e-06 
6710 1534 0 1.20152e-06 
4497 3298 0 4.82155e-06 
4497 5381 0 2.9508e-06 
3964 4492 0 2.23933e-06 
3964 300 0 6.22391e-06 
4492 2761 0 2.74641e-06 
3790 4052 0 8.05059e-06 
4019 6267 0 3.42677e-06 
2580 1369 0 4.28303e-06 
7494 947 0 9.15459e-07 
7494 7886 0 4.79109e-06 
3547 5381 0 3.16628e-06 
947 7749 0 2.94028e-06 
4596 1264 0 2.11082e-06 
4596 6671 0 5.45531e-07 
300 4819 0 7.01942e-06 
300 4052 0 7.78042e-06 
4052 6267 0 1.23137e-06 
4052 6824 0 1.1e-05 
6267 2761 0 4.97762e-06 
6267 5990 0 5.52354e-06 
4962 4866 0 2.5718e-06 
5964 4710 0 3.41894e-06 
5964 5371 0 5.9165e-06 
4866 3632 0 2.38084e-06 
3632 7749 0 2.57566e-06 
3632 3976 0 9.37447e-06 
3632 6671 0 4.62613e-06 
6671 1546 0 7.10698e-08 
1530 6239 0 1.25506e-05 
6082 391 0 2.32099e-06 
3976 7509 0 1.50572e-07 
4551 5222 0 7.49354e-06 
5222 7017 0 7.00211e-06 
5222 7694 0 5.01514e-06 
7372 2701 0 2.75793e-06 
7372 4690 0 1.81035e-05 
2105 5283 0 6.52826e-06 
2105 5198 0 4.09815e-06 
1220 7149 0 5.90025e-06 
101 2886 0 1.07393e-05 
2886 7149 0 4.22022e-06 
2886 6000 0 1.05921e-05 
2886 6131 0 9.83234e-06 
1945 7907 0 1.1106e-05 
6000 4345 0 8.44843e-06 
6000 4597 0 1.08483e-05 
917 4107 0 3.37609e-06 
3825 7174 0 7.90295e-06 
7886 7879 0 9.69037e-07 
4597 2024 0 1.39739e-05 
2873 2024 0 2.22671e-06 
5381 1264 0 5.86018e-06 
5381 2024 0 6.10371e-06 
4107 4819 0 3.46684e-06 
4107 5427 0 5.16869e-07 
4107 2949 0 5.79236e-06 
1687 5797 0 3.93625e-06 
1369 2761 0 1.07825e-06 
275 5436 0 4.92756e-07 
4142 1546 0 9.44421e-07 
1264 1088 0 1.65866e-06 
1264 3672 0 6.30078e-06 
6178 7692 0 1.44181e-06 
2097 5990 0 5.53378e-06 
2097 4127 0 4.28725e-06 
2097 2949 0 1.90541e-06 
7692 312 0 2.80663e-06 
4127 2949 0 6.20078e-06 
6824 312 0 1.51664e-06 
6824 6239 0 1.05833e-05 
5990 1177 0 6.88504e-06 
4565 7017 0 1.03242e-05 
4565 1546 0 9.63486e-06 
1546 3970 0 7.60476e-06 
1546 5436 0 1.05521e-05 
1546 1177 0 3.20073e-06 
1546 5242 0 4.88683e-06 
3970 5371 0 7.26489e-06 
3970 7694 0 1.04304e-05 
7017 6517 0 4.84151e-06 
6517 1797 0 2.8592e-06 
6517 5302 0 8.03762e-07 
312 4930 0 1.17725e-06 
6239 3245 0 1.39358e-05 
3245 6304 0 1.31293e-05 
391 5371 0 1.9242e-06 
1177 5872 0 1.78497e-06 
7694 1003 0 1.16876e-05 
1003 1226 0 3.95323e-06 
5834 6980 0 9.33731e-06 
6980 4350 0 4.91939e-06 
5198 1375 0 1.18558e-05 
4690 51 0 9.04555e-06 
4690 4260 0 2.12033e-05 
6131 1225 0 7.62818e-06 
4260 1001 0 1.20056e-05 
3785 2633 0 3.82796e-07 
3257 5113 0 7.40377e-06 
4345 4917 0 2.90195e-06 
5427 1001 0 1.46303e-06 
5797 1001 0 6.76092e-06 
5797 695 0 7.95341e-06 
1001 5113 0 8.25877e-06 
1001 5321 0 1.37524e-05 
4917 1956 0 3.60411e-06 
4917 1225 0 3.65439e-06 
4917 1863 0 3.55641e-06 
4917 7775 0 5.81921e-06 
7775 2658 0 8.64703e-06 
7775 967 0 5.63412e-06 
1956 1088 0 3.05576e-06 
2024 2473 0 5.23907e-06 
2949 2719 0 4.61391e-06 
2949 5216 0 8.99111e-06 
2719 1790 0 4.57508e-06 
695 5216 0 8.38652e-06 
695 5436 0 5.3455e-06 
695 7710 0 7.12887e-06 
695 5823 0 9.82175e-06 
5436 5216 0 8.88915e-06 
5436 2658 0 4.60119e-06 
5436 967 0 5.50899e-06 
3356 6397 0 1.03852e-08 
3672 1088 0 4.66631e-07 
3672 146 0 1.60794e-06 
3672 5002 0 6.27136e-06 
1088 5002 0 1.02797e-06 
6304 5216 0 1.37437e-05 
7527 3408 0 2.23408e-06 
5242 3889 0 5.21305e-06 
5302 3889 0 2.46041e-06 
5302 3057 0 2.05039e-06 
5002 1404 0 7.0445e-06 
5002 1738 0 7.24813e-06 
369 3934 0 1.63082e-07 
7022 1724 0 4.16392e-06 
1191 5310 0 1.45563e-06 
2790 7302 0 3.43181e-06 
2790 3141 0 3.51415e-06 
1226 7302 0 4.25706e-06 
3057 1404 0 2.51123e-06 
3057 2975 0 1.65165e-06 
3057 2007 0 7.49409e-07 
3416 4778 0 7.44228e-06 
209 5122 0 3.33786e-05 
209 4968 0 1.91364e-07 
1375 2830 0 1.72634e-06 
7854 7385 0 3.86632e-06 
7854 6241 0 4.29292e-07 
4350 140 0 2.44172e-06 
140 2691 0 2.12689e-06 
140 7584 0 2.29939e-06 
7584 1225 0 5.4124e-06 
7584 411 0 6.90484e-06 
7584 6910 0 7.76832e-06 
2830 411 0 2.30575e-06 
4512 3412 0 6.05596e-08 
4512 3560 0 3.92462e-06 
3412 6241 0 1.86824e-06 
6241 7211 0 5.86817e-06 
6241 4196 0 4.43796e-06 
1225 7788 0 2.67436e-06 
2473 1782 0 7.58737e-07 
2473 411 0 4.84945e-06 
2473 5356 0 1.05577e-07 
5321 6554 0 3.06058e-06 
5321 2896 0 1.5673e-05 
5113 2658 0 1.30421e-05 
5113 5281 0 4.36125e-06 
5281 1863 0 3.53399e-06 
5281 4196 0 4.63869e-06 
1863 7788 0 3.7068e-06 
611 7788 0 1.26413e-06 
2690 504 0 1.97178e-06 
1790 1183 0 5.19409e-06 
6154 5823 0 2.93544e-06 
2658 7710 0 9.59878e-06 
7710 6670 0 1.05158e-06 
7710 4767 0 1.0114e-05 
6670 974 0 2.04684e-07 
967 6281 0 8.65235e-06 
6281 3889 0 6.8202e-06 
6281 2359 0 4.95528e-06 
6281 5218 0 5.91792e-06 
6895 6506 0 1.01955e-06 
6506 5796 0 3.51951e-06 
6506 638 0 3.78932e-06 
6506 1150 0 2.01489e-06 
1738 3889 0 6.89648e-06 
1738 1150 0 6.89822e-06 
1738 1675 0 3.7294e-06 
1738 3266 0 2.57523e-06 
5823 4154 0 9.15456e-06 
4154 4268 0 1.36966e-05 
4154 2444 0 1.1805e-05 
339 6615 0 1.58415e-06 
4767 6615 0 4.07147e-06 
4767 5218 0 4.38252e-06 
4767 5310 0 1.08752e-05 
4767 204 0 5.44114e-06 
3889 2007 0 5.1102e-06 
2007 3323 0 3.21888e-06 
3504 3934 0 8.25962e-07 
3934 5847 0 1.41506e-06 
4268 5847 0 1.41909e-05 
833 5310 0 1.28739e-06 
552 3141 0 1.01128e-06 
5310 6996 0 1.17793e-05 
3141 6996 0 2.65557e-06 
441 3083 0 7.18874e-06 
441 6873 0 4.14356e-06 
3083 262 0 1.77305e-07 
3803 3684 0 3.97845e-06 
3803 5430 0 1.03135e-06 
4968 4987 0 1.31773e-05 
3684 5439 0 1.5641e-06 
5430 1364 0 2.1065e-06 
6956 4987 0 3.51738e-07 
7385 3075 0 2.93786e-06 
3075 1364 0 4.08099e-06 
3075 3560 0 1.67642e-06 
3075 2654 0 1.55239e-06 
2680 4196 0 3.13628e-06 
2680 1364 0 7.0348e-06 
2680 6910 0 8.79138e-06 
2680 4125 0 6.95673e-06 
6910 4084 0 6.97621e-06 
6910 1554 0 9.0625e-06 
411 2337 0 7.3017e-06 
5325 1301 0 3.43884e-06 
5325 5566 0 6.89899e-06 
5325 7598 0 3.96428e-06 
5325 5968 0 3.64735e-06 
4196 4084 0 8.82282e-06 
4196 5566 0 7.13166e-06 
4084 1650 0 3.06358e-06 
1650 2359 0 4.36041e-06 
7126 473 0 2.24803e-06 
7126 6272 0 2.54791e-06 
7595 1183 0 6.7323e-06 
7595 2896 0 1.29232e-06 
7595 7598 0 4.9646e-06 
7598 5968 0 4.79146e-07 
2896 6615 0 9.93161e-06 
2896 806 0 1.07174e-05 
806 1607 0 6.63641e-06 
806 5968 0 5.1646e-06 
806 2422 0 6.62459e-06 
974 7247 0 2.09193e-07 
7788 5739 0 4.17733e-06 
5739 7745 0 3.50909e-06 
5739 1607 0 2.75089e-08 
5739 2422 0 4.2022e-06 
1110 2359 0 4.50108e-06 
1110 1607 0 4.11754e-06 
2359 638 0 6.2089e-06 
2359 6253 0 4.24123e-06 
5356 6450 0 3.9188e-06 
5356 638 0 9.33801e-07 
5356 6272 0 2.25213e-06 
6450 6104 0 4.12367e-07 
1183 6615 0 7.34334e-06 
3841 6366 0 1.15036e-05 
3841 2444 0 1.16963e-05 
6615 7247 0 3.98919e-06 
6615 425 0 1.20564e-05 
5218 7574 0 8.41884e-06 
7574 1607 0 7.95144e-06 
7574 3271 0 3.23711e-06 
7368 638 0 1.3923e-06 
7094 3271 0 1.46011e-06 
638 4365 0 4.27436e-06 
1150 4365 0 9.54888e-06 
4365 6253 0 5.94557e-06 
4365 3266 0 4.63575e-06 
4365 590 0 8.6429e-06 
2444 1557 0 5.59322e-06 
1691 425 0 6.27882e-07 
6511 204 0 4.7128e-06 
204 3401 0 4.77531e-06 
3271 1448 0 3.30156e-06 
3271 3552 0 3.04824e-06 
3271 5476 0 8.64779e-07 
1448 6996 0 2.15628e-06 
1448 6134 0 3.46346e-06 
3266 6134 0 3.73856e-06 
6715 5479 0 1.53184e-06 
3323 2415 0 5.78291e-07 
3323 7624 0 3.30873e-06 
2415 6134 0 4.82391e-06 
2415 145 0 4.52158e-06 
2415 6787 0 2.09925e-06 
5439 4275 0 1.30091e-06 
3078 4275 0 1.78303e-06 
4275 2230 0 2.02627e-06 
4275 6503 0 2.14233e-06 
4987 2569 0 1.2351e-05 
6673 5602 0 1.12075e-05 
2654 1364 0 4.13845e-06 
2654 3657 0 4.41685e-06 
2654 6503 0 2.26312e-06 
2569 2294 0 9.10175e-06 
1297 5602 0 1.49324e-05 
5602 3069 0 7.12501e-06 
1301 5612 0 3.62777e-06 
5612 2954 0 2.52262e-06 
5612 3146 0 1.17172e-06 
5612 3657 0 6.24322e-06 
2954 4125 0 2.79552e-06 
2294 1584 0 3.41542e-06 
2294 6527 0 3.40162e-06 
2294 1405 0 2.25413e-06 
1554 2947 0 3.37678e-07 
1554 2337 0 5.18531e-06 
1554 7221 0 6.69948e-06 
4125 6426 0 7.22563e-06 
4125 2422 0 3.90361e-06 
7544 2422 0 5.51317e-07 
2422 298 0 2.01773e-06 
2422 4303 0 6.56709e-06 
3011 7745 0 4.88085e-06 
3011 6272 0 5.82038e-06 
3011 127 0 6.98758e-06 
3011 3062 0 1.44909e-06 
3011 6182 0 1.29814e-06 
2337 3062 0 4.18746e-06 
6366 5785 0 1.09786e-06 
6366 7247 0 3.99933e-06 
6366 5968 0 1.07106e-05 
5968 6426 0 9.19564e-06 
5968 6013 0 2.01176e-06 
2366 6013 0 3.34199e-06 
6783 1607 0 2.65006e-06 
6783 6182 0 3.0164e-06 
1607 3552 0 5.48395e-06 
1607 937 0 1.13848e-05 
6253 7745 0 4.73032e-06 
6253 3552 0 4.28635e-06 
1621 6272 0 2.152e-06 
6272 3809 0 2.36389e-06 
6272 6111 0 2.3175e-06 
6111 1601 0 1.99201e-06 
6111 243 0 1.60786e-06 
5785 1906 0 2.72204e-06 
1906 3546 0 3.02492e-06 
3546 3401 0 1.23754e-06 
3546 6 0 1.38448e-07 
3401 5501 0 4.15351e-06 
3401 4797 0 2.62824e-06 
3552 5501 0 2.82071e-06 
3552 590 0 3.08144e-06 
3277 4023 0 4.54517e-06 
1830 590 0 2.90599e-06 
590 2222 0 2.25697e-06 
590 243 0 7.39453e-06 
590 2910 0 4.81736e-06 
1557 1470 0 6.10069e-06 
2782 5981 0 1.44515e-06 
2782 4314 0 3.08419e-07 
5981 2772 0 1.10585e-06 
5981 6 0 1.8466e-06 
4797 5501 0 2.67498e-06 
4797 2222 0 3.05546e-06 
6134 2222 0 3.30619e-06 
2222 6464 0 1.73877e-06 
6464 4913 0 9.71812e-07 
4688 2772 0 7.27406e-07 
2772 3523 0 2.06772e-06 
7055 2267 0 8.19334e-07 
5852 6787 0 5.39753e-06 
7624 4457 0 1.50761e-06 
7624 6787 0 4.61245e-06 
7624 102 0 2.86039e-06 
6466 4845 0 9.35293e-06 
6466 4717 0 5.86834e-06 
2230 1917 0 2.55418e-06 
3609 3657 0 1.09618e-05 
3609 1843 0 1.12291e-05 
7451 6503 0 3.67082e-06 
7451 1335 0 6.05029e-06 
7451 1405 0 6.49142e-06 
1405 2002 0 3.88918e-06 
1405 1584 0 8.16571e-06 
3589 2002 0 4.7803e-06 
6527 7732 0 1.60846e-06 
1584 127 0 5.64172e-06 
7242 127 0 5.67122e-06 
7242 1334 0 3.24568e-06 
7242 7221 0 5.62414e-07 
7242 6325 0 5.32833e-06 
127 4303 0 4.4872e-06 
7221 6772 0 3.14979e-06 
7221 5962 0 5.89739e-06 
7221 2156 0 5.38233e-06 
6426 4295 0 8.62258e-06 
7732 7166 0 2.20964e-06 
7732 5164 0 3.44052e-06 
5164 4740 0 3.32385e-06 
4303 7216 0 5.28447e-06 
4303 6957 0 1.0252e-06 
7216 7166 0 2.82634e-06 
7216 7183 0 1.64415e-06 
7216 1561 0 2.63681e-06 
3062 4977 0 4.12692e-06 
4977 2461 0 1.56605e-07 
6013 4740 0 5.58187e-06 
5535 937 0 5.41017e-06 
5535 4740 0 6.43186e-06 
5535 6957 0 8.62383e-07 
5535 1892 0 7.33607e-06 
6957 2035 0 4.32076e-06 
6182 7183 0 2.77026e-06 
7183 2156 0 3.6859e-06 
7183 6667 0 5.16258e-07 
243 600 0 3.37818e-06 
1470 3446 0 7.09984e-06 
5270 937 0 1.04196e-05 
5270 3446 0 8.76501e-07 
3446 7020 0 6.22054e-07 
1892 5501 0 7.07647e-06 
5501 2479 0 3.31561e-06 
5501 2910 0 2.12028e-06 
5501 4672 0 1.81456e-06 
2910 2035 0 2.57328e-06 
2910 792 0 2.94536e-06 
4023 2218 0 4.95013e-06 
4023 3436 0 7.76472e-07 
1507 4672 0 5.17576e-06 
1507 2753 0 4.30481e-06 
1507 3523 0 1.60315e-06 
4672 4399 0 4.93073e-06 
4399 2787 0 2.01732e-06 
3523 1962 0 1.13263e-06 
4105 3811 0 5.85322e-07 
5181 2934 0 3.29397e-06 
5181 5884 0 2.93333e-06 
2934 4780 0 1.1755e-05 
3025 1843 0 2.13612e-06 
3025 2916 0 2.29926e-06 
6566 1068 0 2.90288e-07 
6566 1843 0 9.75534e-06 
6566 1394 0 9.34432e-06 
2882 550 0 8.18604e-06 
4717 3069 0 1.18587e-05 
1917 6257 0 3.39293e-07 
1917 1985 0 2.75833e-06 
1985 2264 0 1.65157e-06 
3212 6257 0 2.75089e-06 
3212 3450 0 3.91325e-06 
5420 3127 0 1.10808e-06 
3450 2168 0 3.71775e-06 
3450 3127 0 1.20451e-06 
3450 437 0 3.38326e-06 
3069 1334 0 1.95303e-06 
990 1545 0 4.36594e-06 
7605 6257 0 3.45447e-06 
7605 2846 0 4.63388e-06 
6257 3146 0 1.95154e-06 
6257 3609 0 8.03021e-07 
951 7658 0 2.64075e-06 
951 3448 0 3.1406e-06 
951 5255 0 1.59184e-06 
951 437 0 3.85847e-06 
1335 1334 0 5.03917e-06 
6608 6694 0 6.76763e-07 
7763 3481 0 5.61325e-07 
1334 3846 0 3.26046e-06 
1379 3846 0 2.90954e-06 
1379 6420 0 2.99093e-06 
2927 5962 0 5.03817e-06 
6890 5850 0 6.05514e-06 
6890 660 0 4.94146e-06 
6890 5344 0 3.94644e-06 
3846 5344 0 5.78058e-07 
7658 4295 0 1.29856e-06 
6036 3589 0 6.89002e-07 
5815 7166 0 5.05058e-06 
5815 6846 0 5.11286e-06 
3448 7166 0 3.02806e-06 
7166 6325 0 3.62476e-06 
6325 660 0 5.78427e-06 
1597 2156 0 2.86756e-07 
5344 4977 0 5.59375e-06 
5344 6146 0 1.67529e-06 
5344 367 0 1.22151e-06 
1091 4295 0 7.64669e-06 
1091 4740 0 5.35315e-06 
1091 7268 0 2.50028e-06 
1091 1048 0 3.16446e-06 
1091 6120 0 7.34879e-06 
2156 4478 0 4.59316e-06 
1561 2035 0 2.56482e-06 
1561 6667 0 9.29949e-06 
1561 2148 0 7.1029e-06 
1561 4843 0 6.50769e-06 
4478 5278 0 1.16069e-06 
4478 367 0 1.69871e-06 
4740 1048 0 2.33388e-06 
6481 5270 0 6.07643e-06 
6481 2920 0 2.97761e-06 
2035 792 0 4.5088e-06 
6211 5535 0 2.1221e-06 
6211 2479 0 2.5008e-06 
6211 7035 0 1.77086e-06 
6211 1426 0 3.74186e-06 
6211 2115 0 1.95826e-06 
5278 6667 0 3.25097e-06 
5278 6315 0 2.07569e-06 
5278 5828 0 3.10642e-06 
792 6315 0 8.91702e-07 
792 39 0 5.82139e-06 
6667 243 0 8.77635e-06 
6315 2218 0 1.79541e-06 
7586 3446 0 7.54016e-06 
7586 3721 0 3.02154e-06 
7586 1128 0 7.57766e-06 
6213 5535 0 4.52303e-06 
6213 6 0 2.61122e-06 
6213 3721 0 5.12101e-06 
6213 5301 0 3.59307e-06 
6720 2479 0 3.7189e-06 
6720 6648 0 5.03234e-06 
6720 7035 0 3.82168e-06 
6720 39 0 4.9193e-06 
5301 4672 0 3.60077e-07 
5301 4769 0 2.60224e-06 
3583 2910 0 3.55135e-06 
3583 2876 0 7.25352e-07 
3583 39 0 3.50286e-06 
2218 4232 0 5.0426e-06 
1695 7400 0 4.00675e-07 
6648 4672 0 4.93935e-06 
2306 39 0 2.20193e-06 
2979 4795 0 3.59805e-07 
2979 6129 0 2.86587e-07 
3516 3369 0 8.08213e-07 
3516 6129 0 1.63593e-06 
7103 3523 0 7.67788e-07 
393 3380 0 3.33047e-07 
4594 4795 0 1.02785e-06 
4897 2916 0 4.82815e-06 
4897 1620 0 5.91686e-07 
1394 2099 0 7.37204e-06 
2099 3952 0 7.49499e-06 
3247 6592 0 4.69285e-06 
460 2916 0 4.42975e-06 
2916 3091 0 2.92748e-06 
2916 5098 0 1.65202e-06 
2916 1341 0 4.94584e-06 
3091 3127 0 3.93545e-06 
3091 550 0 1.56024e-06 
3091 3952 0 7.39544e-06 
3091 7555 0 5.1455e-06 
3952 5910 0 3.07271e-06 
2626 4161 0 8.32529e-07 
5884 4532 0 1.52725e-06 
7054 4270 0 1.42094e-06 
2264 798 0 9.53029e-07 
2168 3124 0 3.67087e-06 
2168 1341 0 3.07323e-06 
3127 437 0 1.80053e-07 
3127 539 0 1.24047e-06 
539 1341 0 4.3454e-06 
539 5031 0 4.73492e-06 
1341 3354 0 4.45301e-06 
1341 586 0 2.26369e-06 
550 3481 0 3.20241e-06 
4980 5031 0 7.42962e-06 
4980 3009 0 7.28543e-06 
3481 3009 0 1.13953e-06 
1367 1545 0 5.06237e-06 
1367 3009 0 3.31502e-06 
7192 6420 0 3.6371e-06 
7192 573 0 4.00937e-06 
7192 6113 0 1.5321e-06 
7192 3009 0 2.30476e-06 
956 6420 0 6.21972e-07 
956 6113 0 1.51445e-06 
2846 6069 0 6.70694e-06 
437 354 0 2.30915e-06 
4318 3354 0 3.55007e-06 
4318 6846 0 3.48686e-06 
354 3009 0 5.29492e-07 
354 4843 0 1.19827e-06 
3009 660 0 6.73587e-06 
3009 342 0 3.47508e-06 
660 5701 0 4.8297e-06 
6420 5850 0 3.2515e-06 
6120 5768 0 2.24713e-06 
6120 3957 0 2.15566e-06 
6120 678 0 7.35497e-06 
6846 4843 0 5.74769e-07 
6846 678 0 2.47623e-06 
4843 6146 0 1.30609e-06 
4843 4686 0 3.79289e-06 
4843 7200 0 7.17388e-06 
3957 7268 0 2.76271e-06 
3957 5731 0 3.94084e-06 
5768 4603 0 2.06081e-06 
5768 950 0 1.04228e-06 
1048 1426 0 2.91942e-06 
2148 4603 0 6.04301e-06 
2148 1426 0 5.05445e-06 
2148 2048 0 2.93912e-06 
5828 4686 0 3.55554e-06 
367 5246 0 7.79204e-06 
2920 7268 0 4.24378e-06 
2920 3721 0 5.53185e-06 
2920 1118 0 3.36696e-06 
3861 901 0 4.41548e-06 
901 1426 0 2.96135e-06 
901 7482 0 2.1873e-06 
1426 7482 0 5.73806e-06 
2082 4232 0 1.74741e-06 
2082 6631 0 2.13981e-06 
3721 1250 0 6.17661e-06 
1250 6364 0 3.77895e-06 
6364 3458 0 6.35439e-07 
6364 7482 0 3.66432e-06 
1118 2115 0 2.90412e-06 
2115 7035 0 3.05357e-06 
2115 875 0 2.01285e-06 
7035 3642 0 4.85104e-06 
39 4232 0 2.44057e-06 
39 6631 0 7.04883e-06 
39 3642 0 4.49619e-06 
39 4769 0 1.7653e-06 
39 5421 0 4.71949e-06 
39 4340 0 2.30524e-06 
4232 1753 0 2.91227e-06 