ITEM: TIMESTEP
20000000
ITEM: NUMBER OF ENTRIES
1286
ITEM: BOX BOUNDS ff ff ff
-0.01 0.45
-0.15 0.15
-0.08 0.1
ITEM: ENTRIES c_ppc[1] c_ppc[2] c_ppc[3] c_ppc[4] 
399 64 0 0.000241166 
1159 621 0 6.47819e-05 
32 1027 0 2.59817e-06 
683 481 0 2.02487e-05 
2455 1896 0 2.74443e-05 
2023 981 0 3.63533e-05 
481 226 0 2.51621e-05 
481 359 0 9.13576e-06 
481 1871 0 3.16806e-05 
226 583 0 1.155e-05 
226 2304 0 0.000232679 
226 829 0 5.66134e-05 
1568 359 0 2.21233e-05 
680 1855 0 7.45845e-06 
680 1972 0 5.03066e-06 
359 1188 0 6.56809e-07 
359 1855 0 2.43265e-05 
1188 1842 0 5.34965e-05 
1188 829 0 7.24386e-05 
1855 2046 0 2.41412e-05 
1855 2017 0 1.30055e-05 
2367 1286 0 7.0627e-06 
2046 2017 0 3.11311e-07 
2046 928 0 1.02706e-05 
1286 717 0 6.54674e-06 
1286 1098 0 1.05582e-05 
2017 928 0 1.41852e-05 
2017 1560 0 5.28768e-06 
928 1677 0 1.11532e-05 
584 1021 0 3.06718e-07 
1109 794 0 1.5395e-06 
1021 1028 0 4.64552e-06 
861 1677 0 6.69387e-06 
861 1398 0 1.98469e-06 
1028 992 0 4.10082e-06 
2121 622 0 3.44771e-05 
2419 86 0 0.000104636 
2304 1971 0 9.17036e-05 
829 1871 0 6.38092e-06 
829 1008 0 7.92898e-05 
1871 934 0 3.00723e-05 
1871 993 0 3.69303e-05 
1972 934 0 2.28545e-06 
1728 1094 0 4.29795e-06 
1728 521 0 1.0166e-05 
1728 2412 0 1.19669e-05 
231 1437 0 3.69523e-08 
1677 2105 0 7.67172e-06 
2437 1765 0 2.45866e-05 
621 1531 0 1.41409e-05 
883 1630 0 1.02655e-07 
2429 1211 0 0.000127651 
981 1582 0 8.2249e-05 
1738 1008 0 2.54576e-05 
1497 934 0 1.7262e-05 
1497 511 0 2.08266e-05 
521 993 0 2.62052e-06 
521 1791 0 7.29843e-06 
29 993 0 5.61578e-06 
29 1791 0 6.7755e-06 
1437 1791 0 1.60708e-05 
1437 1600 0 7.26484e-06 
308 2001 0 3.80377e-07 
2105 150 0 1.12583e-05 
2105 653 0 1.5904e-06 
86 298 0 7.79059e-05 
889 541 0 3.15225e-05 
889 298 0 0.000119103 
511 657 0 1.46805e-05 
1008 2203 0 0.000103615 
993 1205 0 3.07818e-05 
993 195 0 2.14375e-05 
368 727 0 1.70396e-06 
1791 195 0 2.6936e-06 
1791 1324 0 1.01834e-05 
1324 2412 0 1.93427e-05 
175 851 0 2.12588e-06 
851 2294 0 4.84069e-06 
653 2092 0 1.45535e-06 
2024 1530 0 4.32556e-06 
541 1945 0 2.86037e-05 
298 1582 0 9.40548e-05 
298 2000 0 7.56663e-05 
298 1643 0 5.64569e-05 
298 392 0 3.27671e-05 
2203 427 0 4.33604e-05 
2203 1588 0 7.00999e-05 
427 244 0 6.92717e-05 
427 1325 0 3.11723e-05 
657 1619 0 1.53598e-05 
1035 1205 0 6.00113e-05 
1035 2000 0 0.000117429 
1035 1706 0 2.76611e-05 
1205 1710 0 4.57815e-05 
727 184 0 2.30586e-06 
2413 214 0 4.57385e-06 
2413 184 0 6.91973e-06 
2413 1290 0 1.51021e-06 
1500 1634 0 3.15903e-06 
1500 2325 0 1.04954e-05 
1634 2403 0 4.58164e-06 
2403 1004 0 2.98607e-06 
1211 300 0 0.000192444 
524 2426 0 2.34255e-06 
1710 1284 0 1.62044e-05 
1710 1290 0 3.33932e-05 
1710 1317 0 2.59315e-05 
184 177 0 2.66737e-06 
2325 1772 0 1.75939e-05 
1801 1388 0 1.39253e-05 
2092 2109 0 2.26444e-06 
1643 392 0 1.13517e-05 
1845 2288 0 0.000160971 
1218 767 0 1.81751e-05 
1619 837 0 2.73045e-06 
2426 1354 0 2.19347e-06 
1317 1365 0 2.42269e-05 
1317 1072 0 3.32208e-06 
1317 2268 0 2.42471e-05 
1317 2144 0 1.71296e-05 
1365 2268 0 3.88969e-05 
1365 435 0 1.73982e-05 
1290 177 0 4.68169e-06 
1290 1453 0 8.00906e-07 
1290 1297 0 2.88449e-05 
1072 2144 0 2.1427e-06 
1072 435 0 1.99594e-06 
1388 925 0 1.30473e-05 
1095 1354 0 1.84251e-05 
2115 2447 0 3.90758e-05 
2115 2268 0 7.84726e-05 
2115 642 0 6.64383e-06 
2268 124 0 5.03955e-05 
1354 1453 0 7.89751e-06 
1354 407 0 5.87443e-06 
2421 1173 0 1.65605e-05 
2421 435 0 1.5116e-05 
2421 2096 0 1.38177e-05 
1453 438 0 1.77346e-06 
1297 261 0 5.55816e-06 
1297 277 0 1.03571e-05 
1082 2173 0 1.13709e-06 
925 1724 0 6.4805e-06 
261 1565 0 2.43351e-06 
1553 1073 0 2.04032e-05 
2447 1043 0 4.26467e-05 
1879 1278 0 3.16964e-06 
1374 1963 0 3.46693e-06 
438 1963 0 1.056e-05 
2144 2422 0 1.01923e-05 
277 2059 0 3.66807e-06 
277 1815 0 9.05604e-06 
2411 1508 0 1.59746e-06 
2411 378 0 4.5976e-07 
1854 2059 0 1.52121e-06 
1854 712 0 1.94395e-06 
1073 432 0 3.08861e-05 
642 924 0 7.35692e-06 
1963 550 0 2.23572e-06 
124 1724 0 1.35207e-05 
2422 924 0 1.73202e-05 
2422 1708 0 6.22126e-06 
2059 1645 0 4.49439e-06 
1724 996 0 5.90207e-06 
1318 712 0 3.88521e-06 
1318 746 0 3.60056e-06 
1811 712 0 2.62043e-06 
280 126 0 1.65949e-06 
924 2283 0 1.13834e-05 
1815 1241 0 1.003e-05 
1815 550 0 2.2544e-06 
378 746 0 3.17141e-06 
378 1864 0 1.17918e-06 
378 1708 0 1.26925e-06 
996 612 0 5.65787e-06 
2205 1930 0 6.06156e-06 
2205 2389 0 2.5846e-06 
2205 1265 0 2.13069e-06 
722 1774 0 1.34095e-05 
503 724 0 4.93276e-06 
2097 619 0 8.22744e-06 
1589 1241 0 5.96174e-06 
1589 126 0 1.16263e-05 
1589 619 0 4.82514e-06 
1589 1557 0 7.89439e-06 
1241 2135 0 6.04149e-06 
126 1708 0 5.81856e-06 
126 1645 0 7.79221e-06 
126 2366 0 5.48665e-06 
1864 2089 0 3.01283e-06 
1645 1608 0 3.85526e-06 
1411 1221 0 1.66789e-06 
1411 1265 0 5.45076e-06 
894 2389 0 7.32177e-07 
564 619 0 7.51625e-06 
564 1145 0 3.44366e-06 
724 325 0 1.67537e-06 
619 1533 0 4.43138e-06 
2089 325 0 6.34914e-06 
1557 1737 0 4.2712e-06 
2135 498 0 3.71053e-06 
2135 1723 0 8.04566e-06 
2366 2418 0 1.02327e-05 
2441 1052 0 3.24491e-06 
2441 509 0 3.51732e-06 
1608 612 0 7.97932e-06 
1608 1922 0 8.58959e-06 
1608 2369 0 4.67364e-06 
1052 1221 0 7.74646e-06 
1052 612 0 2.15344e-06 
1052 2369 0 6.48853e-06 
1221 904 0 6.11163e-06 
612 586 0 6.98585e-06 
1533 2291 0 4.48387e-06 
471 1737 0 1.10554e-05 
471 2418 0 1.2167e-05 
1922 1723 0 1.20439e-05 
791 2369 0 4.71399e-06 
1700 2369 0 6.9294e-06 
1700 428 0 5.09547e-06 
1700 814 0 6.0354e-06 
444 586 0 3.21988e-06 
2291 1737 0 1.73927e-07 
2291 2137 0 3.20389e-06 
1145 1344 0 6.84605e-06 
325 1382 0 1.06076e-05 
1737 2134 0 2.94761e-07 
2418 509 0 5.71938e-06 
2418 1125 0 1.52194e-06 
2418 372 0 1.31423e-05 
509 914 0 6.00115e-06 
509 1063 0 1.00929e-05 
1125 2369 0 2.92841e-06 
1125 2134 0 6.57691e-06 
914 103 0 2.72513e-06 
1723 2168 0 4.71004e-06 
2369 1924 0 1.13746e-05 
1623 428 0 3.86335e-06 
1623 2234 0 1.21023e-06 
714 890 0 7.0959e-06 
714 74 0 4.37175e-06 
890 856 0 1.29563e-05 
890 2040 0 3.81782e-06 
1344 1977 0 1.11405e-05 
1382 572 0 3.68987e-06 
1382 729 0 7.00286e-06 
1382 792 0 8.99368e-06 
1382 460 0 1.09637e-05 
1063 1418 0 1.06721e-05 
1868 114 0 1.95355e-07 
2134 1369 0 3.63429e-06 
2134 2168 0 8.09669e-07 
372 1924 0 1.73018e-05 
372 1418 0 2.0398e-05 
372 949 0 7.58526e-06 
1924 1980 0 3.77554e-06 
1924 74 0 7.83544e-06 
2234 1980 0 3.32096e-06 
2401 365 0 4.30256e-07 
944 1660 0 1.62122e-06 
1503 682 0 2.20607e-06 
1503 872 0 3.94691e-06 
994 1872 0 2.83735e-05 
994 181 0 7.27777e-06 
833 572 0 3.66655e-06 
833 913 0 9.4337e-06 
572 431 0 1.43548e-06 
1369 949 0 3.40283e-06 
114 685 0 1.0889e-06 
114 2400 0 3.11297e-06 
2168 1834 0 6.88712e-06 
365 1676 0 2.70887e-06 
74 2040 0 8.0894e-07 
74 2042 0 4.8409e-06 
682 1660 0 2.31282e-06 
871 1006 0 8.50697e-06 
871 2219 0 9.20891e-06 
1977 181 0 5.95188e-06 
1977 106 0 1.01544e-05 
792 1418 0 6.5838e-06 
792 431 0 2.3432e-06 
792 988 0 2.97376e-06 
949 1262 0 9.83366e-06 
949 1602 0 6.85443e-06 
1418 910 0 2.31187e-05 
1373 685 0 1.25288e-06 
685 988 0 4.65151e-06 
1834 1574 0 1.51525e-05 
1834 1541 0 9.26237e-06 
2207 38 0 3.76817e-06 
2207 2039 0 3.5152e-06 
2042 1574 0 1.06157e-05 
2042 38 0 3.04275e-06 
2042 160 0 3.70831e-06 
196 120 0 1.04736e-06 
160 1819 0 1.95291e-06 
633 1660 0 2.47813e-06 
633 1676 0 5.06108e-06 
1660 1266 0 3.40432e-06 
913 181 0 5.38746e-06 
2250 1602 0 1.85796e-05 
106 910 0 1.12777e-05 
910 1602 0 2.0477e-05 
988 2400 0 4.31198e-06 
988 85 0 6.50077e-06 
988 2039 0 1.50812e-06 
2039 1743 0 3.58385e-06 
1574 46 0 8.68598e-06 
1676 515 0 4.10487e-06 
1819 273 0 8.76136e-09 
1819 243 0 2.53587e-06 
1647 1179 0 5.19679e-06 
1424 1006 0 4.78384e-06 
933 275 0 2.824e-06 
1179 2357 0 1.5279e-06 
1179 1900 0 5.24243e-06 
478 1900 0 3.26795e-06 
2217 1439 0 6.08771e-06 
2217 1001 0 3.09977e-06 
2217 135 0 3.5891e-06 
1153 181 0 6.99054e-06 
1153 921 0 4.21497e-06 
1153 1343 0 1.80563e-05 
1153 1900 0 7.17849e-06 
1153 1336 0 1.40816e-05 
1343 1152 0 8.17352e-07 
2087 1440 0 1.44804e-06 
1873 988 0 4.31156e-06 
1873 349 0 5.4554e-06 
1873 525 0 6.84588e-06 
1873 1743 0 9.36506e-06 
85 2057 0 5.66273e-06 
85 2365 0 1.3362e-06 
2057 1373 0 1.83249e-06 
2057 1602 0 7.86893e-06 
2057 1541 0 7.14682e-06 
2057 2377 0 5.34351e-06 
1541 732 0 1.00635e-05 
46 1093 0 6.76183e-06 
2377 732 0 2.89906e-06 
2377 1157 0 7.45911e-06 
1093 159 0 4.90499e-06 
1093 1611 0 3.43253e-06 
2122 1266 0 1.11596e-06 
2362 2042 0 7.97181e-06 
2362 273 0 2.52585e-06 
2362 1691 0 9.0371e-06 
273 196 0 1.49573e-06 
273 731 0 1.95818e-06 
1266 1777 0 5.24574e-06 
243 762 0 6.10961e-06 
243 1190 0 5.79719e-06 
1397 275 0 1.33053e-05 
262 1900 0 1.13198e-05 
1539 275 0 7.00104e-06 
1539 1576 0 6.87169e-06 
1900 1036 0 3.64752e-06 
1576 525 0 9.31205e-06 
1576 2186 0 6.92559e-06 
1826 2159 0 2.56718e-06 
1826 1336 0 3.95658e-06 
2159 2365 0 1.24101e-06 
1152 910 0 1.41245e-05 
1152 1334 0 9.12766e-06 
2365 2392 0 4.55063e-07 
2365 2077 0 1.38304e-06 
2372 1088 0 4.62861e-07 
2372 1034 0 6.47932e-06 
1611 1157 0 7.26595e-06 
731 1075 0 4.32376e-07 
739 1691 0 1.10703e-05 
739 1157 0 2.06123e-06 
739 1401 0 9.81291e-06 
1777 307 0 5.03256e-06 
1691 1190 0 1.00387e-05 
661 1351 0 8.32682e-07 
1351 1336 0 5.22396e-06 
1351 1547 0 1.35804e-06 
1803 2387 0 2.05568e-06 
1336 1547 0 9.56402e-06 
1427 2392 0 7.91882e-06 
1427 276 0 1.58574e-07 
1334 2153 0 7.70009e-06 
1334 1342 0 1.25824e-05 
2153 2186 0 1.08282e-05 
2153 2111 0 2.32279e-06 
1088 1481 0 4.19303e-06 
732 1814 0 1.05185e-05 
1347 1157 0 9.09019e-06 
1157 1034 0 2.87825e-06 
775 1182 0 1.78793e-06 
1190 984 0 1.04836e-05 
694 2171 0 1.33656e-05 
1036 2164 0 2.62481e-06 
1036 827 0 3.58583e-06 
1194 2387 0 6.78066e-06 
1194 705 0 9.48969e-06 
930 2186 0 7.35877e-08 
2387 1439 0 4.23166e-06 
1547 276 0 1.96263e-06 
1547 1668 0 7.2488e-06 
2186 995 0 4.55236e-06 
2186 1952 0 7.4445e-06 
276 2014 0 4.11854e-07 
2014 730 0 2.61493e-06 
2392 2062 0 2.57505e-06 
1342 445 0 9.67365e-06 
1342 1624 0 2.74405e-06 
1342 1172 0 1.27689e-05 
445 1720 0 1.80075e-06 
445 2111 0 2.59946e-06 
445 1824 0 3.77097e-06 
1720 1624 0 9.79789e-06 
1034 1814 0 9.54757e-07 
1034 1836 0 3.78727e-06 
2102 1929 0 1.34426e-06 
2102 688 0 3.16909e-06 
1814 218 0 1.04695e-05 
1182 1075 0 9.75026e-07 
1182 1517 0 1.55316e-06 
1075 688 0 1.12622e-06 
1401 2176 0 3.73348e-06 
307 406 0 2.42834e-06 
2184 2032 0 9.9349e-06 
2032 2171 0 4.56703e-06 
2171 1460 0 2.67242e-05 
827 328 0 3.78474e-06 
1763 1001 0 2.59089e-06 
1763 1937 0 2.15043e-06 
2062 203 0 1.48827e-07 
2062 2038 0 2.46371e-06 
1952 2111 0 1.93096e-06 
1952 203 0 3.9755e-06 
1952 1302 0 4.36018e-06 
1481 1829 0 5.6568e-06 
1481 1840 0 3.05954e-06 
1624 1824 0 4.73809e-06 
1624 1725 0 6.22223e-06 
1624 961 0 1.22227e-05 
1836 961 0 4.25881e-06 
688 191 0 3.00435e-06 
406 218 0 1.64398e-06 
2176 1925 0 1.27475e-06 
984 191 0 1.03105e-05 
1460 328 0 1.20927e-05 
1460 409 0 1.76995e-08 
857 328 0 1.50854e-06 
328 1001 0 8.96495e-06 
328 1149 0 2.43848e-06 
1001 1943 0 7.37785e-06 
705 1404 0 1.29607e-05 
1937 1372 0 8.2106e-06 
1937 1863 0 3.64632e-06 
1439 2085 0 6.01665e-06 
637 50 0 2.82113e-06 
1372 2038 0 1.31163e-05 
1372 1830 0 1.12308e-05 
1668 828 0 5.47428e-06 
730 1840 0 3.97161e-06 
1172 1762 0 1.09813e-05 
1172 1410 0 7.98072e-06 
961 1840 0 7.9772e-06 
961 1987 0 7.68833e-06 
1824 1462 0 1.89836e-06 
1824 1138 0 3.14684e-06 
1829 2240 0 6.58762e-06 
218 655 0 1.05029e-05 
191 892 0 1.00217e-05 
1863 318 0 3.03123e-06 
1404 1368 0 1.59239e-05 
863 2085 0 2.49252e-06 
863 745 0 1.41211e-06 
50 1059 0 9.54423e-07 
828 1909 0 5.6402e-06 
2038 1725 0 1.39652e-05 
2038 1909 0 1.2528e-05 
2038 1762 0 8.01247e-06 
1302 1281 0 3.06342e-06 
1840 1909 0 8.28273e-06 
1725 2298 0 3.07895e-06 
2240 1274 0 7.18884e-06 
1138 321 0 3.69776e-06 
1661 1462 0 3.46035e-07 
1661 1754 0 2.69245e-06 
155 98 0 2.8479e-06 
1818 726 0 5.82249e-08 
1925 148 0 1.19936e-06 
318 1785 0 1.24577e-05 
1943 562 0 1.05954e-06 
1943 1626 0 7.33529e-06 
2085 1633 0 8.45049e-06 
1830 294 0 6.74858e-06 
1167 1762 0 3.13101e-07 
1281 2295 0 1.24073e-06 
1909 978 0 7.10373e-06 
1909 1321 0 5.36467e-06 
1410 927 0 9.08859e-08 
1410 2310 0 2.0596e-06 
2298 321 0 2.97511e-06 
2298 77 0 3.32646e-07 
1987 1226 0 2.18535e-06 
655 1274 0 6.48552e-06 
655 1428 0 1.03553e-05 
892 1618 0 8.37184e-06 
892 151 0 4.69369e-06 
148 1428 0 6.28499e-06 
1904 818 0 1.28121e-06 
1964 227 0 8.5113e-06 
1964 1458 0 3.70119e-06 
1964 1207 0 6.78499e-06 
1458 2233 0 2.26135e-06 
594 1368 0 2.63626e-06 
2233 2295 0 4.10784e-07 
1368 294 0 4.38975e-06 
1368 1143 0 7.57094e-06 
294 978 0 5.23074e-06 
294 1288 0 5.2462e-06 
1633 1288 0 1.05278e-05 
1059 1384 0 5.03979e-07 
1384 602 0 1.26733e-06 
978 1335 0 5.62521e-06 
1321 2131 0 1.39607e-06 
927 353 0 6.85175e-07 
927 1878 0 7.40973e-07 
321 1598 0 2.94991e-06 
1274 1434 0 1.05931e-05 
419 77 0 1.34763e-06 
1226 1754 0 5.26792e-07 
1754 1778 0 7.53067e-07 
1428 879 0 4.00462e-06 
1428 1744 0 8.70988e-06 
98 879 0 5.46742e-07 
1618 1340 0 5.79511e-06 
1618 623 0 1.01622e-05 
879 2016 0 3.77937e-06 
2218 151 0 2.67974e-06 
2218 2016 0 2.38319e-06 
151 2206 0 4.90663e-06 
1335 1878 0 4.42429e-06 
1117 602 0 4.28638e-06 
1598 77 0 3.28911e-06 
1598 588 0 8.29988e-07 
1598 357 0 1.12128e-06 
77 2131 0 5.81713e-06 
77 786 0 1.74298e-06 
341 592 0 6.32057e-06 
592 2209 0 6.86608e-06 
2209 844 0 1.97347e-06 
2209 290 0 4.75977e-06 
1237 844 0 3.23367e-07 
1414 418 0 3.46196e-06 
1224 418 0 6.51995e-07 
1288 2212 0 2.95736e-06 
1085 2276 0 4.36938e-06 
2212 588 0 6.26674e-06 
2276 1245 0 8.52681e-06 
602 2131 0 3.70189e-06 
1878 2192 0 3.10633e-06 
2192 554 0 2.91453e-06 
786 1891 0 1.89377e-06 
1744 1665 0 1.12243e-06 
1891 623 0 2.65401e-06 
289 2471 0 2.31289e-05 
719 237 0 0.000241156 
1061 400 0 0.000162476 
1974 725 0 2.40628e-06 
1974 2254 0 5.12524e-05 
725 632 0 3.486e-05 
1775 423 0 7.10435e-05 
1683 493 0 3.18385e-05 
493 2148 0 7.08774e-05 
1115 684 0 4.51051e-06 
2148 2 0 3.61806e-05 
2148 2379 0 3.65756e-05 
2091 1441 0 5.56198e-05 
2091 1997 0 2.62741e-05 
1210 897 0 1.33649e-05 
717 217 0 1.1655e-05 
717 794 0 3.9683e-06 
717 599 0 1.22777e-05 
217 1163 0 3.26761e-05 
217 2223 0 1.10864e-05 
2 2257 0 2.65396e-05 
2 2126 0 1.69384e-05 
2082 4 0 7.97574e-06 
1441 212 0 3.55431e-05 
794 1287 0 6.10258e-06 
1622 2264 0 8.68072e-06 
2257 808 0 9.45023e-07 
212 1014 0 2.10648e-05 
212 395 0 1.68361e-05 
1014 395 0 4.45915e-06 
1014 284 0 1.69817e-05 
1287 414 0 2.32703e-07 
2264 1129 0 1.00152e-05 
808 1129 0 2.29396e-06 
219 395 0 6.54821e-06 
395 1070 0 1.04898e-05 
1673 607 0 6.02797e-06 
284 1358 0 1.27435e-05 
51 402 0 1.18435e-05 
423 958 0 9.85583e-05 
1882 2254 0 1.02505e-05 
673 583 0 3.42336e-05 
673 1416 0 3.62856e-05 
469 258 0 2.36913e-05 
1997 2379 0 8.10394e-06 
2223 599 0 1.76607e-05 
2223 2442 0 2.3765e-06 
2223 1808 0 7.07077e-06 
1163 2339 0 2.18969e-05 
1163 1144 0 1.59805e-05 
1163 2126 0 1.40554e-05 
2379 2339 0 2.9972e-06 
2379 4 0 2.60173e-05 
2379 1403 0 1.57074e-05 
897 2333 0 1.15957e-05 
2126 1776 0 7.4623e-06 
2126 1403 0 1.30463e-05 
610 4 0 2.3613e-05 
327 1716 0 6.39564e-06 
327 1534 0 8.84147e-06 
1070 1718 0 3.07851e-06 
1345 1151 0 7.73242e-05 
300 2446 0 1.47523e-05 
2396 1010 0 6.16249e-06 
1920 2043 0 3.12443e-05 
1920 917 0 1.94037e-05 
258 1808 0 1.86864e-05 
2339 1403 0 6.28932e-06 
2043 1399 0 4.29364e-05 
1403 4 0 1.05918e-05 
1403 2136 0 9.46317e-06 
1403 1786 0 2.40869e-05 
4 840 0 1.45152e-05 
2333 600 0 1.2975e-06 
2333 1837 0 2.49545e-05 
2442 1144 0 4.97289e-06 
2442 1716 0 7.87702e-06 
2442 1884 0 4.18143e-06 
1144 1277 0 9.24596e-06 
1144 1120 0 1.3136e-05 
840 760 0 2.45882e-05 
840 799 0 2.03042e-06 
1277 1716 0 4.75337e-06 
1277 461 0 4.78319e-06 
600 186 0 2.71348e-05 
1718 2202 0 2.31861e-06 
1718 1309 0 1.18701e-05 
760 180 0 2.81625e-05 
461 607 0 5.84148e-06 
607 1074 0 5.88825e-06 
958 1896 0 6.92318e-05 
2420 2301 0 0.00012182 
2420 759 0 3.34166e-05 
2420 512 0 3.26811e-07 
917 590 0 4.69582e-05 
1416 244 0 5.14048e-05 
1416 1324 0 7.53738e-06 
2454 590 0 1.21399e-05 
2440 1510 0 2.08296e-05 
1399 2376 0 2.79512e-05 
1399 646 0 4.19439e-05 
1808 2407 0 5.42441e-07 
1808 900 0 1.66296e-07 
1837 646 0 4.20803e-05 
2407 945 0 8.72093e-07 
945 2417 0 3.55766e-06 
1786 2202 0 1.45667e-05 
1786 1976 0 3.02387e-05 
2409 2384 0 3.41778e-06 
2409 831 0 3.44659e-06 
2409 1450 0 2.51867e-06 
2409 545 0 9.54592e-06 
831 1120 0 7.78726e-06 
2202 799 0 2.29971e-06 
2202 1181 0 2.00205e-06 
2417 2289 0 1.83033e-06 
1074 2431 0 3.40497e-06 
186 180 0 1.85986e-05 
1534 1651 0 1.1288e-05 
1651 2098 0 1.58929e-05 
970 1519 0 2.03962e-05 
247 1381 0 1.48627e-05 
2363 1933 0 2.35852e-05 
1120 2457 0 4.57344e-06 
1120 1015 0 2.46147e-05 
799 53 0 4.71281e-06 
1346 810 0 2.90325e-05 
1004 545 0 5.37708e-06 
2098 1101 0 6.32864e-06 
1960 244 0 1.47739e-05 
1327 1324 0 4.21324e-06 
1327 1772 0 3.34593e-05 
646 459 0 8.59926e-06 
11 1459 0 6.9601e-06 
1976 1229 0 1.96008e-05 
1976 2428 0 4.75978e-06 
1360 1450 0 1.58478e-05 
1360 545 0 3.43992e-06 
1360 1173 0 1.20273e-05 
1521 545 0 4.63891e-06 
1268 1101 0 6.24573e-06 
53 1667 0 6.53727e-06 
2431 742 0 1.71868e-05 
2431 2410 0 5.4605e-06 
1450 1675 0 2.79775e-06 
545 2113 0 1.34732e-05 
1101 2308 0 8.21388e-06 
742 557 0 1.41368e-05 
771 1667 0 7.38403e-06 
867 117 0 6.88798e-06 
1933 1759 0 2.85591e-06 
1772 1365 0 4.16614e-05 
1229 194 0 1.27385e-05 
282 496 0 6.24647e-06 
282 2133 0 4.71327e-06 
772 263 0 4.69836e-06 
1893 263 0 2.51136e-05 
2428 2010 0 1.13745e-05 
488 2113 0 2.93742e-06 
488 263 0 2.21247e-05 
488 1756 0 2.79776e-05 
2410 2010 0 2.53524e-06 
2410 1955 0 1.58471e-05 
1675 1388 0 1.96649e-05 
1675 2113 0 1.20526e-05 
2308 1756 0 1.41303e-05 
557 2355 0 8.68411e-06 
1739 505 0 1.39397e-05 
767 936 0 1.95183e-05 
670 1047 0 1.70904e-05 
194 2269 0 1.82039e-05 
1759 1275 0 6.95762e-06 
1459 1442 0 4.08291e-05 
1173 426 0 1.10784e-05 
2269 1528 0 3.99958e-05 
1518 976 0 7.62186e-06 
850 1554 0 4.13908e-05 
332 697 0 3.26677e-05 
2414 426 0 3.6729e-06 
1955 1090 0 1.41726e-05 
697 1790 0 2.15443e-05 
2443 2456 0 2.51984e-05 
936 455 0 5.75951e-06 
286 1528 0 1.37767e-05 
1442 362 0 1.07749e-05 
1442 504 0 3.57394e-05 
2287 1380 0 8.63131e-06 
426 1096 0 6.9493e-06 
426 663 0 5.57798e-06 
426 1787 0 2.187e-05 
1954 1090 0 6.48566e-06 
1954 999 0 9.40114e-06 
1954 1516 0 2.79207e-05 
1096 2371 0 1.03646e-06 
1603 1790 0 1.85589e-05 
1603 504 0 6.99052e-06 
1603 1068 0 2.1178e-05 
1090 1068 0 7.76517e-06 
1790 756 0 4.60918e-06 
1790 115 0 1.14635e-05 
2371 1930 0 5.91516e-06 
1994 1275 0 2.43597e-05 
362 1876 0 2.83011e-06 
1275 589 0 1.02582e-06 
1275 780 0 2.08168e-05 
1528 2162 0 1.62225e-05 
1528 1544 0 1.27408e-05 
999 1412 0 5.29619e-06 
663 904 0 6.37698e-06 
504 2346 0 2.28253e-05 
1787 1733 0 9.38534e-06 
411 1203 0 1.38927e-05 
1068 202 0 2.49981e-05 
1068 1474 0 6.08921e-06 
115 468 0 3.1517e-06 
115 361 0 8.34284e-06 
1930 1757 0 3.30353e-06 
110 2162 0 6.95925e-06 
2162 416 0 4.03446e-06 
2215 2021 0 3.147e-06 
780 2021 0 6.35368e-06 
780 1544 0 4.7665e-06 
780 436 0 1.94174e-05 
1544 1516 0 2.45063e-06 
1544 476 0 8.76299e-06 
1516 1421 0 4.384e-06 
2346 965 0 2.99254e-05 
2346 312 0 1.38825e-05 
855 216 0 1.53564e-05 
855 1886 0 1.05103e-05 
1474 130 0 4.89533e-06 
1421 997 0 2.69634e-06 
361 1126 0 3.15819e-06 
904 546 0 6.755e-06 
2021 546 0 4.4911e-06 
1850 476 0 6.379e-06 
1733 746 0 3.93004e-06 
1733 822 0 4.18318e-06 
1429 939 0 1.25864e-05 
1066 1291 0 1.82568e-06 
665 1359 0 3.00165e-05 
1487 1154 0 1.10447e-05 
1067 476 0 1.44904e-05 
1067 1154 0 7.82816e-06 
436 1540 0 1.75939e-05 
546 1613 0 9.09104e-06 
517 940 0 2.11765e-06 
517 1609 0 5.27134e-06 
1126 2213 0 2.22884e-06 
1886 2350 0 9.83526e-06 
1886 822 0 1.73488e-05 
1886 1715 0 1.05163e-05 
2350 2004 0 6.71091e-06 
997 1215 0 3.00879e-06 
2278 834 0 2.44603e-05 
2278 285 0 1.6657e-05 
864 2185 0 4.29497e-06 
1540 12 0 7.79072e-06 
1540 2185 0 1.7941e-05 
1540 2055 0 1.03044e-05 
1609 1339 0 1.02337e-05 
2007 593 0 1.15787e-05 
2007 791 0 1.31124e-06 
1806 2004 0 6.81329e-06 
822 1331 0 1.07487e-05 
822 856 0 1.99491e-05 
915 593 0 2.19311e-06 
1215 1044 0 5.33458e-06 
1291 2360 0 2.65789e-06 
1291 90 0 1.56835e-06 
2360 1355 0 4.12051e-06 
2360 956 0 4.75362e-06 
1480 2055 0 3.63575e-06 
2055 2382 0 8.62952e-06 
2055 1719 0 1.30127e-06 
2055 535 0 1.11104e-05 
1613 2281 0 8.54564e-06 
2382 2128 0 6.5013e-06 
1948 1037 0 1.96558e-06 
2128 2180 0 2.6755e-07 
856 120 0 1.23334e-05 
1331 1828 0 6.9382e-06 
90 169 0 8.37264e-07 
1311 1078 0 4.15802e-06 
1177 1099 0 1.56507e-06 
2163 1037 0 4.19197e-06 
1719 1099 0 2.90913e-06 
2015 386 0 5.61389e-06 
2015 2315 0 6.31037e-08 
2015 598 0 1.09778e-06 
63 386 0 2.57404e-06 
1140 535 0 1.02924e-06 
396 1044 0 1.80566e-06 
1730 956 0 4.11767e-06 
1730 805 0 6.55289e-06 
2180 598 0 4.97726e-06 
1828 909 0 6.17801e-06 
749 2316 0 7.01494e-06 
1044 1062 0 6.75638e-06 
460 2058 0 1.13413e-06 
460 603 0 6.53049e-06 
464 987 0 7.89252e-06 
1099 1654 0 5.2043e-06 
1099 2249 0 3.8904e-06 
2272 114 0 3.14067e-06 
535 1349 0 6.34485e-06 
535 1158 0 9.62619e-06 
1654 405 0 2.93264e-06 
805 405 0 1.04374e-05 
805 533 0 3.28943e-06 
805 2321 0 3.28013e-06 
2378 2034 0 1.48793e-06 
2076 1938 0 6.07241e-06 
2076 2321 0 6.25926e-06 
598 480 0 7.13344e-06 
884 2086 0 2.38538e-06 
1062 1938 0 3.26795e-06 
1062 1406 0 9.37954e-06 
169 39 0 1.59639e-06 
251 89 0 2.93269e-06 
1078 405 0 1.13486e-05 
1078 923 0 1.25332e-05 
1463 1371 0 1.77469e-06 
987 299 0 5.24763e-06 
405 1686 0 7.75942e-06 
405 1330 0 4.17942e-06 
1158 2370 0 1.09504e-05 
2249 1349 0 7.9858e-07 
2249 533 0 3.03797e-06 
2249 2034 0 2.36189e-06 
533 2373 0 3.11165e-06 
1938 2034 0 2.96505e-06 
1938 1406 0 4.18929e-06 
909 872 0 3.78962e-06 
909 2086 0 1.54234e-06 
2086 1005 0 2.49686e-06 
2316 152 0 2.92349e-06 
39 634 0 1.79272e-06 
26 102 0 2.79104e-05 
1330 986 0 4.25935e-06 
355 480 0 5.01616e-07 
2383 1593 0 2.57007e-07 
480 235 0 3.09497e-07 
2370 943 0 5.22056e-06 
2370 2108 0 3.30706e-06 
2034 699 0 2.68012e-06 
2373 1835 0 1.05599e-06 
2321 629 0 6.44149e-06 
1578 516 0 3.08335e-06 
1862 1376 0 0.000771987 
1862 1255 0 0.00120069 
2270 969 0 1.00375e-05 
2028 1650 0 3.30808e-05 
2309 2127 0 3.74466e-06 
2309 628 0 4.54618e-06 
2211 1024 0 7.09656e-06 
299 105 0 9.34895e-06 
299 1251 0 2.22638e-06 
1949 159 0 2.77824e-06 
1949 2041 0 3.49924e-06 
2093 2380 0 2.40112e-06 
1593 159 0 3.02643e-06 
943 480 0 7.31222e-06 
943 1251 0 4.69983e-06 
943 499 0 6.23441e-06 
943 547 0 4.11169e-06 
699 2108 0 2.86601e-06 
699 2251 0 3.02275e-06 
2232 909 0 8.97613e-06 
2232 1005 0 5.55882e-06 
2232 243 0 6.90741e-06 
1005 1270 0 5.32822e-06 
152 2340 0 3.9855e-06 
1435 39 0 1.76396e-06 
278 2063 0 1.24994e-05 
1168 1679 0 3.97017e-06 
1370 1141 0 1.67786e-05 
1141 1761 0 3.87907e-05 
1761 1870 0 1.81367e-05 
1669 995 0 8.58206e-07 
1440 2374 0 2.80897e-06 
2398 1903 0 1.75326e-05 
2051 1686 0 2.58109e-06 
2051 1443 0 2.81092e-06 
80 1409 0 1.61434e-06 
80 1400 0 2.44233e-06 
1409 2380 0 1.76998e-06 
1409 1580 0 1.78548e-07 
830 1017 0 3.44615e-06 
105 571 0 4.05309e-06 
1251 2108 0 1.65681e-06 
2108 2340 0 1.12426e-06 
2108 1694 0 1.11748e-06 
1835 2251 0 2.40679e-06 
1877 1406 0 1.33226e-05 
1877 1045 0 1.33243e-05 
1679 919 0 2.79942e-05 
1679 951 0 2.55916e-05 
1258 2197 0 2.08628e-05 
283 1180 0 1.05377e-06 
2374 1950 0 4.37799e-06 
472 1214 0 2.37242e-06 
2243 907 0 1.97823e-06 
2012 2252 0 4.66214e-06 
907 571 0 2.49182e-06 
907 1950 0 9.44935e-07 
1443 1017 0 4.70448e-07 
1443 1364 0 2.54122e-07 
1443 2303 0 3.78271e-06 
571 2129 0 2.38373e-06 
1580 2343 0 1.8169e-06 
1017 1612 0 5.31943e-06 
1831 762 0 4.43039e-06 
1831 450 0 2.71705e-06 
1887 1579 0 7.0218e-07 
2380 2251 0 5.37528e-06 
2251 1445 0 3.79162e-07 
2251 1699 0 7.47469e-06 
58 1445 0 1.37635e-06 
1270 1134 0 7.45277e-06 
2340 296 0 5.97408e-06 
2083 574 0 1.0854e-06 
1259 1607 0 1.16668e-07 
1071 221 0 6.97719e-06 
1870 779 0 8.65129e-07 
429 942 0 2.3173e-07 
1214 1122 0 1.87502e-06 
2129 1579 0 2.53119e-07 
2129 2390 0 3.02556e-06 
1621 445 0 5.78283e-06 
1998 929 0 1.84881e-06 
1612 1445 0 2.80745e-06 
1612 1926 0 7.16426e-06 
2200 1244 0 8.60174e-07 
1209 1564 0 2.55959e-07 
1445 809 0 1.48338e-06 
1134 141 0 2.32458e-06 
1134 296 0 9.30905e-06 
296 1045 0 6.68094e-06 
296 1838 0 1.29805e-05 
1045 1699 0 6.34279e-06 
1045 1147 0 7.35416e-06 
575 2084 0 2.26909e-06 
2323 983 0 1.7046e-06 
951 806 0 3.40495e-05 
221 2101 0 3.70254e-06 
806 597 0 1.50862e-05 
779 1136 0 3.5311e-07 
1950 597 0 1.4793e-06 
1950 2390 0 3.18501e-06 
1950 1653 0 4.90982e-06 
2343 1114 0 4.33676e-06 
2343 2375 0 6.96242e-07 
1579 580 0 2.78558e-06 
450 1713 0 3.00296e-06 
809 1851 0 1.1675e-06 
1699 2110 0 1.13577e-05 
141 1520 0 1.95298e-06 
141 2107 0 1.76832e-06 
1147 2110 0 1.01329e-05 
574 2140 0 5.56363e-06 
574 1231 0 2.19752e-07 
983 1670 0 3.54029e-06 
1200 466 0 1.41016e-06 
135 745 0 2.49636e-06 
441 2101 0 4.44422e-07 
671 1328 0 1.71373e-07 
526 1193 0 2.01832e-06 
292 189 0 4.60679e-06 
233 76 0 2.54946e-06 
2386 2111 0 5.31872e-06 
2386 1302 0 2.01177e-06 
2386 1273 0 1.53029e-06 
2390 1114 0 6.07569e-07 
2390 1798 0 4.34581e-06 
1122 391 0 3.80387e-06 
1122 2306 0 6.51406e-07 
1462 205 0 7.83624e-07 
1653 205 0 4.93602e-06 
558 1926 0 6.49646e-06 
391 650 0 2.7002e-06 
1713 1988 0 3.46971e-06 
1944 430 0 3.09021e-07 
1926 2011 0 6.09272e-06 
1926 69 0 9.05756e-06 
1929 1824 0 2.7387e-06 
1929 773 0 2.12485e-06 
1929 311 0 1.56592e-06 
2375 69 0 1.49209e-06 
2375 656 0 5.64453e-07 
2011 1851 0 3.42497e-06 
580 755 0 2.56103e-06 
580 656 0 4.87937e-06 
1564 2385 0 1.05186e-06 
1520 1640 0 3.03695e-06 
2110 624 0 1.1624e-05 
2110 1002 0 1.41583e-05 
2107 2273 0 1.24714e-06 
1838 1640 0 3.97626e-06 
1838 952 0 1.14972e-05 
2347 1559 0 2.22387e-05 
1670 1770 0 1.08543e-05 
200 2194 0 2.64861e-06 
568 109 0 4.46631e-06 
466 1858 0 2.11552e-06 
1328 2071 0 8.51505e-07 
1269 253 0 4.20281e-06 
189 41 0 8.68478e-06 
1798 1193 0 2.97219e-06 
1798 253 0 4.11466e-06 
2306 2330 0 2.67498e-06 
430 567 0 1.12981e-06 
650 2208 0 5.18906e-07 
1988 205 0 1.26635e-06 
1988 567 0 3.51608e-06 
773 2385 0 1.4948e-06 
773 205 0 1.36645e-06 
773 1340 0 2.32281e-06 
69 1895 0 8.02885e-06 
2385 479 0 1.99486e-06 
755 479 0 1.05817e-06 
656 624 0 5.55629e-06 
635 157 0 9.25489e-07 
1523 2231 0 1.10145e-06 
1640 624 0 4.99824e-06 
1640 1913 0 5.2433e-06 
2273 1823 0 4.8215e-07 
2273 892 0 3.28608e-07 
2332 1316 0 4.72327e-08 
171 2194 0 1.71034e-05 
171 1856 0 5.70907e-06 
745 2116 0 4.8695e-06 
1322 128 0 4.45906e-07 
41 128 0 6.44141e-06 
1856 76 0 1.81011e-06 
1856 2256 0 2.26433e-06 
253 1979 0 2.52699e-06 
253 2018 0 4.15965e-06 
1273 2071 0 3.06933e-07 
1193 2221 0 2.84434e-06 
2208 1805 0 1.56036e-06 
205 554 0 3.39638e-06 
2125 2094 0 8.5735e-07 
157 1817 0 6.01995e-06 
157 1680 0 5.76762e-06 
1817 2090 0 4.52654e-06 
1680 1867 0 5.44665e-06 
479 1714 0 4.96473e-07 
479 713 0 2.59325e-06 
2228 713 0 1.26976e-06 
624 1867 0 1.23584e-05 
1823 1340 0 6.23996e-07 
1002 1606 0 9.26554e-06 
1002 2099 0 1.47956e-05 
2231 713 0 1.61763e-06 
952 969 0 1.19202e-05 
2329 1495 0 2.8859e-07 
2329 1606 0 2.16648e-06 
1583 1174 0 1.13703e-05 
2194 334 0 2.01804e-05 
2194 1431 0 2.11541e-06 
1011 1858 0 3.51508e-05 
1011 334 0 1.77331e-05 
2116 691 0 3.82325e-06 
2116 868 0 5.17613e-06 
1742 128 0 3.77017e-06 
128 2060 0 1.99181e-06 
1858 2259 0 4.57582e-06 
1156 2071 0 1.44745e-06 
2221 2256 0 2.00321e-06 
2221 1981 0 2.54693e-06 
2256 497 0 1.7523e-06 
971 953 0 2.0694e-06 
869 424 0 2.94643e-07 
1127 689 0 2.52106e-06 
1805 895 0 1.02178e-06 
2330 1704 0 5.32798e-06 
554 2175 0 1.59745e-06 
567 1959 0 4.97068e-06 
567 2175 0 4.09268e-06 
2094 1895 0 4.63844e-06 
2094 1959 0 3.01083e-06 
2094 2201 0 5.16549e-06 
1895 2072 0 5.38442e-06 
1895 2177 0 1.57533e-06 
2090 891 0 1.19417e-06 
2175 1340 0 5.02374e-06 
2175 1970 0 3.77186e-06 
1809 1280 0 3.33345e-06 
985 304 0 5.73196e-08 
1867 1039 0 1.27906e-05 
1867 605 0 2.03208e-06 
713 1885 0 3.32735e-06 
1913 906 0 5.97323e-06 
1495 119 0 4.46251e-07 
969 605 0 9.39398e-06 
1413 1504 0 1.56721e-06 
1504 667 0 3.35551e-06 
686 587 0 8.45601e-06 
686 667 0 2.02232e-05 
686 1162 0 9.27967e-06 
334 667 0 3.80844e-05 
2259 497 0 4.38881e-06 
2259 2112 0 1.25677e-06 
2018 860 0 4.22433e-06 
2018 1795 0 4.71248e-07 
689 1245 0 8.60294e-06 
689 1795 0 6.86215e-06 
1959 1795 0 7.71304e-06 
2072 895 0 2.81956e-06 
2072 1039 0 4.67095e-06 
2072 1524 0 2.28395e-06 
906 1039 0 2.66492e-06 
906 1280 0 4.69768e-06 
906 1885 0 2.93994e-06 
2099 1524 0 1.21613e-05 
2099 561 0 5.79239e-06 
1292 19 0 2.98157e-07 
125 418 0 4.33069e-06 
3 998 0 1.1612e-06 
800 1535 0 6.80765e-07 
587 1535 0 1.31206e-06 
998 868 0 1.62357e-06 
1535 342 0 1.71165e-06 
1162 2280 0 1.6964e-06 
342 497 0 4.0503e-06 
342 2060 0 3.02479e-06 
2060 1844 0 6.6488e-06 
1844 2201 0 8.32825e-06 
1704 2226 0 2.30429e-06 
2201 895 0 2.7843e-06 
301 1524 0 3.456e-06 
561 1859 0 1.53193e-06 
1859 119 0 1.09889e-06 
1859 107 0 5.25673e-07 
560 1644 0 1.09095e-05 
2070 2336 0 3.9361e-06 
2070 2118 0 6.20317e-06 
2336 2333 0 1.44535e-05 
2336 600 0 2.06186e-05 
1644 1358 0 6.82491e-06 
2118 2248 0 3.77616e-06 
457 42 0 1.20801e-06 
2293 186 0 2.34637e-05 
1666 459 0 3.809e-05 
2416 282 0 3.21393e-06 
2416 636 0 2.90471e-06 
976 332 0 2.50795e-05 
1253 332 0 6.97333e-07 
1380 440 0 5.86677e-06 
965 1489 0 1.21918e-05 
440 1448 0 4.52368e-06 
1455 1160 0 6.48921e-08 
1489 1126 0 1.78017e-06 
1489 1698 0 1.21177e-05 
1866 1698 0 4.26621e-06 
1866 1355 0 1.18788e-06 
1866 1961 0 4.82304e-06 
1698 1367 0 1.00434e-05 
1961 1295 0 1.39844e-06 
1367 805 0 2.54684e-06 
1367 2345 0 1.03122e-05 
923 1982 0 4.25236e-06 
923 340 0 1.29326e-05 
1982 1228 0 1.06264e-05 
2345 1330 0 6.22185e-06 
2345 1228 0 8.12181e-06 
1295 629 0 4.37196e-06 
340 2314 0 1.21236e-05 
340 1648 0 3.77242e-06 
2317 1982 0 4.73344e-07 
1228 839 0 3.44715e-06 
839 1364 0 8.31911e-07 
1874 629 0 2.9858e-06 
1874 1616 0 1.75052e-06 