ITEM: TIMESTEP
20000000
ITEM: NUMBER OF ENTRIES
1981
ITEM: BOX BOUNDS ff ff ff
-0.01 0.45
-0.15 0.15
-0.08 0.1
ITEM: ENTRIES c_pwc[1] c_pwc[2] c_pwc[3] 
0 932 5636 
0 932 2134 
0 930 2585 
0 930 6944 
0 930 7216 
0 930 6159 
0 928 2379 
0 928 5017 
0 926 2941 
0 926 4215 
0 926 2447 
0 926 7101 
0 926 278 
0 926 2818 
0 924 2447 
0 924 2338 
0 924 5867 
0 924 2105 
0 922 20 
0 922 141 
0 922 4006 
0 922 5968 
0 922 5568 
0 922 1338 
0 922 7074 
0 922 3516 
0 920 280 
0 920 3986 
0 920 7356 
0 920 4889 
0 792 280 
0 792 3986 
0 792 4889 
0 790 20 
0 790 141 
0 790 4006 
0 790 5968 
0 790 5568 
0 790 1338 
0 790 7074 
0 790 3516 
0 788 2447 
0 788 5867 
0 788 2105 
0 786 2941 
0 786 4215 
0 786 7101 
0 786 2818 
0 782 2585 
0 782 7216 
0 780 5636 
0 787 278 
0 785 2379 
0 785 5017 
0 783 6944 
0 783 6159 
0 781 2134 
0 952 1796 
0 952 1405 
0 952 723 
0 950 1130 
0 950 1967 
0 950 3336 
0 950 2973 
0 950 422 
0 950 1039 
0 950 5252 
0 950 130 
0 944 508 
0 944 535 
0 942 508 
0 940 3858 
0 940 1517 
0 774 7604 
0 772 3858 
0 772 1517 
0 770 508 
0 764 1130 
0 762 1967 
0 762 3336 
0 762 1039 
0 762 5252 
0 762 130 
0 760 1796 
0 760 1405 
0 760 723 
0 763 1130 
0 763 2973 
0 763 422 
0 938 7604 
0 884 1025 
0 884 5577 
0 884 250 
0 884 1880 
0 884 1070 
0 884 4607 
0 884 1892 
0 884 3299 
0 884 609 
0 884 5630 
0 884 2160 
0 884 256 
0 884 1083 
0 884 6035 
0 884 31 
0 884 1654 
0 884 6985 
0 884 2940 
0 884 201 
0 884 3676 
0 884 7708 
0 884 5590 
0 884 1250 
0 884 838 
0 884 7460 
0 884 5743 
0 884 866 
0 884 7206 
0 884 4235 
0 884 3391 
0 884 3294 
0 884 975 
0 884 1942 
0 884 7814 
0 884 7102 
0 870 5787 
0 854 4403 
0 854 7182 
0 854 2657 
0 854 2537 
0 854 3015 
0 854 5320 
0 854 1060 
0 854 4878 
0 854 940 
0 854 7627 
0 854 4300 
0 854 6545 
0 854 5274 
0 854 4991 
0 854 7777 
0 854 892 
0 854 4117 
0 854 1228 
0 854 4341 
0 854 1880 
0 854 1337 
0 854 6736 
0 854 6610 
0 854 4954 
0 854 3621 
0 854 3120 
0 854 5408 
0 854 6671 
0 854 1036 
0 854 1661 
0 854 1845 
0 854 285 
0 854 3319 
0 854 6521 
0 854 2031 
0 854 7657 
0 854 1600 
0 854 3692 
0 854 1766 
0 854 4738 
0 854 4005 
0 854 4475 
0 854 2322 
0 854 7339 
0 850 1025 
0 850 250 
0 850 4607 
0 850 1892 
0 850 32 
0 850 256 
0 850 1083 
0 850 6035 
0 850 31 
0 850 336 
0 850 810 
0 850 479 
0 850 2940 
0 850 201 
0 850 2052 
0 850 495 
0 850 1250 
0 850 838 
0 850 866 
0 850 1002 
0 850 6393 
0 850 3294 
0 834 1753 
0 918 823 
0 918 2867 
0 918 3514 
0 916 4851 
0 916 6190 
0 916 360 
0 916 1293 
0 916 4247 
0 916 3025 
0 916 797 
0 916 914 
0 916 1807 
0 916 1658 
0 914 6334 
0 914 1753 
0 914 1339 
0 914 1934 
0 914 6220 
0 914 2513 
0 914 1677 
0 914 101 
0 914 6136 
0 914 3913 
0 912 392 
0 912 1365 
0 912 6247 
0 912 7839 
0 912 2716 
0 910 4798 
0 910 284 
0 885 32 
0 885 336 
0 885 810 
0 885 479 
0 885 2052 
0 885 495 
0 885 1002 
0 885 3333 
0 885 6393 
0 853 4738 
0 853 6126 
0 853 2160 
0 853 3337 
0 853 6985 
0 853 3655 
0 853 2676 
0 853 1855 
0 853 672 
0 853 6096 
0 853 4302 
0 853 5247 
0 853 1565 
0 853 5578 
0 853 6352 
0 853 1426 
0 802 392 
0 802 4798 
0 802 284 
0 800 1753 
0 800 392 
0 800 2513 
0 800 1365 
0 800 6247 
0 800 7839 
0 800 2716 
0 798 6334 
0 798 1339 
0 798 360 
0 798 1934 
0 798 6220 
0 798 1677 
0 798 101 
0 798 6136 
0 798 3913 
0 796 4851 
0 796 6190 
0 796 1293 
0 796 4247 
0 796 3025 
0 796 797 
0 796 914 
0 796 1807 
0 796 1658 
0 794 823 
0 794 2867 
0 795 3514 
0 855 6919 
0 852 4292 
0 852 4475 
0 852 5298 
0 852 4657 
0 852 3615 
0 852 7154 
0 852 6347 
0 852 7228 
0 852 2176 
0 852 7138 
0 852 4234 
0 852 1457 
0 852 4433 
0 852 4077 
0 852 4696 
0 852 3317 
0 852 7325 
0 852 599 
0 852 2326 
0 852 4855 
0 852 7103 
0 852 5400 
0 852 7444 
0 852 3814 
0 908 2257 
0 908 7727 
0 894 2171 
0 894 1546 
0 894 1580 
0 894 1144 
0 894 1050 
0 894 799 
0 894 2857 
0 894 1361 
0 894 5816 
0 894 5676 
0 894 3973 
0 894 3051 
0 894 4552 
0 894 3950 
0 894 4600 
0 894 6222 
0 894 2666 
0 894 3046 
0 894 4676 
0 894 743 
0 894 4909 
0 894 6960 
0 894 2485 
0 855 2245 
0 855 6073 
0 855 3812 
0 855 4361 
0 855 381 
0 855 5702 
0 855 140 
0 855 5796 
0 855 6738 
0 855 188 
0 855 5003 
0 855 2128 
0 855 6684 
0 855 2639 
0 855 2833 
0 855 1163 
0 855 139 
0 855 6253 
0 855 5180 
0 855 89 
0 855 3883 
0 855 3040 
0 855 2674 
0 855 5294 
0 855 1411 
0 855 1296 
0 855 5224 
0 852 2453 
0 852 306 
0 852 6959 
0 852 5678 
0 852 2155 
0 736 2257 
0 962 327 
0 962 45 
0 960 580 
0 960 220 
0 960 5446 
0 960 5187 
0 958 5446 
0 956 774 
0 954 307 
0 954 2935 
0 954 338 
0 895 2257 
0 895 7727 
0 895 2823 
0 758 307 
0 758 2935 
0 758 338 
0 756 774 
0 754 5446 
0 754 5187 
0 752 580 
0 752 220 
0 750 327 
0 750 45 
0 750 7727 
0 749 7727 
0 872 5560 
0 854 4834 
0 854 855 
0 854 2396 
0 854 3139 
0 854 7058 
0 854 4308 
0 854 2089 
0 938 1399 
0 932 5112 
0 928 4839 
0 926 2777 
0 926 1143 
0 926 1162 
0 924 4636 
0 924 6043 
0 920 1037 
0 792 4168 
0 788 3788 
0 786 2777 
0 786 1143 
0 786 5357 
0 933 1508 
0 927 5357 
0 925 3788 
0 923 2261 
0 921 4168 
0 793 1037 
0 787 1162 
0 781 5112 
0 781 1508 
0 952 635 
0 946 709 
0 944 7416 
0 772 2649 
0 768 7416 
0 766 709 
0 953 1005 
0 941 2649 
1 2721 2614 
1 2721 6772 
1 2721 6701 
1 2721 2344 
1 2721 1328 
1 2706 7683 
1 2706 2614 
1 2706 6772 
1 2706 6701 
1 2706 1328 
1 2691 1124 
1 2691 1985 
1 2691 5136 
1 2691 1555 
1 2691 164 
1 2691 917 
1 842 347 
1 842 2066 
1 842 2739 
1 842 3271 
1 842 167 
1 842 1072 
1 2680 1985 
1 2680 1555 
1 2709 1124 
1 2709 1985 
1 2709 5136 
1 2709 1555 
1 2709 164 
1 2709 917 
1 2720 4113 
1 2720 2434 
1 2720 3243 
1 2720 2696 
1 2708 4113 
1 2708 2434 
1 2708 3243 
1 2708 2696 
1 2707 2434 
1 2707 3243 
1 2707 1328 
1 2690 4358 
1 2710 7303 
1 2718 4113 
1 2718 2696 
1 2719 4113 
1 2719 2434 
1 2719 2344 
1 2719 2696 
1 2676 7303 
1 2705 7683 
1 2705 2614 
1 2705 1328 
1 2704 7683 
1 2722 7683 
1 2722 2614 
1 2722 6772 
1 2722 6701 
1 2722 2344 
1 2722 1328 
1 2698 7683 
1 2698 7947 
1 2698 6772 
1 2698 6701 
1 2698 4695 
1 2717 7683 
1 2717 7947 
1 2717 4695 
1 2717 1762 
1 99 71 
1 99 4358 
1 100 71 
1 66 71 
1 66 4358 
1 102 2880 
1 2510 73 
1 67 71 
1 67 4358 
1 103 2880 
1 2519 73 
1 2520 73 
1 65 71 
1 65 4358 
1 101 2880 
1 61 7303 
1 97 2880 
1 2650 2344 
1 2667 3752 
1 96 2880 
1 2508 217 
1 2508 6285 
1 70 7303 
1 70 1430 
1 70 3646 
1 71 3752 
1 71 7303 
1 71 3646 
1 2649 2344 
1 60 1430 
1 60 3646 
1 2703 1798 
1 2703 3587 
1 2703 1762 
1 2509 1628 
1 2509 3928 
1 2522 217 
1 2517 1430 
1 2702 1798 
1 2702 3587 
1 2702 1762 
1 94 4708 
1 94 1979 
1 2716 2344 
1 2645 2344 
1 75 3752 
1 127 264 
1 116 264 
1 95 264 
1 95 4708 
1 95 1979 
1 93 4708 
1 117 264 
1 2523 1267 
1 2523 217 
1 2516 1628 
1 72 3752 
1 72 7303 
1 72 1430 
1 72 3646 
1 74 3752 
1 74 2546 
1 74 5059 
1 118 264 
1 91 264 
1 2505 1267 
1 2505 6285 
1 78 2546 
1 78 5059 
1 78 415 
1 2500 1628 
1 92 264 
1 92 4708 
1 92 1979 
1 73 2546 
1 2655 2382 
1 2663 2382 
1 77 5059 
1 77 415 
1 2701 1798 
1 2701 5693 
1 2701 3587 
1 2701 5982 
1 2701 1762 
1 2686 1762 
1 83 2382 
1 83 5059 
1 80 2382 
1 86 2070 
1 2725 1798 
1 2725 5693 
1 2725 3587 
1 2725 5982 
1 2725 1762 
1 2699 264 
1 82 2382 
1 82 800 
1 76 415 
1 2696 264 
1 2696 3142 
1 87 2070 
1 84 800 
1 2528 5413 
1 2512 1267 
1 85 2070 
1 85 800 
1 85 3392 
1 2499 1366 
1 81 2382 
1 81 800 
1 2695 264 
1 2506 5143 
1 2715 3142 
1 2714 3142 
1 2687 1762 
1 2525 6562 
1 2524 6562 
1 2524 3392 
1 2502 1366 
1 2502 6049 
1 2712 2070 
1 2503 463 
1 2504 6562 
1 2694 3142 
1 2501 3039 
1 2501 6562 
1 2501 960 
1 2713 3142 
1 787 347 
1 787 2845 
1 787 3039 
1 841 2066 
1 841 2739 
1 841 4245 
1 841 3271 
1 841 167 
1 841 1072 
1 788 3039 
0 918 3953 
0 918 6293 
0 916 1907 
0 910 6666 
0 910 3217 
0 910 596 
0 910 5162 
0 910 3802 
0 910 4560 
0 910 5916 
0 909 596 
0 909 4560 
0 885 1725 
0 885 2298 
0 885 5457 
0 885 5882 
0 885 1812 
0 885 2347 
0 885 3496 
0 885 6887 
0 885 2063 
0 885 3693 
0 885 6102 
0 885 5001 
0 885 6099 
0 885 4986 
0 885 550 
0 885 41 
0 885 6413 
0 885 454 
0 885 4319 
0 885 3623 
0 885 973 
0 885 4089 
0 885 1694 
0 885 2427 
0 885 1987 
0 885 2303 
0 885 52 
0 885 883 
0 885 836 
0 885 1065 
0 885 689 
0 885 2389 
0 885 4989 
0 885 551 
0 885 180 
0 885 329 
0 885 794 
0 885 585 
0 885 1313 
0 885 515 
0 885 2853 
0 885 562 
0 885 1091 
0 885 3873 
0 885 1044 
0 885 70 
0 885 465 
0 885 4003 
0 885 364 
0 885 149 
0 885 1445 
0 885 57 
0 885 2317 
0 885 733 
0 885 2582 
0 885 2254 
0 885 1977 
0 885 1908 
0 885 615 
0 885 3304 
0 885 131 
0 885 5 
0 885 1000 
0 885 2167 
0 885 443 
0 885 815 
0 885 272 
0 885 12 
0 885 138 
0 885 4541 
0 885 5971 
0 885 3126 
0 885 189 
0 885 129 
0 885 1203 
0 885 244 
0 885 5724 
0 885 128 
0 885 3568 
0 885 3917 
0 885 1970 
0 885 277 
0 885 2592 
0 885 27 
0 885 99 
0 885 4716 
0 885 93 
0 885 981 
0 885 56 
0 885 548 
0 885 2180 
0 885 7054 
0 885 787 
0 885 1062 
0 885 4160 
0 885 3088 
0 885 5004 
0 885 1831 
0 885 6033 
0 853 3784 
0 853 5966 
0 853 5409 
0 853 5013 
0 853 579 
0 853 2380 
0 853 4503 
0 853 3930 
0 853 6289 
0 853 7015 
0 853 6527 
0 853 447 
0 853 1166 
0 853 4151 
0 853 608 
0 853 6327 
0 853 924 
0 853 3268 
0 853 7239 
0 853 2000 
0 853 2516 
0 853 5066 
0 853 2491 
0 853 2062 
0 853 6245 
0 853 3465 
0 853 7599 
0 853 3462 
0 853 6835 
0 853 4069 
0 853 2651 
0 853 2198 
0 853 5353 
0 853 5574 
0 853 7026 
0 853 2670 
0 853 874 
0 853 6084 
0 853 4869 
0 853 2858 
0 853 2045 
0 853 7121 
0 853 5514 
0 853 6669 
0 853 527 
0 853 3032 
0 853 4228 
0 853 3510 
0 853 7380 
0 853 7179 
0 853 4777 
0 851 2389 
0 851 4989 
0 851 1044 
0 851 2317 
0 851 733 
0 851 2582 
0 851 2254 
0 851 272 
0 851 12 
0 851 138 
0 851 1203 
0 851 244 
0 851 5724 
0 851 128 
0 851 3568 
0 851 3917 
0 851 1970 
0 851 277 
0 851 981 
0 851 56 
0 851 548 
0 851 2180 
0 851 7054 
0 851 787 
0 851 1062 
0 851 4160 
0 851 3088 
0 851 5004 
0 804 6666 
0 804 596 
0 804 4560 
0 802 4945 
0 802 5929 
0 911 4945 
0 911 5929 
0 803 6666 
0 803 3217 
0 803 5162 
0 803 3802 
0 803 5916 
0 797 1907 
0 795 3953 
0 795 6293 
0 884 3727 
0 884 7706 
0 884 1594 
0 884 2226 
0 884 3165 
0 884 4293 
0 884 7120 
0 884 3784 
0 884 7752 
0 884 4558 
0 884 1886 
0 884 7718 
0 884 681 
0 884 2570 
0 884 4474 
0 884 5386 
0 884 7537 
0 884 4436 
0 884 6289 
0 884 5838 
0 884 5088 
0 884 7152 
0 884 3115 
0 884 3084 
0 884 3402 
0 884 2605 
0 884 4666 
0 884 2062 
0 884 3903 
0 884 4586 
0 884 6148 
0 884 5402 
0 884 5634 
0 884 3008 
0 850 1725 
0 850 3727 
0 850 2298 
0 850 5457 
0 850 5882 
0 850 1812 
0 850 2347 
0 850 3496 
0 850 2226 
0 850 6887 
0 850 2063 
0 850 3693 
0 850 6102 
0 850 5001 
0 850 6099 
0 850 550 
0 850 41 
0 850 6413 
0 850 454 
0 850 4319 
0 850 3623 
0 850 973 
0 850 1694 
0 850 2427 
0 850 1987 
0 850 2303 
0 850 52 
0 850 883 
0 850 836 
0 850 1065 
0 850 689 
0 850 551 
0 850 180 
0 850 329 
0 850 794 
0 850 585 
0 850 1313 
0 850 515 
0 850 2853 
0 850 562 
0 850 1091 
0 850 3873 
0 850 70 
0 850 465 
0 850 4003 
0 850 364 
0 850 149 
0 850 1445 
0 850 57 
0 850 1908 
0 850 615 
0 850 3304 
0 850 131 
0 850 5 
0 850 1000 
0 850 2167 
0 850 443 
0 850 815 
0 850 4541 
0 850 5971 
0 850 3126 
0 850 189 
0 850 129 
0 850 2592 
0 850 27 
0 850 99 
0 850 4716 
0 850 93 
0 852 7507 
0 852 6203 
0 852 5891 
0 852 7478 
0 852 7013 
0 964 2712 
0 962 978 
0 962 3470 
0 962 6916 
0 960 3188 
0 960 4975 
0 958 3302 
0 956 4306 
0 956 6386 
0 954 3448 
0 954 4944 
0 895 2756 
0 895 856 
0 895 7311 
0 895 4132 
0 895 4428 
0 895 6785 
0 895 4617 
0 895 4926 
0 895 6938 
0 895 4468 
0 895 719 
0 895 7215 
0 895 486 
0 895 724 
0 895 6569 
0 895 999 
0 895 350 
0 895 7224 
0 895 698 
0 895 2712 
0 895 6577 
0 895 5802 
0 756 4451 
0 752 3188 
0 752 5144 
0 750 978 
0 750 3470 
0 750 520 
0 749 2712 
0 963 520 
0 961 5144 
0 961 3791 
0 957 4451 
0 957 215 
0 759 3448 
0 759 4944 
0 757 4306 
0 757 6386 
0 757 215 
0 755 3302 
0 753 4975 
0 753 3791 
0 751 6916 
0 894 3287 
0 894 2090 
0 894 2264 
0 894 3031 
0 894 2023 
0 894 6885 
0 894 4660 
0 894 3309 
0 894 2102 
0 894 5156 
0 894 6572 
0 894 474 
0 894 2706 
0 894 6906 
0 894 3487 
0 894 7457 
0 894 6856 
0 853 1376 
1 662 592 
1 477 2384 
1 1895 4072 
1 1895 6227 
1 1895 7371 
1 1894 3820 
1 1894 1913 
1 1894 153 
1 1894 7738 
1 1850 4167 
1 1850 4336 
1 1857 4167 
1 1857 4072 
1 1857 1438 
1 1857 6227 
1 1857 993 
1 1857 3512 
1 1857 7371 
1 1857 5078 
1 1857 3820 
1 1857 5295 
1 1857 494 
1 1857 1913 
1 1857 1675 
1 1857 153 
1 1857 3176 
1 1857 2194 
1 1857 4032 
1 1857 4022 
1 1857 4822 
1 1857 3058 
1 1857 5015 
1 1857 5362 
1 1857 3481 
1 1857 3013 
1 1857 5985 
1 1857 806 
1 1857 2406 
1 1857 166 
1 1857 3780 
1 1857 213 
1 1857 3096 
1 1857 2021 
1 1857 2569 
1 1857 369 
1 1857 5540 
1 1857 1164 
1 1857 1635 
1 1875 4167 
1 1875 4072 
1 1875 1438 
1 1875 6227 
1 1875 993 
1 1875 3512 
1 1875 7371 
1 1875 5078 
1 1875 3820 
1 1875 5295 
1 1875 494 
1 1875 1913 
1 1875 1675 
1 1875 153 
1 1875 3176 
1 1875 2194 
1 1875 4336 
1 1875 4032 
1 1875 4022 
1 1875 4822 
1 1875 3058 
1 1875 5015 
1 1875 5362 
1 1875 3481 
1 1875 3013 
1 1875 5985 
1 1875 806 
1 1875 2406 
1 1875 166 
1 1875 3780 
1 1875 213 
1 1875 3096 
1 1875 2021 
1 1875 369 
1 1875 5540 
1 1875 957 
1 1896 7738 
1 1856 4336 
1 1856 957 
1 1856 669 
1 1851 957 
1 1897 7738 
1 1862 6105 
1 1862 46 
1 1862 837 
1 1864 2194 
1 1864 7738 
1 1864 4404 
1 1864 3780 
1 1864 2841 
1 1864 7585 
1 1864 7803 
1 1864 7581 
1 1864 7403 
1 1864 1635 
1 1864 669 
1 1863 4404 
1 1863 2841 
1 1863 7585 
1 1863 7803 
1 1863 7581 
1 1881 2194 
1 1881 7738 
1 1881 4404 
1 1881 2841 
1 1881 7585 
1 1881 7803 
1 1881 7581 
1 1881 7403 
1 1881 837 
1 1879 2569 
1 1879 1164 
1 1879 1635 
1 1879 4561 
1 1880 2194 
1 1880 7738 
1 1880 3780 
1 1880 7403 
1 1880 1635 
1 1880 669 
1 1692 4375 
1 562 4375 
1 513 4339 
1 514 2384 
1 514 4339 
1 515 2384 
1 515 4339 
1 516 2384 
1 516 4339 
1 476 2384 
1 1691 7132 
1 1691 363 
1 1861 7783 
1 1861 5545 
1 1874 6105 
1 1874 46 
1 1874 837 
1 1874 7783 
1 1874 5545 
1 1882 6105 
1 1882 46 
1 1882 837 
1 1883 6105 
1 1883 46 
1 1883 837 
1 1889 6105 
1 1889 46 
1 1889 837 
1 1890 6105 
1 1890 46 
1 1890 837 
1 1890 7783 
1 1890 5045 
1 1890 5545 
1 560 7132 
1 484 669 
1 484 4561 
1 1695 7132 
1 485 2321 
1 485 4561 
1 486 2321 
1 1845 669 
1 559 577 
1 1891 837 
1 1891 7783 
1 1891 5545 
1 487 575 
1 487 2321 
1 1828 5045 
1 488 575 
1 488 2321 
1 488 1078 
1 1842 5045 
1 1694 3992 
1 1694 577 
1 1694 7132 
1 1831 5045 
1 1827 5045 
1 660 4872 
1 660 373 
1 660 3980 
1 660 24 
1 660 5955 
1 490 1078 
1 491 3240 
1 491 1078 
1 493 3240 
1 492 1078 
1 555 577 
1 495 301 
1 1693 5955 
1 1693 3992 
1 1693 812 
1 494 2588 
1 494 301 
1 494 3240 
1 554 2588 
1 1697 812 
1 1697 1348 
1 1892 7783 
1 1892 5045 
1 497 301 
1 496 301 
1 1696 592 
1 763 1137 
1 763 592 
1 661 4872 
1 661 373 
1 661 24 
1 661 5955 
0 935 7498 
0 933 841 
0 931 3423 
0 929 863 
0 925 847 
0 923 6663 
0 921 1256 
0 793 1256 
0 791 6663 
0 789 847 
0 785 863 
0 733 1256 
0 288 1256 
1 2258 524 
1 2258 4549 
1 2274 524 
1 2274 4549 
1 2287 524 
1 2287 4549 
1 2276 524 
1 2275 524 
1 2289 524 
0 953 1931 
0 953 1381 
0 953 2717 
0 953 5909 
0 953 2608 
0 951 7493 
0 761 1381 
0 946 7053 
0 760 1931 
0 760 2717 
0 760 5909 
0 760 2608 
1 791 85 
1 789 85 
1 789 665 
1 841 721 
1 841 85 
1 841 665 
1 842 721 
0 919 5361 
0 919 2497 
0 919 1971 
0 917 421 
0 917 1995 
0 917 4705 
0 917 5745 
0 915 74 
0 915 77 
0 915 7634 
0 915 2625 
0 915 501 
0 915 2637 
0 913 1797 
0 913 485 
0 913 1067 
0 913 1326 
0 913 5339 
0 913 2566 
0 913 2388 
0 913 6408 
0 911 1216 
0 911 104 
0 911 4179 
0 902 3609 
0 902 1804 
0 900 906 
0 900 1093 
0 890 7946 
0 890 5868 
0 889 6026 
0 889 7010 
0 888 1059 
0 888 4901 
0 888 6483 
0 888 6846 
0 888 4569 
0 888 2527 
0 888 5263 
0 888 6928 
0 888 7043 
0 888 6522 
0 888 3916 
0 888 5365 
0 888 4026 
0 888 3232 
0 888 3833 
0 888 686 
0 888 850 
0 888 5235 
0 888 1232 
0 888 3229 
0 888 3808 
0 888 4580 
0 888 1525 
0 888 7536 
0 888 6357 
0 888 1449 
0 888 3881 
0 886 178 
0 886 75 
0 886 184 
0 886 2 
0 886 467 
0 886 39 
0 886 6 
0 886 84 
0 886 195 
0 886 634 
0 886 889 
0 886 297 
0 886 1241 
0 810 178 
0 803 7368 
0 803 1216 
0 803 104 
0 803 4179 
0 801 1797 
0 801 485 
0 801 1067 
0 801 1326 
0 801 5339 
0 801 2566 
0 801 2388 
0 801 6408 
0 799 5759 
0 799 74 
0 799 77 
0 799 7634 
0 799 2625 
0 799 501 
0 797 421 
0 797 1995 
0 797 4705 
0 797 5745 
0 795 5361 
0 795 2497 
0 795 1971 
0 742 1804 
0 671 2637 
0 357 2637 
0 914 5759 
0 910 7368 
0 885 1432 
0 885 1079 
0 885 224 
0 885 2965 
0 885 222 
0 885 1200 
0 885 1581 
0 885 2363 
0 885 633 
0 885 3 
0 885 75 
0 885 184 
0 885 3583 
0 885 3627 
0 885 2 
0 885 467 
0 885 972 
0 885 39 
0 885 6 
0 885 84 
0 885 979 
0 885 195 
0 885 634 
0 885 662 
0 885 889 
0 885 345 
0 885 297 
0 885 1241 
0 885 6593 
0 885 5868 
0 853 3376 
0 853 4847 
0 853 5782 
0 853 7256 
0 853 3193 
0 853 1329 
0 853 1647 
0 853 6357 
0 851 224 
0 851 2965 
0 851 222 
0 851 1200 
0 851 1581 
0 851 2363 
0 851 633 
0 851 178 
0 851 75 
0 851 184 
0 851 3583 
0 851 3627 
0 851 2 
0 851 467 
0 851 972 
0 851 39 
0 851 6 
0 851 84 
0 851 979 
0 851 195 
0 851 634 
0 851 662 
0 851 889 
0 851 345 
0 851 297 
0 851 1241 
0 804 7368 
0 850 1432 
0 850 1079 
0 850 3 
0 891 3929 
0 814 3929 
0 744 906 
0 744 1093 
0 966 4396 
0 965 6891 
0 965 1428 
0 965 3520 
0 963 6690 
0 963 6651 
0 963 279 
0 963 496 
0 963 206 
0 963 3086 
0 963 6707 
0 963 1490 
0 963 1340 
0 961 705 
0 961 3734 
0 961 564 
0 961 2146 
0 961 673 
0 961 1475 
0 961 1113 
0 961 148 
0 961 1711 
0 961 2645 
0 961 477 
0 961 502 
0 961 1481 
0 959 7900 
0 959 1380 
0 959 2871 
0 959 4685 
0 959 1906 
0 959 1642 
0 959 982 
0 959 3137 
0 959 7328 
0 959 5631 
0 959 498 
0 959 3879 
0 959 4498 
0 957 4406 
0 957 920 
0 957 117 
0 957 2019 
0 957 2847 
0 957 7789 
0 957 1125 
0 957 7962 
0 957 1751 
0 957 1526 
0 955 4800 
0 955 6801 
0 955 1248 
0 955 4129 
0 955 1364 
0 955 4868 
0 955 1673 
0 955 4736 
0 955 2335 
0 955 3575 
0 955 6268 
0 955 522 
0 955 136 
0 955 3195 
0 955 821 
0 955 6205 
0 955 3047 
0 955 606 
0 955 1856 
0 955 236 
0 893 2568 
0 892 3577 
0 892 1231 
0 892 5115 
0 891 6520 
0 887 5388 
0 887 7454 
0 887 6265 
0 887 2997 
0 759 4800 
0 759 6801 
0 759 1364 
0 759 4868 
0 759 4736 
0 759 6268 
0 759 522 
0 759 136 
0 759 3195 
0 759 6205 
0 759 3047 
0 759 606 
0 759 1856 
0 757 4406 
0 757 920 
0 757 117 
0 757 2019 
0 757 2847 
0 757 236 
0 757 1125 
0 757 1751 
0 757 1526 
0 755 7900 
0 755 1380 
0 755 2871 
0 755 4685 
0 755 1906 
0 755 1642 
0 755 982 
0 755 3137 
0 755 5631 
0 755 498 
0 755 3879 
0 753 705 
0 753 3734 
0 753 564 
0 753 1475 
0 753 1113 
0 753 148 
0 753 1711 
0 753 2645 
0 753 477 
0 753 502 
0 753 1481 
0 751 6690 
0 751 6651 
0 751 279 
0 751 496 
0 751 206 
0 751 3086 
0 751 6707 
0 751 1490 
0 751 1340 
0 747 4396 
0 747 1428 
0 747 3520 
0 744 4457 
0 744 1730 
0 737 6891 
0 895 2047 
0 895 5038 
0 895 135 
0 758 1248 
0 758 4129 
0 758 1673 
0 758 2335 
0 758 3575 
0 758 821 
0 758 236 
0 754 7328 
0 754 4498 
0 752 2146 
0 752 673 
0 900 4457 
0 900 1730 
0 888 231 
0 888 4641 
0 888 600 
0 888 7658 
0 888 5420 
0 888 5335 
0 888 1260 
0 888 1633 
0 888 786 
0 888 3876 
0 888 2810 
0 888 7229 
1 1690 240 
1 1690 125 
1 565 240 
1 512 2644 
1 511 2644 
1 566 6331 
1 1686 125 
1 510 2644 
1 508 3450 
1 508 832 
1 507 3450 
1 507 832 
1 548 6397 
1 1687 176 
1 1687 2118 
1 505 3450 
1 505 832 
1 505 1384 
1 541 6397 
1 547 6397 
1 504 1384 
1 1872 1138 
1 1872 199 
1 524 6397 
1 546 6397 
1 523 6397 
1 557 6331 
1 522 6397 
1 545 6397 
1 503 1384 
1 520 6397 
1 521 6397 
1 502 1384 
1 1871 199 
1 558 2118 
1 483 1450 
1 1870 7732 
1 1870 199 
1 1869 7732 
1 1869 199 
1 648 79 
1 1868 6397 
1 1868 5947 
1 1868 7732 
1 1868 199 
1 482 7279 
1 1893 7732 
1 1893 199 
1 480 7279 
1 481 7279 
1 481 1450 
1 500 802 
1 1698 4413 
1 1698 6307 
1 1698 1988 
1 1698 2118 
1 499 7279 
1 499 802 
1 498 802 
1 497 802 
1 496 802 
1 1866 2174 
1 1699 2346 
1 1865 1172 
1 1865 2174 
1 1859 458 
1 1859 1172 
1 1859 2975 
1 1867 3064 
1 1867 3024 
1 1867 5947 
1 1867 7732 
1 1867 7588 
1 1867 199 
1 1867 2174 
1 1887 3064 
1 1855 7279 
1 1888 1172 
1 1888 3064 
1 1888 2174 
1 1886 3064 
1 1886 3024 
1 1886 5947 
1 1886 7732 
1 1886 7588 
1 1886 199 
1 1696 3919 
1 1854 7279 
1 1876 7279 
1 1876 802 
1 1876 458 
1 1858 5597 
1 1858 409 
1 1858 2174 
1 655 4413 
1 655 2142 
1 655 1988 
1 655 954 
1 1877 458 
1 1877 1172 
1 1877 2975 
1 1877 5597 
1 1877 409 
1 1877 2174 
1 1903 2174 
1 763 4413 
1 763 2142 
1 763 954 
1 649 79 
1 657 1988 
1 657 79 
1 656 1988 
1 656 79 
1 513 2644 
1 514 2644 
1 1891 1138 
0 385 2515 
0 385 1918 
0 381 568 
0 375 624 
0 371 1609 
0 369 6332 
0 369 5063 
0 367 899 
0 368 3766 
0 481 6457 
0 401 2043 
0 399 6457 
0 393 3270 
0 391 5200 
0 437 7941 
0 409 1001 
0 386 3962 
0 368 4305 
0 381 7897 
0 371 4161 
0 367 3925 
1 2134 648 
1 2125 648 
1 2123 648 
0 486 1885 
0 482 1460 
0 480 3600 
0 402 3600 
0 396 1885 
0 396 1852 
0 485 1852 
0 401 7402 
0 399 1460 
0 427 6679 
0 470 3283 
0 470 2181 
0 468 4755 
0 466 1610 
0 464 6114 
0 418 6114 
0 416 1610 
0 412 2181 
0 408 4622 
0 473 4622 
0 413 4755 
0 411 3283 
1 1719 941 
1 1707 941 
1 1705 941 
0 647 4123 
0 537 4123 
0 514 2426 
0 496 2559 
0 496 3828 
0 386 2559 
0 386 3828 
0 368 2426 
0 364 6465 
0 486 7241 
0 484 6362 
0 398 6362 
0 396 7241 
0 609 49 
0 605 3113 
0 595 2152 
0 589 2152 
0 583 7787 
0 581 3113 
0 579 7329 
0 573 2690 
0 573 2166 
0 444 2222 
0 444 3497 
0 444 6507 
0 438 2222 
0 438 3497 
0 438 6507 
0 580 3113 
0 576 49 
0 569 7746 
0 559 7870 
0 470 7558 
0 470 5989 
0 470 4812 
0 468 6769 
0 466 1218 
0 464 2111 
0 464 1033 
0 418 2111 
0 418 1033 
0 416 1218 
0 414 6769 
0 412 7558 
0 412 5989 
0 412 4812 
1 1724 620 
1 1746 620 
1 1742 620 
1 1727 620 
1 1729 620 
0 535 2114 
0 535 2660 
0 523 7408 
0 549 7059 
0 543 5098 
0 541 7139 
1 2623 4057 
1 2618 4057 
1 2625 4057 
1 2622 4057 
0 589 6303 
0 587 7794 
0 583 2663 
0 581 7603 
0 581 7004 
0 579 7282 
0 575 3554 
0 559 1094 
0 555 7293 
0 564 7487 
0 650 1529 
0 538 6273 
0 536 1529 
0 536 6325 
0 532 4025 
0 528 4351 
0 520 6455 
0 554 4099 
0 591 7774 
0 590 7379 
0 586 2409 
0 580 7123 
0 569 7866 
0 567 6606 
0 1049 4941 
0 1103 3580 
0 588 30 
1 1366 6893 
1 1363 6893 
1 1772 1547 
1 1795 1547 
1 1796 1547 
1 1789 1547 
1 1787 1547 
0 1059 4746 
0 1057 6976 
0 1056 6540 
0 1047 3161 
0 1077 4711 
0 1071 4781 
0 1069 6746 
0 1067 5278 
0 1109 4405 
0 1109 7484 
0 1097 4583 
0 1095 2547 
0 1087 7636 
0 1085 1634 
0 1256 3545 
0 1014 3545 
0 1371 3545 
0 1281 3545 
0 1048 5149 
0 1042 987 
0 1349 6604 
0 1303 5769 
0 1301 6604 
0 1074 3705 
0 1070 2834 
0 1068 268 
0 1329 7463 
0 1148 1395 
0 1090 1395 
0 1090 3224 
0 1082 7857 
0 1347 1106 
0 1303 1106 
0 1337 2407 
0 1329 1476 
0 1315 6469 
0 1309 7767 
1 1952 2246 
1 1951 2246 
1 1949 2246 
1 1964 2246 
1 1965 2246 
1 1966 2246 
1 1967 2246 
0 74 3123 
0 103 3004 
0 101 7067 
0 99 781 
0 95 4818 
0 1279 3153 
0 1273 4125 
0 248 2701 
0 246 6286 
0 242 700 
0 157 2701 
0 155 2701 
0 155 6286 
0 153 6286 
0 149 700 
0 1302 700 
0 113 2718 
1 1597 5716 
1 1591 5716 
1 1586 4407 
1 1577 4407 
1 1592 7222 
1 1593 7222 
1 1588 4407 
1 1573 4407 
1 1576 5716 
1 1576 5191 
1 1583 5716 
1 1590 5716 
1 1596 5716 
1 1580 7222 
1 1589 5716 
1 1589 5191 
1 1575 5716 
1 1570 5716 
0 133 6000 
0 1314 3486 
0 77 5926 
0 160 4877 
0 160 6191 
0 155 7561 
0 155 5616 
0 153 4369 
0 151 7050 
0 114 4442 
0 139 2673 
0 135 861 
0 127 1441 
0 85 1537 
0 279 1585 
0 61 525 
0 61 3765 
0 243 1585 
0 150 1585 
0 266 525 
0 266 3765 
0 261 1716 
0 213 1716 
0 126 2233 
0 122 1716 
