ITEM: TIMESTEP
20000000
ITEM: NUMBER OF ENTRIES
3843
ITEM: BOX BOUNDS ff ff ff
-0.01 0.45
-0.15 0.15
-0.08 0.1
ITEM: ENTRIES c_ppc[1] c_ppc[2] c_ppc[3] c_ppc[4] 
5384 7069 0 0.000135901 
4196 3420 0 2.50462e-06 
673 3330 0 9.85871e-05 
1671 925 0 0.000130433 
1671 5085 0 0.00053579 
337 141 0 0.000266536 
141 585 0 0.00027746 
5085 925 0 0.000388803 
5085 3854 0 0.000443347 
1639 2072 0 0.000269509 
470 1306 0 9.68203e-05 
1306 1284 0 6.18493e-05 
1666 6426 0 0.000345258 
1284 6634 0 0.000358868 
3958 5123 0 0.000191638 
6634 433 0 3.60457e-05 
6634 554 0 0.000296937 
433 554 0 0.000512421 
5123 6583 0 3.45167e-05 
3973 2395 0 4.83007e-05 
7544 5572 0 4.57749e-05 
211 3199 0 2.8129e-06 
211 4222 0 7.65587e-07 
3979 1505 0 4.75543e-05 
1505 724 0 3.29061e-05 
7434 6286 0 0.000117484 
6286 5069 0 0.000201902 
3457 4360 0 1.07879e-05 
3380 2294 0 7.80035e-06 
3391 1711 0 2.95146e-07 
3391 2338 0 1.10614e-06 
6044 4958 0 2.13063e-06 
2294 177 0 2.70009e-06 
177 7441 0 4.23538e-06 
177 1196 0 9.33957e-07 
877 7441 0 1.31224e-06 
4385 4958 0 2.31311e-05 
4385 3847 0 6.78737e-06 
7441 3841 0 4.22899e-06 
6808 4958 0 6.13398e-06 
1196 2768 0 2.02201e-05 
628 3841 0 5.13874e-06 
3841 653 0 1.06566e-05 
3841 4360 0 4.59412e-06 
2768 653 0 8.64589e-06 
5977 6399 0 4.18207e-09 
1916 4258 0 0.000102502 
1209 2208 0 1.90262e-06 
1209 2567 0 8.91863e-06 
2567 6863 0 7.14489e-06 
2567 7383 0 1.04438e-05 
7383 6933 0 6.06801e-06 
926 1427 0 6.90221e-06 
1355 6397 0 2.98796e-07 
6708 4360 0 3.06901e-06 
530 6605 0 1.9956e-07 
2819 6323 0 6.41892e-06 
3847 1525 0 8.21754e-06 
1416 4229 0 8.96988e-06 
1416 4360 0 5.2205e-06 
4229 1370 0 1.16218e-05 
4360 1525 0 8.72789e-06 
7258 6836 0 7.85801e-06 
7258 2470 0 1.43913e-05 
2065 3685 0 6.84871e-06 
3685 6863 0 8.81369e-06 
5523 6863 0 1.11342e-05 
5523 1836 0 1.5349e-05 
6863 1490 0 1.15972e-05 
6836 535 0 8.84146e-06 
696 5175 0 6.77951e-07 
5172 1109 0 3.03054e-06 
5172 1699 0 5.65466e-06 
5172 2015 0 2.96085e-06 
2199 535 0 3.92144e-06 
1094 6323 0 1.60269e-06 
6323 4737 0 4.33369e-07 
1525 6099 0 3.75244e-06 
6622 930 0 1.08315e-06 
2470 6787 0 5.99909e-06 
4129 221 0 2.03561e-06 
7049 5175 0 1.15405e-05 
7049 4298 0 9.05796e-06 
2286 3837 0 5.71319e-07 
5175 5045 0 5.99432e-06 
5045 1109 0 5.40701e-06 
5045 767 0 3.2227e-06 
347 1024 0 1.6241e-06 
221 6619 0 2.24117e-06 
221 535 0 7.15232e-06 
535 2416 0 1.45089e-06 
4062 2054 0 1.0461e-05 
2054 5993 0 8.47723e-06 
2015 2883 0 6.29321e-06 
2416 1861 0 1.7608e-06 
1807 3068 0 6.97213e-06 
1807 2883 0 7.07681e-06 
1807 1349 0 7.60032e-06 
3068 2795 0 8.66472e-06 
3068 2883 0 3.77947e-06 
6013 767 0 3.41741e-06 
5993 4417 0 4.23701e-06 
2795 1037 0 3.68695e-06 
2795 4417 0 1.47127e-07 
4818 1557 0 4.05109e-06 
5014 1420 0 4.24152e-06 
6605 2453 0 1.64673e-06 
6605 1271 0 5.76595e-07 
6605 5779 0 3.41568e-06 
4797 1650 0 0.000533561 
4989 922 0 7.06056e-06 
922 7102 0 2.86252e-06 
922 4138 0 1.01042e-06 
5267 1050 0 3.08642e-07 
5267 4138 0 5.72476e-06 
2323 2876 0 6.0691e-06 
2323 6885 0 1.80197e-06 
2876 7221 0 9.81207e-06 
1779 7888 0 6.97003e-07 
1063 3587 0 1.15429e-05 
6510 7221 0 2.36101e-06 
6510 148 0 4.63192e-06 
1208 5471 0 4.26058e-06 
1208 7888 0 1.0464e-05 
4145 3587 0 8.60996e-07 
148 7035 0 1.36491e-07 
148 5428 0 5.49673e-06 
4442 3231 0 1.39308e-06 
4442 958 0 4.98108e-06 
6422 7888 0 4.18448e-06 
6422 5245 0 4.02126e-06 
6422 1218 0 6.852e-06 
6422 6918 0 2.31479e-06 
6918 3455 0 3.05985e-06 
5697 1662 0 5.41278e-07 
5428 5160 0 6.57406e-06 
958 1218 0 4.09343e-06 
7665 3545 0 1.56273e-05 
7665 7011 0 1.6755e-05 
4819 6677 0 2.26986e-07 
4819 3230 0 1.93316e-08 
3230 4638 0 4.78431e-06 
3230 5160 0 2.64375e-06 
3230 7344 0 3.79088e-06 
7664 5160 0 1.07324e-06 
7664 5838 0 5.70789e-07 
414 7735 0 7.81755e-10 
7735 292 0 3.54344e-06 
7735 5059 0 5.48691e-07 
539 5494 0 4.66917e-06 
539 7107 0 1.43958e-06 
5494 4401 0 5.55751e-06 
5494 7137 0 3.37227e-06 
5838 7344 0 3.88129e-06 
5838 2322 0 1.91638e-06 
5838 6833 0 3.00293e-06 
726 2322 0 7.12509e-06 
726 5059 0 8.46559e-07 
726 6833 0 3.48997e-06 
726 1506 0 2.62883e-06 
5059 7602 0 4.77505e-07 
7137 2309 0 2.30605e-06 
6833 2494 0 3.64292e-06 
2494 4134 0 2.94982e-06 
1506 7602 0 3.77893e-06 
6589 7602 0 6.59727e-06 
6589 4858 0 1.37991e-06 
4858 2229 0 1.1663e-06 
7602 7539 0 3.28371e-06 
1226 7373 0 1.28803e-06 
1226 5074 0 2.95717e-08 
5074 3897 0 9.59598e-07 
5074 3079 0 4.9928e-07 
4134 5178 0 1.50234e-06 
5178 626 0 1.30415e-06 
5178 5597 0 1.33415e-06 
3113 4641 0 1.21502e-06 
3113 3983 0 3.31627e-06 
3113 5410 0 2.1151e-06 
3983 2229 0 2.37457e-06 
626 3929 0 1.36448e-06 
5597 5410 0 1.57958e-06 
1193 5471 0 1.03223e-05 
7168 2641 0 3.09365e-06 
7888 1089 0 6.54488e-06 
5245 3058 0 1.10472e-05 
5245 1089 0 9.58734e-06 
3587 3007 0 1.76353e-05 
1546 3231 0 5.82865e-07 
5555 4639 0 7.72335e-06 
7035 181 0 4.24432e-07 
181 4638 0 2.69775e-06 
181 7897 0 5.50623e-06 
4765 3231 0 1.57525e-06 
3231 6066 0 2.81631e-06 
3231 579 0 1.37372e-06 
6066 4299 0 2.00859e-06 
579 7771 0 5.78814e-07 
579 3123 0 1.37329e-06 
3545 5160 0 8.88557e-06 
1626 4553 0 2.39615e-06 
7011 3455 0 1.40458e-05 
6326 3455 0 9.0325e-07 
6326 4553 0 4.5759e-06 
6326 5196 0 4.66201e-06 
4638 4598 0 3.07952e-06 
4638 33 0 7.4315e-07 
6049 7344 0 3.84069e-06 
5589 3123 0 8.48511e-07 
5589 7913 0 6.61047e-07 
5589 370 0 4.31096e-07 
7876 1412 0 1.16747e-07 
7876 7877 0 4.37554e-06 
7876 7795 0 4.79566e-06 
7107 4401 0 1.5709e-06 
7107 689 0 3.79574e-07 
4401 116 0 6.25398e-06 
2322 116 0 4.35392e-06 
2322 370 0 4.02991e-06 
2322 1437 0 5.11679e-06 
370 3123 0 1.54764e-06 
370 1442 0 2.06967e-06 
7795 4767 0 6.34028e-06 
7795 6425 0 3.17031e-06 
7373 3897 0 2.17206e-06 
7373 5404 0 2.08585e-06 
481 7372 0 4.33508e-06 
7539 4511 0 4.75281e-07 
7539 6666 0 7.87821e-06 
3460 4641 0 6.0117e-07 
4864 2161 0 1.44364e-06 
4864 7623 0 1.25703e-06 
1584 999 0 2.01422e-06 
7293 3929 0 2.35276e-08 
3929 5661 0 1.36603e-06 
6340 6463 0 9.68927e-07 
2641 632 0 4.90583e-06 
4248 4760 0 1.02213e-05 
3007 7897 0 9.54253e-06 
3007 4734 0 1.49655e-05 
1599 4639 0 5.16287e-06 
7771 528 0 2.28458e-06 
2349 4299 0 1.00633e-06 
2349 4006 0 1.39655e-05 
2349 6287 0 3.86909e-06 
4639 571 0 7.5102e-06 
944 1421 0 1.75701e-06 
4553 6549 0 5.19862e-07 
2777 7899 0 2.2282e-06 
4598 6831 0 3.20613e-06 
4598 5908 0 1.73696e-06 
6831 4854 0 2.54998e-06 
528 4854 0 2.98439e-06 
528 6492 0 1.2232e-07 
2371 1755 0 7.49075e-06 
2371 116 0 2.34106e-06 
2371 6492 0 1.25584e-06 
2371 4827 0 8.37669e-06 
6287 7890 0 3.80907e-06 
7890 116 0 3.97574e-06 
1442 1421 0 3.50573e-06 
1442 4827 0 4.88109e-06 
1421 4767 0 5.18649e-06 
7877 5196 0 5.67469e-06 
2011 689 0 6.44253e-06 
1755 689 0 6.41007e-06 
1755 1437 0 3.60452e-06 
4039 4511 0 4.14332e-06 
4767 3950 0 1.75769e-06 
5145 589 0 2.86502e-06 
4489 6666 0 1.23723e-05 
4489 6425 0 3.31851e-06 
4489 4793 0 1.20061e-05 
5404 689 0 5.42321e-06 
955 3060 0 2.84106e-06 
689 1437 0 5.85923e-06 
1437 5661 0 7.54555e-06 
4511 6666 0 4.13247e-06 
6666 3913 0 4.04299e-06 
6666 2308 0 4.47955e-06 
6425 5801 0 4.81697e-06 
6425 7623 0 1.56157e-06 
3562 7372 0 1.94802e-06 
4642 982 0 1.72191e-06 
7372 1362 0 2.75821e-06 
5661 4432 0 4.89099e-06 
5661 6745 0 6.13344e-06 
3060 6857 0 4.55894e-06 
4432 2161 0 2.26472e-06 
4432 3226 0 1.70059e-06 
4432 2761 0 2.80138e-06 
2161 3913 0 2.50052e-06 
2161 5149 0 2.1719e-06 
6857 3827 0 3.37952e-06 
3827 2761 0 3.89111e-06 
4505 7178 0 2.28113e-06 
4416 3502 0 1.20905e-05 
1648 6373 0 7.02747e-06 
138 3996 0 1.17774e-05 
5002 6676 0 3.69803e-06 
4734 6676 0 6.57129e-06 
2970 4006 0 1.45391e-05 
4006 4685 0 2.33186e-05 
6258 6492 0 2.7787e-06 
571 1541 0 8.66638e-06 
1541 4793 0 8.21336e-06 
1541 6423 0 4.27523e-06 
1541 143 0 1.84871e-06 
4854 7276 0 3.11551e-06 
6492 489 0 1.56043e-07 
4827 5243 0 5.915e-06 
4827 7915 0 1.25782e-05 
4827 4181 0 1.10852e-05 
5243 5335 0 5.14345e-06 
7276 489 0 6.08273e-06 
489 4181 0 5.55596e-06 
3933 4461 0 3.13679e-06 
4793 7518 0 2.42512e-06 
6206 1629 0 6.01392e-06 
6112 982 0 1.1503e-06 
2476 2103 0 2.59583e-06 
7791 7695 0 9.17932e-07 
7791 3482 0 6.76509e-06 
2103 2998 0 6.01565e-06 
2103 4753 0 5.43153e-08 
982 4041 0 3.9038e-06 
6427 1630 0 1.2997e-06 
2761 3543 0 3.66187e-06 
1199 6132 0 1.25121e-05 
4685 6534 0 1.1596e-05 
6534 6423 0 1.06977e-05 
6534 7915 0 1.37982e-05 
6132 6423 0 1.87397e-05 
6132 6498 0 7.11298e-06 
6423 5335 0 5.74328e-06 
6423 4363 0 2.05563e-05 
3568 22 0 2.89664e-06 
7915 4410 0 4.15235e-06 
5015 3482 0 6.8271e-07 
5015 4363 0 7.45994e-06 
5015 22 0 8.53013e-06 
4363 6604 0 1.62439e-05 
2175 5197 0 3.60327e-06 
2175 412 0 2.04071e-06 
4181 6631 0 1.23695e-05 
7518 2998 0 4.89502e-06 
7518 2480 0 4.80586e-06 
7518 4584 0 6.95463e-07 
6604 354 0 7.35389e-06 
6604 2480 0 1.49257e-05 
6631 22 0 1.90646e-06 
6631 1536 0 6.33776e-06 
6631 3147 0 1.01421e-05 
2998 22 0 4.37648e-06 
4584 2480 0 4.35424e-06 
4584 2171 0 3.06577e-06 
6056 4836 0 1.60833e-06 
1887 4784 0 3.59315e-06 
4784 6226 0 4.23526e-06 
3298 3147 0 3.45101e-06 
2171 22 0 4.16852e-06 
2171 3147 0 6.35639e-07 
2171 7490 0 5.79045e-06 
6361 687 0 4.54713e-06 
6361 5053 0 5.91634e-06 
6361 236 0 1.51307e-06 
3937 3134 0 1.57443e-06 
3937 4836 0 3.252e-06 
5846 5053 0 2.19585e-06 
5053 7490 0 7.76982e-06 
1394 7865 0 1.90101e-05 
533 1983 0 1.28554e-05 
2380 2907 0 1.39489e-06 
5732 842 0 1.60792e-06 
412 6778 0 1.2873e-06 
5996 2618 0 5.1613e-06 
22 4677 0 1.17184e-05 
4677 6582 0 1.25783e-05 
7533 6582 0 1.11885e-06 
2480 789 0 1.10899e-05 
7095 6383 0 9.39111e-06 
1536 6383 0 8.14632e-06 
1536 3147 0 9.29243e-06 
1536 301 0 5.08708e-06 
1536 3541 0 1.53439e-06 
6383 6226 0 3.98332e-06 
3541 5895 0 2.64978e-07 
789 3198 0 7.43954e-06 
789 534 0 3.71893e-06 
1889 534 0 4.41002e-07 
6342 4836 0 4.38895e-06 
6342 5880 0 2.84165e-06 
3147 3321 0 8.54879e-06 
7490 7526 0 5.16774e-06 
7490 1771 0 1.3991e-06 
7526 3321 0 4.04498e-06 
2590 2313 0 4.46236e-06 
2590 2797 0 6.32831e-06 
2590 1771 0 2.77703e-06 
1771 5401 0 9.38575e-07 
7933 4618 0 2.52033e-06 
7933 6251 0 4.57353e-05 
62 299 0 1.32341e-05 
83 3395 0 6.85736e-06 
83 4955 0 7.82907e-06 
7551 2618 0 2.25157e-06 
7551 1964 0 4.57699e-06 
1952 6582 0 5.91689e-06 
1952 5036 0 5.36689e-07 
2855 5036 0 3.69022e-06 
842 3275 0 3.58564e-06 
4955 3772 0 8.36186e-06 
1964 301 0 4.53879e-06 
1964 6582 0 1.30306e-05 
1964 299 0 1.11366e-05 
1964 7852 0 4.45324e-06 
301 1005 0 6.0684e-06 
301 2588 0 2.65789e-06 
7403 1005 0 1.55548e-05 
7403 421 0 1.6361e-06 
5895 3184 0 4.36886e-07 
3184 3772 0 1.24954e-06 
3275 2697 0 1.19262e-06 
3772 7062 0 7.97244e-06 
5247 1913 0 4.88104e-06 
5247 5952 0 7.16159e-07 
1005 5952 0 5.69579e-07 
5952 5841 0 1.48518e-06 
7859 2588 0 2.93552e-06 
7859 2570 0 4.49078e-06 
3198 3828 0 1.7636e-06 
3198 3849 0 7.35176e-06 
5880 5434 0 1.21565e-06 
5880 1574 0 3.50548e-06 
5434 2704 0 7.51165e-07 
3849 2797 0 5.87091e-06 
3849 7657 0 6.69636e-06 
3849 6433 0 9.15639e-06 
2797 6584 0 8.46316e-07 
2797 4755 0 4.34029e-06 
2247 4346 0 4.28208e-07 
6003 6433 0 5.18902e-07 
5662 1778 0 3.48819e-05 
5728 1509 0 1.26329e-05 
805 5302 0 3.88353e-06 
527 5302 0 2.13604e-06 
6638 5400 0 9.96231e-06 
6638 682 0 2.89608e-06 
299 2340 0 8.34412e-06 
299 421 0 1.68965e-05 
2340 5400 0 8.92373e-06 
2340 6019 0 1.00666e-05 
2340 339 0 1.0972e-05 
2340 808 0 1.47636e-05 
421 2109 0 1.91442e-06 
2109 7128 0 3.09683e-06 
2109 6215 0 9.52973e-07 
2109 1558 0 2.97027e-06 
2588 7852 0 4.17706e-06 
2588 3677 0 8.55231e-06 
7852 2747 0 4.70816e-06 
65 3820 0 2.70494e-07 
339 1645 0 5.12468e-06 
5036 3278 0 1.3804e-06 
7062 7657 0 7.49724e-06 
7062 3278 0 3.85643e-06 
3278 3724 0 4.31716e-06 
3278 3713 0 4.58987e-06 
7637 3820 0 5.79228e-07 
7128 1574 0 3.05287e-06 
3820 6113 0 1.11341e-06 
3677 3967 0 2.40027e-06 
3677 6237 0 5.89863e-06 
3955 5126 0 2.06149e-06 
3967 6433 0 4.14085e-07 
3967 5126 0 3.02809e-07 
5126 4331 0 1.8665e-06 
7657 3239 0 1.65472e-06 
7657 4755 0 5.38667e-06 
1574 6069 0 3.26921e-06 
3329 117 0 1.07411e-06 
3329 6237 0 1.77744e-06 
5841 4741 0 1.90044e-06 
117 5637 0 3.00144e-06 
6433 5637 0 6.47006e-06 
6433 3539 0 4.26273e-06 
4755 2231 0 6.40885e-06 
4755 7542 0 5.67946e-06 
7542 7045 0 4.56652e-06 
7542 4905 0 7.11704e-06 
1533 5637 0 1.35971e-06 
3024 3539 0 1.38709e-06 
2504 682 0 2.47793e-06 
2504 2302 0 9.52905e-06 
5233 6990 0 3.82042e-06 
682 1300 0 2.81388e-06 
5867 6215 0 1.00355e-06 
4042 1518 0 9.07311e-06 
4042 5816 0 2.61076e-06 
1509 2747 0 6.53412e-06 
6019 7725 0 5.4804e-06 
1818 3713 0 7.02075e-06 
1818 7103 0 2.19603e-06 
6215 6296 0 1.358e-06 
2747 6113 0 5.2541e-06 
808 633 0 1.50128e-05 
633 3724 0 5.70354e-06 
633 5214 0 8.0844e-06 
633 3313 0 8.44609e-06 
3724 1164 0 9.80845e-07 
3724 5214 0 2.74567e-06 
1558 6113 0 5.74433e-06 
1558 2727 0 2.20244e-06 
1558 4210 0 1.05777e-06 
6113 2298 0 1.78631e-06 
6113 1645 0 4.88461e-06 
1830 4741 0 2.84463e-07 
1645 963 0 1.6676e-06 
4331 2555 0 3.24337e-06 
4210 6445 0 7.32072e-07 
4741 2413 0 3.2138e-06 
4741 7731 0 5.89792e-07 
7197 2045 0 1.01211e-06 
7197 3539 0 1.4045e-06 
2357 6763 0 3.28933e-06 
623 5029 0 3.78993e-06 
7032 4431 0 8.0643e-06 
1768 4347 0 2.23612e-07 
6990 3887 0 4.76527e-06 
1300 4912 0 3.64765e-06 
764 4104 0 3.29111e-06 
764 2282 0 2.99151e-06 
4104 3313 0 3.4832e-06 
2146 4613 0 4.6195e-06 
5 2298 0 2.55093e-06 
5 5844 0 1.43049e-06 
2298 963 0 4.17068e-06 
2981 6105 0 1.33053e-06 
5214 1855 0 1.88035e-06 
5214 2187 0 1.33657e-06 
5214 4127 0 5.06464e-06 
5214 1039 0 2.58467e-06 
3313 4613 0 2.60953e-06 
989 2555 0 2.68789e-06 
2727 5866 0 1.94965e-06 
5866 2856 0 4.97163e-07 
963 2413 0 3.49542e-06 
963 6105 0 9.98005e-07 
1855 3618 0 2.69068e-06 
1855 2555 0 3.78628e-06 
3618 4629 0 8.93103e-07 
2555 742 0 4.46735e-06 
6445 5189 0 1.18119e-06 
2413 1877 0 5.19397e-06 
7731 2822 0 2.42501e-07 
2822 4629 0 6.07655e-07 
4629 6763 0 1.44045e-06 
5189 1877 0 1.50879e-06 
5635 4556 0 2.76428e-06 
6763 5766 0 2.37271e-06 
6763 5883 0 2.95765e-07 
5883 7503 0 3.31379e-07 
4546 6269 0 2.9111e-06 
5783 7448 0 5.35777e-05 
1342 4070 0 1.40395e-05 
1342 3924 0 3.47707e-05 
3205 3578 0 3.47718e-05 
3205 7512 0 2.56097e-05 
3578 6150 0 2.54562e-06 
3578 3924 0 5.10654e-08 
4912 2531 0 4.24963e-08 
3887 5132 0 3.85159e-06 
3887 2282 0 3.96572e-06 
5132 3407 0 3.17147e-06 
1920 2282 0 2.41381e-06 
1920 4084 0 3.63028e-06 
1920 5482 0 3.49305e-06 
2282 2187 0 2.6208e-07 
2282 1032 0 1.9924e-06 
4613 3343 0 1.3014e-06 
4613 1856 0 4.83731e-06 
1152 1032 0 2.11798e-07 
5844 7720 0 8.33157e-07 
5482 196 0 1.64073e-06 
5482 7240 0 1.55466e-06 
196 5588 0 2.52871e-06 
2646 4834 0 9.98818e-07 
4834 4523 0 3.89657e-06 
4834 3859 0 3.73873e-07 
1543 2326 0 5.97224e-06 
2856 4725 0 3.20895e-07 
6105 2326 0 1.85082e-06 
2326 2686 0 1.43776e-06 
2326 1893 0 1.49538e-06 
1039 980 0 1.53172e-06 
4127 742 0 5.08882e-06 
4127 4900 0 4.53457e-06 
742 4195 0 5.99886e-07 
7579 1340 0 3.74585e-06 
4541 7503 0 3.36579e-07 
4541 3639 0 2.20652e-06 
5766 4900 0 2.72592e-06 
4900 1786 0 2.09313e-06 
4900 699 0 5.06699e-06 
4900 3749 0 2.92633e-06 
6343 6119 0 2.37113e-06 
6343 6269 0 1.10063e-06 
6673 3639 0 1.71458e-06 
7546 1932 0 1.44224e-06 
6367 7387 0 5.64985e-06 
3593 4070 0 1.28073e-05 
4070 4476 0 8.18622e-06 
3789 7512 0 4.50378e-06 
7841 2292 0 3.76558e-06 
3407 2381 0 1.73249e-07 
3407 6365 0 6.07177e-06 
3977 2381 0 7.78261e-06 
4994 4290 0 1.14198e-06 
4290 7337 0 1.20129e-06 
5921 1032 0 4.9479e-06 
5921 6365 0 1.00071e-05 
7044 2531 0 7.5501e-06 
1032 7240 0 1.17276e-06 
4002 7720 0 1.44103e-06 
7240 4672 0 8.17059e-07 
5588 96 0 2.75654e-06 
4014 4523 0 1.53727e-07 
2243 7694 0 1.66422e-06 
2243 3760 0 2.0103e-06 
4523 2830 0 3.65683e-07 
4523 7694 0 5.8278e-06 
4725 6289 0 9.14284e-07 
1893 96 0 6.13778e-07 
96 389 0 2.89019e-06 
6657 4829 0 1.82727e-06 
2686 6499 0 1.31593e-06 
2686 4730 0 2.71345e-07 
980 3639 0 5.33764e-07 
1786 1932 0 1.71849e-06 
3100 4521 0 1.38065e-06 
3100 3507 0 2.65584e-06 
3100 1 0 4.41967e-06 
3639 1328 0 4.31637e-06 
1328 3445 0 3.01197e-07 
1328 5475 0 2.48828e-06 
708 1229 0 1.77628e-06 
708 6550 0 0.000122347 
1229 1150 0 4.08744e-06 
6650 4281 0 1.40854e-05 
2381 4354 0 9.0695e-06 
2381 4281 0 1.23357e-05 
2381 1388 0 1.61836e-06 
4281 6365 0 1.99666e-05 
4281 133 0 1.14849e-05 
7337 5736 0 3.05431e-07 
7337 6458 0 1.11567e-06 
4288 6458 0 3.55268e-07 
4288 3175 0 1.72732e-06 
6458 5284 0 1.23055e-06 
6365 6280 0 1.72678e-05 
4055 4742 0 7.55473e-06 
2593 2212 0 1.46696e-06 
2593 4789 0 4.55738e-06 
4646 2023 0 2.09071e-06 
6280 4151 0 3.53434e-08 
6280 4672 0 4.52193e-06 
6280 3760 0 3.98745e-06 
2212 7694 0 7.2451e-07 
4672 7669 0 4.46407e-06 
4672 389 0 2.19825e-06 
3760 2122 0 3.25307e-06 
3760 7824 0 1.20389e-07 
2830 6077 0 2.26014e-07 
7694 4249 0 5.92764e-06 
6289 941 0 1.395e-06 
6290 938 0 4.14406e-06 
6290 5381 0 3.22218e-06 
6290 7135 0 2.04018e-06 
941 2691 0 1.20583e-06 
5381 4730 0 1.01051e-06 
5381 4471 0 3.6126e-06 
389 2674 0 5.60223e-06 
389 6912 0 4.29472e-06 
6077 6512 0 3.19953e-06 
6077 6912 0 7.238e-07 
7600 4471 0 2.51724e-06 
7600 5016 0 2.21008e-06 
3445 4730 0 2.80581e-08 
95 3615 0 3.03091e-06 
95 1 0 2.36818e-06 
3507 1512 0 1.87137e-06 
3878 1847 0 8.13086e-06 
4091 2005 0 9.83345e-06 
806 133 0 2.12139e-06 
4606 2355 0 5.04986e-07 
4096 3452 0 3.33272e-07 
133 2542 0 8.15286e-06 
133 4742 0 1.04361e-05 
5391 1722 0 1.97358e-06 
1153 851 0 1.99867e-06 
1153 4742 0 3.24454e-06 
5284 2355 0 1.59694e-06 
5284 4368 0 4.80563e-08 
5284 5619 0 3.34224e-06 
5284 2088 0 2.13596e-06 
5284 2508 0 3.26137e-06 
5284 617 0 8.99296e-07 
2542 4151 0 3.45437e-06 
2542 5619 0 4.77995e-06 
3245 4151 0 2.84724e-06 
3245 4742 0 4.52985e-06 
3245 4789 0 1.86272e-06 
3245 2122 0 3.58622e-06 
4151 7669 0 3.29807e-06 
4742 4789 0 6.55544e-06 
4789 851 0 4.66213e-06 
2023 6324 0 7.27518e-07 
2023 2691 0 7.61384e-07 
2023 6816 0 2.87242e-06 
2088 6816 0 1.9925e-06 
6816 2358 0 5.78108e-06 
6324 5042 0 4.25051e-07 
4388 2508 0 2.6977e-06 
7669 7824 0 2.2892e-06 
7669 869 0 2.5538e-06 
7669 3974 0 4.85968e-06 
4675 4386 0 1.26018e-07 
4249 553 0 3.59851e-06 
2122 2487 0 2.86226e-06 
5220 869 0 3.14832e-06 
7824 6512 0 2.98932e-06 
6512 1597 0 2.45999e-06 
2487 637 0 5.58482e-06 
7135 651 0 3.72825e-07 
2674 4143 0 4.50928e-06 
4143 5016 0 3.59929e-06 
4719 622 0 1.38294e-06 
4719 6994 0 3.94499e-07 
4376 1157 0 8.72418e-07 
5016 614 0 2.50937e-06 
4682 3799 0 1.38572e-06 
6502 3615 0 7.92928e-08 
6350 3130 0 1.35604e-06 
7558 4325 0 4.8243e-06 
1386 6102 0 3.62008e-06 
5706 5124 0 2.01281e-06 
6592 5341 0 1.18224e-07 
6614 866 0 1.36627e-05 
866 6600 0 1.19773e-06 
3981 4439 0 4.42956e-07 
3436 1367 0 6.60023e-07 
5000 646 0 7.33564e-07 
5000 2436 0 2.56203e-06 
5489 3452 0 3.11539e-06 
2870 3642 0 1.23309e-06 
2355 3452 0 3.59802e-07 
2982 2938 0 6.04549e-07 
2982 7785 0 9.1011e-07 
3452 5964 0 1.31487e-06 
3452 5135 0 3.74221e-06 
4335 3323 0 9.71319e-08 
7785 7317 0 8.93201e-07 
2792 133 0 1.71779e-06 
2837 1153 0 3.05327e-06 
2837 3974 0 4.93149e-06 
617 4334 0 7.07951e-07 
4334 6642 0 3.24694e-06 
4334 7317 0 2.90715e-06 
2508 7317 0 2.84822e-06 
869 7317 0 2.33201e-06 
5144 553 0 2.79732e-06 
5144 4160 0 5.32249e-06 
7609 3015 0 4.99019e-06 
6642 2674 0 6.25992e-06 
6642 2358 0 5.38218e-06 
6642 5220 0 3.29311e-06 
6642 622 0 8.39991e-07 
2752 1597 0 1.69584e-06 
2752 2972 0 1.4906e-07 
2752 4144 0 5.80944e-07 
2752 4200 0 6.92443e-07 
6882 4469 0 7.72088e-07 
6882 2972 0 3.21666e-07 
2526 637 0 1.32144e-06 
2526 4144 0 1.23491e-06 
4144 3679 0 2.98427e-07 
651 745 0 4.88018e-07 
622 401 0 3.73316e-06 
7687 4469 0 1.16381e-07 
7687 875 0 2.98364e-07 
6867 818 0 2.32824e-06 
4469 818 0 8.59359e-07 
124 1597 0 9.25342e-07 
124 1157 0 3.51886e-06 
124 3799 0 2.33822e-06 
4307 4775 0 1.63385e-08 
7075 4200 0 1.15352e-07 
6921 6519 0 2.03147e-06 
6921 5044 0 1.31714e-06 
5417 6995 0 8.00337e-07 
6995 5397 0 8.99899e-07 
5326 948 0 3.06486e-07 
5109 6776 0 1.18421e-07 
5109 7316 0 5.56204e-07 
4269 5659 0 2.54692e-06 
5124 2519 0 3.5671e-07 
357 1367 0 2.92094e-07 
357 2225 0 1.93866e-07 
357 4683 0 1.88692e-08 
6102 6177 0 3.74488e-06 
1782 1197 0 9.74904e-07 
5659 4964 0 4.11487e-06 
4231 2225 0 1.84202e-06 
4231 1556 0 3.01244e-07 
2436 6883 0 1.24632e-06 
2436 1556 0 1.30973e-06 
2436 2320 0 2.65597e-06 
5444 2721 0 3.94282e-06 
5444 2853 0 2.81182e-06 
2289 2853 0 3.24835e-06 
6600 1810 0 5.20666e-06 
4439 3388 0 1.95174e-06 
2938 3642 0 4.15244e-07 
2320 5167 0 3.76122e-06 
2320 2359 0 1.21991e-06 
5135 5182 0 2.47196e-06 
5135 6344 0 4.08133e-07 
5182 3717 0 2.49585e-06 
3717 3388 0 1.37145e-06 
3717 1112 0 2.13496e-06 
6478 6097 0 1.03254e-06 
6625 235 0 5.92864e-07 
6625 7585 0 2.59438e-06 
6625 2359 0 2.22892e-06 
5362 7317 0 4.68489e-06 
5362 4724 0 1.38089e-06 
5362 2064 0 5.03411e-06 
4724 1112 0 1.24493e-06 
6097 5725 0 6.76384e-07 
7317 6344 0 1.68418e-06 
7317 2359 0 2.17817e-06 
1422 7680 0 7.22142e-07 
6407 4670 0 2.14327e-07 
6014 5725 0 7.2656e-07 
1054 401 0 3.5052e-06 
1054 875 0 1.29823e-06 
1054 4003 0 1.58036e-06 
1054 1572 0 3.25368e-06 
875 401 0 3.03179e-06 
875 6071 0 1.87736e-06 
875 3510 0 2.56754e-07 
875 4183 0 1.93339e-08 
2972 7680 0 2.5029e-07 
7680 4593 0 1.73831e-06 
7680 6242 0 8.31281e-07 
7680 3679 0 8.6869e-07 
7680 6200 0 1.06048e-06 
3679 3163 0 1.9003e-06 
401 4775 0 7.73642e-07 
1055 6242 0 1.39226e-06 
2136 7456 0 7.3819e-07 
2136 4708 0 7.31961e-07 
2136 2551 0 1.72874e-06 
7456 3203 0 2.64025e-06 
7456 2049 0 1.06256e-06 
3453 2383 0 3.053e-06 
2338 4557 0 8.15851e-07 
2338 5577 0 2.82069e-06 
5101 717 0 2.21332e-06 
1880 878 0 2.35333e-05 
1880 1196 0 2.51237e-05 
6051 2402 0 3.76747e-06 
4557 3112 0 4.07359e-06 
4557 5837 0 5.92159e-07 
6675 2721 0 1.89777e-06 
2402 1659 0 7.84273e-06 
2402 436 0 1.39427e-07 
2402 5035 0 1.68295e-06 
3112 4148 0 1.63405e-06 
3112 5528 0 5.55128e-07 
6177 4148 0 4.21027e-06 
2033 4529 0 5.99362e-06 
4148 2300 0 2.00689e-07 
4148 3207 0 5.94273e-06 
4148 1795 0 2.48299e-06 
2300 6344 0 3.87592e-06 
4895 5373 0 1.73521e-06 
4895 1795 0 2.59636e-07 
308 1810 0 3.76916e-06 
308 6522 0 2.23149e-08 
5167 5297 0 1.92613e-07 
5297 1556 0 2.73745e-06 
5297 7585 0 3.1887e-06 
5297 6070 0 3.87643e-06 
5297 15 0 1.0391e-07 
1556 1968 0 1.44454e-06 
3756 2359 0 1.20717e-06 
3756 1625 0 1.67497e-06 
6344 4349 0 2.6675e-06 
1112 3817 0 9.99764e-07 
1112 4954 0 4.17237e-06 
1112 5043 0 3.03645e-06 
3051 1586 0 7.84166e-07 
2359 183 0 6.61035e-07 
2359 2022 0 2.93833e-07 
183 6071 0 8.92785e-07 
183 2368 0 4.82136e-07 
2064 1485 0 7.32525e-07 
2064 3349 0 4.05006e-06 
3817 4593 0 2.02474e-06 
6071 1514 0 7.33962e-07 
6071 6200 0 4.45338e-07 
4593 6471 0 3.41593e-06 
7073 4003 0 1.46461e-07 
5792 6242 0 1.44577e-06 
4003 3730 0 2.2003e-06 
3730 3567 0 8.74614e-08 
1174 1467 0 1.54591e-06 
7401 7639 0 1.59573e-07 
2551 3421 0 8.19978e-08 
717 2278 0 8.37081e-07 
4067 1416 0 2.80585e-06 
6878 5035 0 5.53393e-06 
2284 4654 0 1.50555e-06 
5577 4251 0 4.05668e-06 
5837 6047 0 2.71253e-07 
5837 6107 0 2.23857e-07 
5837 3574 0 2.86627e-07 
6047 3326 0 1.39335e-07 
3326 6107 0 2.38889e-07 
1659 7538 0 1.48318e-06 
2190 1708 0 1.50749e-06 
5634 913 0 9.33439e-07 
5634 5446 0 1.19635e-06 
7538 1708 0 3.33035e-06 
1802 3429 0 3.08923e-06 
1802 4305 0 2.59176e-06 
1795 2319 0 2.38231e-06 
913 171 0 2.70217e-06 
656 1101 0 4.95032e-07 
1101 171 0 1.69696e-06 
1101 71 0 2.79904e-06 
171 3496 0 2.70276e-06 
3496 3006 0 3.67974e-06 
4305 6070 0 2.57049e-06 
4305 3994 0 1.53167e-06 
4305 6081 0 1.97962e-06 
3207 4309 0 7.99058e-06 
4309 1665 0 9.89896e-07 
4309 4098 0 2.42362e-06 
7625 1191 0 5.56082e-06 
1191 71 0 7.88383e-06 
6070 6742 0 1.718e-06 
6742 15 0 1.43849e-06 
6742 6072 0 1.8064e-06 
1625 4349 0 2.02352e-06 
1625 6951 0 1.15719e-06 
1625 4098 0 2.32499e-06 
6951 3023 0 9.78273e-07 
6951 5848 0 7.57598e-07 
4098 7521 0 2.04528e-06 
4954 4349 0 2.62229e-06 
4954 3308 0 5.55707e-06 
3683 3839 0 7.38855e-07 
7710 1379 0 2.29683e-06 
7710 7679 0 4.3737e-06 
7710 4527 0 2.2393e-06 
7710 4749 0 2.97172e-06 
7710 2223 0 2.77862e-06 
4527 3839 0 2.77963e-06 
15 3072 0 6.254e-07 
6072 3023 0 1.873e-06 
6072 3193 0 2.8061e-06 
3072 6562 0 1.56354e-10 
3072 3193 0 1.19908e-06 
2368 7038 0 1.37304e-06 
3349 2564 0 3.42607e-06 
5043 3167 0 1.14581e-07 
5043 4228 0 2.89362e-06 
4228 1033 0 3.01796e-06 
4118 6562 0 1.06357e-09 
6562 2621 0 4.19376e-07 
98 1360 0 1.87815e-06 
4744 1514 0 3.27999e-07 
1514 5543 0 1.26985e-06 
5543 1337 0 1.83929e-06 
5543 1891 0 1.1672e-06 
5543 7388 0 5.95158e-07 
6919 7365 0 4.58701e-07 
1360 447 0 1.64382e-06 
4832 4620 0 8.53218e-07 
3048 3440 0 2.15954e-06 
3440 447 0 1.82325e-06 
1467 7282 0 1.96522e-06 
2888 5580 0 1.98164e-07 
4665 7264 0 9.91273e-07 
3421 7442 0 6.05617e-07 
6462 4910 0 4.86369e-06 
3623 530 0 1.41311e-07 
3547 4338 0 1.19592e-06 
3547 530 0 2.23285e-06 
2278 2453 0 7.59872e-07 
2453 6107 0 1.76566e-06 
4737 2642 0 1.15723e-06 
4737 1094 0 3.1548e-06 
2391 1708 0 7.91695e-06 
2391 4203 0 7.56289e-06 
2391 6162 0 8.86726e-06 
4251 4338 0 2.00542e-06 
4251 3429 0 3.71912e-06 
4338 4654 0 1.75181e-06 
4654 6851 0 2.24936e-06 
3429 2785 0 2.31049e-06 
2642 6871 0 6.15915e-07 
2642 845 0 1.51454e-06 
845 5446 0 7.78884e-07 
3626 2643 0 6.51814e-07 
3626 5446 0 1.7781e-06 
5446 2444 0 2.81876e-06 
6851 1363 0 4.82098e-07 
6851 2785 0 1.28839e-06 
6851 6081 0 2.59557e-06 
1665 3644 0 8.46039e-07 
3994 3309 0 2.75461e-07 
3994 5848 0 1.7365e-06 
3309 5467 0 1.42058e-06 
5530 3839 0 6.5576e-07 
3839 3006 0 3.39904e-06 
3839 114 0 4.74066e-06 
3839 6760 0 4.58089e-07 
3006 2018 0 4.53675e-06 
5848 2725 0 1.10359e-06 
5848 2977 0 7.03252e-08 
7521 3308 0 2.07278e-06 
7521 3152 0 8.97618e-07 
2223 6616 0 2.40807e-06 
3193 4099 0 2.16889e-06 
2345 5034 0 1.20375e-07 
7038 6213 0 1.55222e-06 
7038 7357 0 2.75995e-06 
3308 3014 0 7.98699e-06 
3308 7211 0 6.37419e-07 
2621 3601 0 2.20152e-06 
2621 4099 0 3.52417e-06 
2564 7388 0 1.30906e-06 
2564 6376 0 2.43823e-06 
7388 2044 0 1.37861e-06 
7124 1033 0 2.44599e-07 
6396 1958 0 1.08018e-06 
6396 3211 0 2.4922e-06 
3601 4620 0 1.63705e-06 
4620 3211 0 3.1295e-07 
4620 644 0 1.41312e-06 
447 1891 0 1.70539e-06 
447 1436 0 1.45281e-06 
1279 1891 0 9.44875e-07 
1279 6376 0 6.80322e-07 
1279 5901 0 1.12727e-06 
7334 5201 0 9.38331e-09 
7040 1672 0 2.14766e-06 
7040 6265 0 1.555e-06 
5580 3865 0 1.21037e-06 
5580 3211 0 2.95718e-06 
644 3211 0 1.29576e-06 
644 7442 0 1.20007e-06 
7264 4626 0 1.45942e-06 
4626 5469 0 1.42535e-06 
4626 2754 0 1.07009e-06 
2754 6210 0 1.66232e-06 
4150 7330 0 8.30698e-08 
4774 7214 0 3.00031e-06 
82 3046 0 2.49064e-07 
7297 6323 0 3.3952e-06 
7297 6292 0 5.5588e-06 
7297 6162 0 3.84147e-06 
6120 6162 0 4.53966e-06 
6162 5172 0 3.61964e-06 
6162 5340 0 4.77048e-06 
6162 6330 0 7.76962e-06 
6162 3690 0 3.72578e-06 
6162 2802 0 8.51568e-06 
1363 4586 0 1.2006e-06 
1481 7110 0 1.44839e-06 
754 6870 0 4.40745e-07 
2785 2558 0 1.97978e-06 
1444 4492 0 2.28075e-06 
6330 4452 0 1.10029e-06 
4446 7226 0 1.81058e-07 
2558 6601 0 2.11565e-06 
2444 4061 0 1.84474e-06 
2444 4575 0 1.74967e-06 
4575 386 0 1.64496e-06 
4575 2653 0 1.29592e-06 
4575 6944 0 1.1342e-06 
6521 5299 0 6.17096e-08 
5460 114 0 4.92745e-06 
386 6616 0 1.35171e-06 
5467 271 0 1.11051e-06 
4885 2655 0 1.02266e-06 
4885 984 0 5.95367e-07 
5166 2503 0 4.57091e-07 
984 3014 0 6.62225e-06 
984 7357 0 3.37324e-06 
984 2503 0 2.64545e-06 
984 5357 0 6.86102e-06 
6760 6616 0 4.38371e-07 
3014 3353 0 5.13895e-06 
5407 4099 0 5.64573e-06 
5407 1928 0 6.88144e-07 
5407 5372 0 6.3281e-06 
3454 3353 0 1.88674e-06 
5510 663 0 1.29456e-06 
3353 2181 0 5.67984e-06 
3353 57 0 4.72618e-06 
3044 949 0 4.97008e-06 
3044 5371 0 3.30483e-06 
5901 7418 0 1.90034e-06 
5901 3109 0 6.22493e-07 
6376 5201 0 1.34005e-06 
6376 4866 0 2.10269e-06 
4866 5371 0 1.90743e-06 
1474 4086 0 9.34395e-07 
1474 759 0 1.61299e-06 
7418 6104 0 3.9681e-07 
5201 6265 0 1.11338e-07 
6265 3920 0 6.49742e-07 
6104 6210 0 5.81979e-07 
6210 1140 0 1.24392e-06 
6210 2638 0 2.40462e-06 
6012 5313 0 1.75477e-06 
7404 605 0 1.73156e-07 
2227 1140 0 1.10568e-06 
3047 1094 0 3.52914e-06 
7222 6870 0 4.00466e-07 
7222 6518 0 2.92323e-07 
6292 4492 0 5.87166e-06 
6292 1557 0 8.69567e-06 
2802 4293 0 7.93535e-06 
2802 4414 0 7.66782e-06 
5795 1948 0 5.11899e-07 
5795 3964 0 7.28596e-07 
1948 7226 0 8.53875e-07 
1948 3634 0 1.25316e-06 
4492 1317 0 3.53976e-06 
2324 4293 0 3.06193e-06 
1375 2653 0 1.34144e-06 
1375 4414 0 2.8225e-06 
1375 5585 0 1.29524e-06 
2653 1911 0 5.31355e-07 
169 1831 0 2.44288e-06 
4543 2655 0 1.65447e-06 
4543 4718 0 3.51182e-06 
4543 213 0 1.07028e-06 
198 213 0 1.77467e-06 
5257 2503 0 1.9257e-06 
5257 3352 0 2.13992e-06 
5257 6944 0 9.29883e-07 
6944 5585 0 1.09135e-06 
1911 4524 0 2.37884e-06 
1911 5585 0 2.49258e-06 
1911 6875 0 5.428e-07 
4524 1084 0 2.47212e-06 
1831 1928 0 3.7521e-07 
1831 4355 0 1.89703e-06 
5357 2675 0 7.64655e-06 
5357 77 0 4.09857e-06 
77 2503 0 3.54263e-06 
77 213 0 4.55748e-06 
2503 2181 0 5.04725e-06 
2503 7238 0 2.05037e-06 
2181 4773 0 4.205e-06 
2220 2956 0 1.26884e-06 
2220 5372 0 8.3539e-07 
5372 4451 0 6.01098e-06 
663 6774 0 2.27597e-06 
6774 5240 0 4.97514e-06 
4773 3221 0 2.95769e-07 
4773 2807 0 2.40024e-06 
6202 2288 0 4.52004e-07 
2743 3109 0 1.59159e-06 
2743 7114 0 6.34786e-07 
3109 57 0 2.44578e-06 
57 5371 0 2.81656e-06 
57 7392 0 5.66664e-06 
5371 356 0 2.01748e-06 
759 3088 0 1.21397e-06 
3088 3866 0 1.12234e-06 
3866 7392 0 2.04437e-06 
6546 2960 0 2.25527e-06 
3371 3920 0 6.00967e-07 
3020 136 0 5.69786e-06 
136 5991 0 4.2787e-06 
4414 1585 0 4.25279e-06 
1317 6807 0 3.65071e-06 
3634 4718 0 3.91463e-06 
6807 5585 0 4.11834e-06 
6381 1780 0 8.50465e-07 
473 6875 0 3.67603e-08 
2675 1780 0 3.76144e-06 
1404 1235 0 0.000145066 
1404 975 0 0.000952964 
1404 1065 0 0.000188818 
1404 266 0 0.000175897 
1065 266 0 0.000637626 
1065 2125 0 0.000156577 
1263 1703 0 0.00068361 
1263 1821 0 0.0010403 
1263 2571 0 0.000148015 
1263 284 0 0.000355599 
1703 1131 0 4.35178e-05 
1703 548 0 0.000195512 