ITEM: TIMESTEP
11400000
ITEM: NUMBER OF ENTRIES
20991
ITEM: BOX BOUNDS ff ff ff
-0.01 0.45
-0.15 0.15
-0.08 0.1
ITEM: ENTRIES c_ppc[1] c_ppc[2] c_ppc[3] c_ppc[4] 
107 12206 0 7.36106e-05 
107 5240 0 5.20863e-05 
12206 5240 0 8.32486e-05 
12206 37289 0 7.03752e-05 
5240 3449 0 0.00012903 
10208 5886 0 8.44949e-05 
9182 37162 0 1.66978e-07 
32559 24342 0 1.62152e-07 
2360 5398 0 3.84532e-05 
10484 2831 0 5.39605e-05 
25090 26965 0 5.25808e-05 
44980 7173 0 0.000172444 
34471 6447 0 0.000147386 
5847 17768 0 2.38401e-05 
996 636 0 7.89154e-05 
996 2192 0 4.6583e-05 
27752 14834 0 3.02065e-05 
20139 20044 0 4.34845e-05 
20139 232 0 7.56148e-05 
232 32698 0 7.15534e-05 
4994 19759 0 7.48518e-05 
165 27329 0 0.000105704 
8086 26483 0 4.61244e-05 
16630 2205 0 2.70691e-05 
4590 5450 0 0.000120875 
29468 19385 0 8.35276e-05 
29468 5090 0 5.96089e-05 
5090 27207 0 4.35723e-05 
6960 10743 0 2.40595e-05 
3669 35014 0 8.55608e-05 
32685 19555 0 1.1106e-05 
2731 19555 0 2.29753e-05 
19113 35014 0 6.80139e-05 
19113 44012 0 5.64052e-05 
34957 44012 0 6.58779e-05 
30422 36465 0 3.856e-05 
24362 42193 0 0.00011507 
15320 42137 0 6.26118e-06 
23935 11830 0 2.22683e-06 
6094 8758 0 4.07313e-05 
8758 10254 0 3.52361e-05 
13289 10063 0 2.78663e-06 
44664 35366 0 1.24794e-05 
36665 9712 0 2.70852e-05 
18129 22090 0 1.72865e-05 
37281 27080 0 1.06832e-06 
16779 31235 0 7.72584e-06 
19008 22247 0 1.76259e-06 
34611 18567 0 3.55373e-06 
38480 43239 0 7.18722e-07 
38480 27529 0 1.7712e-06 
964 19802 0 1.60945e-05 
8645 24526 0 2.01958e-06 
8645 28377 0 1.2069e-06 
8645 37055 0 4.04531e-06 
19802 35801 0 2.47381e-06 
19802 45161 0 3.63887e-06 
42137 13891 0 5.50417e-06 
42137 35420 0 5.10295e-06 
35801 23412 0 7.64848e-06 
28377 40174 0 3.36708e-06 
28377 37055 0 5.81943e-07 
28377 35420 0 4.92952e-06 
28377 34927 0 9.46259e-08 
32352 43358 0 2.80113e-06 
40174 17079 0 2.59882e-06 
40174 22333 0 1.8932e-06 
38563 1313 0 1.26638e-06 
38563 35420 0 2.6137e-08 
38563 11961 0 8.924e-07 
43358 32346 0 3.84812e-06 
27829 3130 0 4.77387e-07 
1313 17414 0 1.96949e-06 
32658 15930 0 2.05808e-06 
3130 8960 0 2.65003e-09 
31826 43053 0 2.91947e-06 
17079 32341 0 8.04904e-07 
17079 36318 0 1.20852e-06 
17079 22333 0 2.34595e-06 
17079 37630 0 9.28872e-07 
32346 28011 0 6.13306e-06 
15930 19326 0 2.18181e-07 
26030 34101 0 2.50552e-06 
26030 30706 0 4.13612e-07 
36318 4290 0 1.29631e-06 
36318 37630 0 3.49786e-06 
36318 27635 0 1.30112e-06 
28011 7738 0 8.00333e-06 
12020 8836 0 1.64588e-06 
40355 40882 0 1.75487e-06 
39975 34101 0 8.34951e-07 
4290 27635 0 3.57992e-06 
4290 34097 0 1.91142e-06 
44253 2652 0 4.06172e-07 
40138 8836 0 1.75521e-06 
34589 43600 0 4.75735e-06 
25976 24785 0 2.83363e-06 
2652 7738 0 2.964e-06 
43533 22207 0 3.72651e-07 
24785 19609 0 2.00067e-06 
34034 26107 0 5.59777e-06 
4159 41083 0 1.69369e-05 
5977 27480 0 4.15893e-06 
41482 7705 0 1.75199e-06 
14724 44803 0 3.50284e-06 
19678 44803 0 1.42469e-05 
19678 42516 0 3.66043e-06 
33945 44803 0 1.05146e-05 
22247 29597 0 4.89359e-06 
18567 42145 0 6.42969e-06 
27529 29597 0 5.78008e-06 
13891 8089 0 1.06608e-06 
37055 30551 0 4.34056e-06 
6147 38449 0 1.31177e-06 
34927 22333 0 5.53994e-07 
45171 2932 0 1.02294e-06 
22333 37630 0 2.99549e-06 
22333 27709 0 3.69296e-06 
37630 27635 0 1.14986e-06 
37630 27739 0 4.0697e-06 
17414 12677 0 1.98514e-06 
19326 4583 0 1.35706e-06 
19326 14946 0 5.09741e-09 
8960 15142 0 2.04921e-06 
41668 35191 0 1.92628e-07 
43600 20134 0 3.1895e-06 
15142 22798 0 2.58138e-06 
27635 22732 0 4.5007e-06 
27635 27739 0 4.8044e-07 
27635 8063 0 2.27561e-06 
7738 16708 0 3.92608e-06 
7738 22732 0 3.50072e-06 
7738 23776 0 4.8684e-06 
8836 39220 0 1.58334e-06 
8836 5972 0 1.70373e-06 
8836 43405 0 1.84082e-06 
34097 10499 0 3.54332e-06 
34097 8063 0 3.10742e-06 
39220 22207 0 1.82387e-06 
39220 23043 0 6.08613e-07 
39220 1095 0 1.51514e-06 
44803 13036 0 7.14997e-06 
38811 40834 0 1.87563e-05 
15052 31755 0 2.14773e-05 
11231 31755 0 3.41173e-05 
23412 19496 0 4.54342e-06 
23412 34817 0 6.20905e-07 
19496 2932 0 3.34136e-06 
10234 30706 0 1.9063e-07 
7615 4583 0 1.15484e-06 
7615 9702 0 4.60315e-07 
37862 35289 0 9.92574e-07 
22732 12677 0 2.81168e-06 
21582 33875 0 9.5239e-07 
5972 10404 0 6.60838e-07 
39047 40882 0 9.51104e-07 
39047 10434 0 1.05534e-06 
30024 11638 0 8.20123e-07 
38135 24625 0 5.02508e-08 
43405 27979 0 1.46888e-06 
42516 26521 0 3.77551e-07 
42145 35343 0 3.77188e-06 
29597 38788 0 7.21303e-06 
29597 25679 0 2.49491e-06 
38788 30577 0 3.51411e-06 
40834 14371 0 9.99482e-06 
7732 31214 0 8.94343e-07 
34817 43702 0 5.56724e-07 
30551 39149 0 5.4231e-06 
20360 21903 0 6.40689e-06 
14373 16402 0 1.61436e-05 
27709 41988 0 2.17374e-06 
27709 39149 0 1.57102e-06 
41988 38449 0 2.45654e-06 
21903 6605 0 2.94017e-05 
33469 35289 0 2.39035e-06 
33469 9702 0 4.69574e-06 
33469 20722 0 7.11122e-06 
35289 14946 0 1.86626e-06 
6887 19133 0 1.3637e-07 
31243 12677 0 4.09492e-06 
31243 24869 0 3.03258e-06 
12677 9430 0 1.81367e-06 
12677 28200 0 1.22016e-06 
9702 40845 0 9.90627e-07 
14946 33875 0 1.22076e-06 
14946 44495 0 2.78578e-06 
27739 43815 0 3.75491e-06 
9430 35191 0 9.08089e-07 
33875 24030 0 1.18459e-06 
33875 24368 0 8.59608e-07 
8063 43815 0 3.04354e-06 
35191 30184 0 6.27226e-07 
23776 35926 0 3.53775e-06 
15186 27979 0 1.18784e-07 
27979 34496 0 1.38542e-06 
27979 44663 0 7.49037e-07 
1095 24368 0 1.32676e-06 
30342 23838 0 4.27576e-07 
23468 45118 0 8.10052e-05 
30577 9622 0 1.88514e-06 
41692 41350 0 7.10242e-07 
9622 39149 0 1.28353e-06 
9622 44977 0 2.24444e-06 
31214 44977 0 2.45434e-06 
39149 41102 0 4.19196e-06 
24740 24185 0 2.90205e-06 
24740 44977 0 4.37973e-07 
20722 9125 0 6.00965e-06 
45124 41711 0 1.02713e-05 
33654 36935 0 2.23766e-06 
28200 11001 0 1.92762e-06 
22234 28336 0 1.55189e-06 
24030 34496 0 1.28273e-06 
24030 28336 0 1.78389e-06 
43815 3578 0 3.39469e-06 
43815 22548 0 1.22028e-07 
43815 16611 0 4.82589e-07 
43815 23988 0 1.60265e-06 
30184 35926 0 4.27053e-07 
34496 7725 0 4.49734e-07 
35926 3578 0 2.18349e-06 
35926 9861 0 1.0487e-06 
35926 6265 0 2.30298e-06 
14049 41102 0 2.0594e-06 
14371 41350 0 1.107e-05 
41102 13075 0 3.6135e-06 
44977 35123 0 6.88768e-07 
44977 12883 0 4.13539e-06 
24185 24869 0 4.33502e-06 
24869 11001 0 2.19146e-07 
24869 13075 0 3.72872e-06 
12883 11001 0 4.02905e-06 
12883 42259 0 1.58172e-06 
9125 36935 0 5.61098e-06 
11001 11694 0 1.22826e-06 
11001 13722 0 7.78153e-06 
42259 28336 0 1.61124e-06 
42259 24231 0 2.90045e-06 
36935 28336 0 4.70557e-06 
36935 38094 0 2.76602e-06 
11694 3578 0 3.95696e-06 
28336 7725 0 2.92986e-06 
10232 36291 0 1.52371e-07 
23988 11018 0 9.78273e-07 
3578 1043 0 4.26094e-06 
1043 20577 0 2.37483e-06 
37522 16090 0 6.79703e-06 
37522 11324 0 4.10574e-06 
38722 35478 0 4.05862e-07 
13075 4201 0 3.51293e-06 
40324 35822 0 2.40084e-06 
41658 17213 0 2.45577e-06 
7725 6426 0 9.34773e-07 
3472 22853 0 1.26806e-05 
22853 29271 0 2.6135e-05 
11018 17213 0 4.71572e-07 
20577 17763 0 1.42718e-06 
17763 8878 0 2.21789e-06 
11324 22934 0 1.01253e-06 
22934 28259 0 4.26167e-06 
4201 20619 0 4.44425e-07 
6088 5607 0 4.99064e-07 
24231 4519 0 5.94122e-07 
29875 30658 0 5.50892e-07 
28259 6324 0 6.8865e-06 
36098 28472 0 5.2266e-07 
5607 26754 0 1.67592e-07 
18773 30658 0 1.33721e-06 
30658 95 0 2.33046e-06 
27554 4476 0 2.68177e-07 
27554 16757 0 8.48242e-07 
20065 2193 0 7.83101e-06 
95 18656 0 3.36354e-06 
16757 8820 0 6.16579e-06 
16757 18656 0 1.38212e-06 
18656 18055 0 4.12414e-06 
18055 42570 0 9.91222e-07 
18055 5865 0 1.13749e-06 
42570 37551 0 1.29664e-06 
36612 5865 0 3.39682e-06 
21572 32609 0 8.21857e-07 
27267 40330 0 8.71359e-08 
32609 32123 0 1.54904e-06 
34249 43615 0 1.51103e-06 
43615 38608 0 7.15015e-07 
29993 17724 0 4.24493e-06 
25296 32320 0 9.73898e-07 
32320 7255 0 1.04568e-07 
16896 40219 0 8.4764e-06 
32283 23853 0 2.94908e-06 
33361 18545 0 2.45942e-06 
40887 13470 0 2.10046e-05 
5273 35450 0 7.98537e-06 
5273 37634 0 1.62978e-05 
40768 36368 0 1.21052e-05 
39841 34990 0 2.79523e-06 
7727 34037 0 3.30244e-06 
4173 35564 0 4.908e-06 
36000 11498 0 5.35053e-06 
36000 21830 0 6.79634e-06 
22198 12365 0 5.61898e-06 
3801 28424 0 3.95821e-06 
33576 37415 0 2.05799e-07 
38840 12019 0 1.33229e-05 
37415 18196 0 3.14241e-06 
34945 25272 0 7.03151e-07 
33821 34039 0 1.27967e-06 
33821 19030 0 3.27362e-06 
1349 8631 0 2.80765e-06 
27568 12285 0 3.38711e-06 
27568 4843 0 2.93945e-06 
22705 32923 0 4.21879e-06 
9722 12285 0 3.91092e-06 
11970 4594 0 2.38531e-06 
12657 21884 0 7.10739e-06 
39129 4757 0 2.13361e-06 
40084 16238 0 2.03386e-05 
29373 33911 0 1.64981e-06 
25598 21950 0 6.46754e-07 
38291 33626 0 1.59536e-06 
11457 27997 0 2.50634e-05 
11457 21672 0 3.04214e-05 
21672 32545 0 1.46219e-05 
24442 32545 0 1.82992e-06 
42452 4427 0 2.61335e-06 
25892 14061 0 7.71162e-06 
4312 1568 0 1.07428e-06 
20041 26231 0 5.91438e-06 
43660 27997 0 1.71594e-05 
20299 16134 0 1.1234e-07 
34442 19450 0 1.64596e-06 
19429 37444 0 4.09483e-07 
30109 29627 0 2.22281e-06 
6742 14956 0 1.6848e-06 
30197 3075 0 4.17209e-06 
37444 19159 0 3.43644e-06 
37444 30029 0 2.62437e-06 
9872 18378 0 3.74543e-07 
35704 13744 0 1.1594e-06 
12893 14686 0 1.25887e-06 
14686 4942 0 1.62568e-06 
30029 11914 0 3.9684e-06 
30029 15544 0 2.3736e-06 
11172 3181 0 8.8761e-07 
11172 13712 0 1.40603e-06 
14956 30368 0 6.70702e-07 
33179 4942 0 1.47682e-06 
33179 1510 0 1.64417e-06 
11914 37491 0 1.73169e-06 
13712 12290 0 7.15801e-07 
5539 16311 0 3.86431e-06 
2711 12212 0 1.11228e-06 
30368 1442 0 4.82966e-07 
39898 10998 0 5.69435e-07 
40901 10036 0 6.02807e-06 
10036 12280 0 4.47043e-06 
31909 33472 0 4.17719e-06 
18161 1510 0 2.97983e-06 
19654 4136 0 2.0773e-06 
33628 21504 0 3.96453e-06 
12212 3468 0 9.26645e-07 
12212 26069 0 1.42462e-06 
36123 19210 0 6.86889e-07 
16726 37817 0 1.17144e-06 
16364 15544 0 2.73199e-06 
16364 12275 0 7.77669e-07 
37817 12812 0 5.5203e-07 
37817 22947 0 3.73862e-07 
26231 15517 0 2.73825e-07 
25484 1928 0 5.43827e-06 
26069 24033 0 1.67917e-06 
26069 24259 0 3.128e-07 
40614 23337 0 8.70983e-07 
40614 24033 0 1.20584e-06 
40614 9328 0 2.58723e-06 
16978 10667 0 8.509e-07 
5816 39651 0 6.45537e-07 
41674 7451 0 2.53737e-06 
41674 22692 0 3.84915e-06 
41869 27220 0 2.32425e-06 
41869 42854 0 3.06048e-06 
43527 5863 0 4.81222e-07 
43527 43392 0 1.69361e-06 
43527 40899 0 1.52367e-06 
28468 8867 0 2.99392e-07 
28468 22443 0 1.34025e-07 
4136 5001 0 9.54004e-07 
6397 12812 0 1.44067e-06 
5001 33543 0 6.7252e-07 
38534 33603 0 2.08142e-06 
38534 18872 0 3.43162e-07 
24259 9467 0 4.94077e-08 
20811 4623 0 1.82593e-07 
32370 26506 0 1.05065e-05 
10890 43237 0 2.01478e-06 
10890 39098 0 1.35341e-06 
23087 27163 0 2.62849e-06 
23087 41213 0 2.25783e-06 
3508 9446 0 1.99145e-07 
39366 17997 0 2.67978e-06 
9467 7641 0 2.34026e-07 
1957 20761 0 1.04339e-06 
25089 31829 0 4.2595e-07 
25400 6497 0 2.13693e-06 
28178 32659 0 1.49363e-06 
13928 30988 0 1.6883e-06 
35986 5251 0 2.05416e-07 
23309 16592 0 2.66728e-06 
9446 30988 0 1.17582e-06 
24212 40038 0 1.33234e-06 
21372 35513 0 7.5379e-07 
32543 10888 0 6.16966e-08 
31601 20761 0 7.17012e-07 
31601 38920 0 6.36535e-07 
10888 32303 0 1.23983e-06 
20954 3416 0 6.74567e-07 
20761 33954 0 9.53446e-07 
20761 4003 0 1.00799e-07 
17997 11587 0 9.41086e-07 
34519 29452 0 8.09718e-08 
34519 32303 0 5.51773e-07 
7641 7331 0 1.53245e-06 
3416 29959 0 2.80351e-06 
13000 19651 0 5.97395e-07 
704 11587 0 1.02794e-06 
11587 6467 0 2.14219e-07 
18146 16323 0 2.41177e-07 
36892 11649 0 9.46983e-07 
39908 33344 0 2.68889e-09 
11649 41726 0 7.27721e-07 
27346 4262 0 2.5015e-06 
27346 24559 0 3.43309e-06 
35650 18178 0 3.66858e-06 
27934 23193 0 7.57721e-07 
26625 40038 0 1.6901e-06 
41726 8355 0 9.17933e-07 
4262 18178 0 2.41924e-06 
4262 28488 0 1.48011e-06 
18178 18836 0 2.27405e-07 
30988 35134 0 1.11027e-06 
30988 1977 0 1.70002e-06 
5251 6691 0 1.24742e-07 
28488 38920 0 7.96608e-07 
28488 32246 0 1.88267e-06 
35134 40038 0 1.41778e-06 
35134 30279 0 1.63184e-06 
35134 1977 0 7.93565e-07 
27052 10371 0 3.26754e-07 
10371 2185 0 7.36917e-07 
38920 24404 0 4.47534e-08 
30279 7331 0 1.02708e-06 
24404 22407 0 2.67494e-07 
7331 39834 0 7.72073e-07 
7331 25252 0 6.42396e-07 
5515 8653 0 8.81024e-07 
5515 2185 0 3.59435e-07 
22407 32303 0 4.72744e-07 
22407 29806 0 3.57732e-07 
32303 35322 0 8.562e-07 
25437 28239 0 2.1636e-06 
19651 18796 0 4.57975e-07 
4378 17913 0 6.25203e-05 
25404 33143 0 1.8077e-06 
33143 19897 0 2.30997e-06 
33143 23889 0 4.29621e-06 
24559 19458 0 1.85212e-06 
23889 33401 0 4.97478e-06 
8355 3415 0 3.87309e-06 
8355 41088 0 2.38679e-06 
3415 14756 0 2.21638e-06 
30480 26700 0 1.13597e-06 
30480 36701 0 3.96607e-07 
18836 35057 0 4.81967e-07 
26700 29753 0 6.78969e-07 
24555 40890 0 8.09921e-07 
1977 40038 0 2.84403e-06 
1977 40580 0 2.64921e-06 
33401 29505 0 1.88602e-06 
29753 40822 0 9.58382e-07 
32246 11508 0 3.26651e-06 
32246 38003 0 3.57398e-06 
40038 29505 0 1.91937e-06 
29505 28239 0 1.95157e-06 
29505 38011 0 2.40193e-07 
40822 20667 0 1.57885e-06 
6271 16144 0 3.43729e-07 
14454 36715 0 1.59162e-06 
2185 24462 0 3.34437e-07 
2185 18948 0 9.71826e-07 
35322 32418 0 9.66383e-07 
35322 37826 0 1.0778e-06 
22024 32606 0 9.99131e-07 
20667 23031 0 1.35347e-06 
30565 11508 0 2.2263e-06 
19570 4281 0 1.6369e-07 
32996 15513 0 8.13717e-07 
5553 15513 0 5.67105e-07 
25252 1085 0 1.07542e-06 
25252 8530 0 1.72483e-06 
25252 31680 0 1.27218e-06 
8530 24208 0 1.52931e-06 
29959 39577 0 3.04862e-06 
29959 5987 0 2.49576e-06 
4281 24984 0 5.79196e-08 
29806 14078 0 2.72326e-07 
15270 14756 0 2.68482e-07 
6900 39052 0 6.33287e-06 
7002 465 0 1.65209e-06 
465 10390 0 1.69257e-06 
23172 17928 0 4.80989e-06 
10390 35566 0 2.15815e-06 
10390 22661 0 4.48259e-06 
10390 34347 0 2.74796e-08 
35057 26941 0 7.60965e-07 
37555 35938 0 8.26004e-07 
37555 42379 0 2.36488e-06 
37555 31363 0 5.0606e-07 
27033 42379 0 5.27754e-07 
40580 23700 0 2.01461e-06 
38003 36199 0 3.36674e-06 
42694 40666 0 1.24699e-06 
35566 19981 0 3.7627e-07 
35566 36715 0 2.2222e-06 
19981 15821 0 6.75632e-07 
19981 13346 0 5.37396e-07 
38535 24868 0 2.01809e-06 
36715 38011 0 3.64434e-06 
16392 11609 0 3.91898e-06 
16392 40526 0 1.46234e-07 
11508 38679 0 1.28194e-06 
32177 14321 0 6.09858e-08 
24294 41133 0 9.32908e-07 
24294 12278 0 7.12054e-07 
24294 14736 0 1.35092e-07 
38011 24208 0 7.52705e-07 
38011 39577 0 2.20444e-06 
7018 39611 0 4.90608e-07 
32418 12125 0 1.13783e-07 
37826 26313 0 1.03183e-06 
12278 25499 0 5.64915e-07 
24208 17773 0 1.94191e-06 
39577 37014 0 3.27778e-06 
24984 18796 0 1.1405e-06 
24984 38679 0 7.39453e-07 
31680 20717 0 1.70983e-06 
31680 32606 0 1.86827e-06 
14078 27831 0 4.85889e-08 
32618 6467 0 3.63331e-07 
39765 22717 0 3.22755e-07 
39765 6872 0 5.22301e-08 
39765 26382 0 6.70538e-08 
21403 38053 0 2.84465e-07 
21209 5669 0 3.88278e-06 
32008 37967 0 2.31089e-06 
12563 17928 0 3.24562e-06 
40718 4689 0 9.6092e-08 
4689 24631 0 6.3644e-07 
4689 20859 0 1.00601e-06 
12277 30829 0 1.07614e-06 
12277 32822 0 9.03418e-07 
34147 37471 0 1.75584e-06 
37327 610 0 3.85335e-06 
23700 17858 0 8.67002e-07 
36199 32822 0 2.18992e-06 
36199 37471 0 1.89571e-06 
16119 40666 0 8.19978e-07 
5538 42360 0 1.69558e-07 
13981 2740 0 1.79588e-06 
13981 37391 0 1.6365e-06 
13981 27314 0 5.81262e-07 
13981 37471 0 3.38864e-06 
39090 41133 0 9.14969e-07 
37391 27314 0 1.71011e-06 
37391 40061 0 1.80575e-06 
23125 42398 0 1.48682e-06 
23125 532 0 2.15246e-06 
20161 15358 0 2.55091e-07 
31363 1227 0 7.48169e-07 
1227 9449 0 8.6001e-07 
39859 24868 0 6.6588e-07 
39859 15460 0 1.48675e-06 
12604 11769 0 7.5774e-07 
14321 9398 0 1.00936e-07 
24868 32606 0 5.92066e-07 
24868 28750 0 1.51218e-06 
37014 40945 0 1.86021e-06 
37014 7496 0 3.06055e-06 
38679 33563 0 8.94616e-07 
26313 27374 0 7.6514e-07 
32606 37748 0 1.80594e-06 
28750 25499 0 9.9958e-07 
28750 30737 0 4.80108e-07 
28750 16895 0 1.51791e-06 
17773 31270 0 2.52808e-06 
40945 33392 0 2.19025e-06 
40945 6750 0 1.26212e-06 
39611 27831 0 3.9324e-07 
27374 9449 0 3.59823e-07 
27374 19258 0 7.80064e-07 
25499 9259 0 1.43157e-06 
11890 17837 0 3.2971e-07 
29107 28464 0 4.57459e-07 
10358 42175 0 1.16568e-06 
40081 19258 0 2.18706e-07 
5669 37230 0 5.94752e-06 
37403 32479 0 2.37798e-08 
12227 9986 0 1.02792e-08 
37230 35979 0 3.85917e-06 
42492 40142 0 4.66449e-07 
11841 35176 0 2.36046e-07 
11841 22484 0 8.51149e-07 
35979 17858 0 1.02473e-06 
35979 28980 0 2.70484e-06 
35979 19645 0 6.1877e-07 
30829 32675 0 3.64434e-06 
32675 18777 0 4.55744e-07 
18777 37471 0 1.47489e-06 
32822 8709 0 7.74095e-07 
32822 19786 0 6.74101e-07 
28980 40666 0 1.37645e-06 
28980 11006 0 1.10178e-06 
28980 32793 0 1.39635e-06 
42360 19786 0 3.63495e-07 
42321 13793 0 1.82761e-06 
42321 42398 0 1.65523e-06 
13793 41486 0 1.15765e-06 
37469 9300 0 1.45916e-07 
28141 13346 0 8.65662e-07 
28141 38007 0 5.79131e-07 
13847 32497 0 2.35661e-07 
13847 13652 0 4.23099e-07 
13346 7496 0 1.70007e-06 
13346 35944 0 7.48984e-07 
15038 21143 0 4.66493e-07 
7496 35552 0 2.05499e-06 
21143 9923 0 1.14083e-06 
21143 29163 0 2.38831e-06 
21143 37919 0 2.43601e-07 
30186 27643 0 2.37507e-07 
15460 37748 0 1.23468e-06 
15460 22695 0 7.78437e-07 
15460 41324 0 1.18633e-06 
15460 16594 0 1.5968e-06 
6750 14035 0 8.98745e-07 
28464 29163 0 1.12555e-06 
9923 33463 0 8.79304e-07 
9923 13652 0 4.77246e-07 
27643 8012 0 2.89738e-07 
9449 27980 0 6.65036e-07 
37748 10587 0 1.26999e-06 
30304 35669 0 1.99928e-07 
33563 37919 0 4.17562e-07 
33463 33909 0 2.80628e-07 
33463 42175 0 8.77515e-07 
33463 24305 0 3.70921e-07 
19904 42175 0 1.22478e-06 
19904 19338 0 3.97327e-07 
15896 10587 0 6.00924e-07 
12188 41307 0 1.21261e-06 
15131 31270 0 7.14725e-07 
27831 24305 0 9.38781e-08 
42175 5235 0 6.53461e-07 
19258 452 0 1.0364e-06 
38934 12431 0 4.49294e-07 
8709 19652 0 4.28647e-07 
26157 29317 0 1.83885e-06 
5599 39638 0 1.58871e-06 
5599 32793 0 1.45651e-06 
10488 26707 0 9.35965e-08 
12760 40357 0 4.82614e-07 
17708 34884 0 2.94556e-09 
38007 7591 0 6.99011e-07 
19786 38124 0 9.86523e-07 
32497 38124 0 1.28963e-07 
42456 29317 0 1.29292e-06 
11006 3422 0 3.02677e-07 
11006 17961 0 1.19474e-06 
15115 22695 0 8.39448e-07 
15115 34884 0 1.06485e-06 
7591 15001 0 3.80146e-07 
3290 27991 0 2.05154e-07 
36236 2029 0 4.14185e-07 
12169 38874 0 3.28413e-06 
22695 41989 0 2.37376e-07 
33663 14035 0 1.2604e-06 
38104 29163 0 6.85695e-07 
38874 29066 0 2.22168e-06 
41989 3095 0 1.7517e-09 
19845 19338 0 2.87543e-07 
41324 37492 0 2.23365e-06 
41324 11506 0 1.75082e-06 
16594 6812 0 1.60893e-06 
16594 32693 0 6.40951e-07 
21450 31270 0 2.34382e-06 
21450 31534 0 1.48829e-06 
29163 15001 0 1.0678e-06 
29163 24882 0 1.56414e-06 
37919 3930 0 1.18517e-06 
34783 42302 0 1.12233e-07 
29066 30351 0 1.5921e-06 
17846 36926 0 3.43264e-07 
39460 31976 0 2.22499e-06 
30351 34750 0 1.25101e-07 
30351 41191 0 4.94837e-07 
30351 37642 0 1.51005e-06 
10587 5434 0 7.36138e-07 
10587 11506 0 1.92721e-06 
36926 18942 0 4.10665e-07 
41307 32693 0 1.27012e-06 
31976 42741 0 3.90421e-07 
42741 40356 0 1.00988e-06 
42741 24882 0 1.0242e-06 
42741 28953 0 1.90831e-07 
24305 3930 0 3.93464e-07 
9698 30941 0 1.60168e-07 
18427 34750 0 2.78355e-07 
4061 452 0 1.75775e-06 
4061 31714 0 1.64516e-06 
32847 38846 0 1.55421e-05 
32847 7849 0 2.29109e-06 
9248 14233 0 1.14775e-06 
14116 42463 0 3.08816e-06 
25250 29551 0 5.28592e-07 
19645 23637 0 1.15601e-06 
23637 39638 0 9.57679e-07 
23637 18819 0 1.21682e-06 
39638 35572 0 3.38378e-06 
35572 16636 0 4.30671e-06 
19652 33717 0 1.2451e-06 
19652 10395 0 8.41081e-07 
32793 14939 0 8.40061e-07 
32793 5429 0 6.26849e-07 
33717 15189 0 1.34851e-06 
29317 29743 0 1.50428e-06 
28118 34884 0 5.289e-07 
28118 14383 0 7.08648e-07 
28118 22772 0 5.1923e-08 
41233 16405 0 2.70568e-07 
8531 16405 0 6.38668e-07 
40357 10395 0 1.98092e-06 
40357 24494 0 1.1455e-06 
29743 11453 0 1.29396e-06 
29743 36378 0 1.31415e-06 
2029 43647 0 2.95145e-06 
3422 7265 0 5.9171e-07 
34884 39121 0 7.70151e-07 
38124 31535 0 1.49141e-06 
38124 15189 0 6.46229e-07 
38124 24494 0 6.29822e-07 
17961 37492 0 1.58037e-06 
17961 28662 0 3.2454e-07 
7265 6812 0 4.0611e-07 
7265 14648 0 7.34778e-07 
14383 31688 0 7.20182e-07 
31535 41641 0 1.47006e-06 
16983 29756 0 9.65191e-07 
37492 42576 0 1.75582e-06 
6812 28161 0 1.17348e-06 
6812 41706 0 1.37372e-06 
31688 17635 0 1.1902e-06 
31534 20113 0 3.80107e-08 
41641 34889 0 1.04441e-06 
41641 4760 0 1.03295e-06 
35425 2825 0 5.71193e-08 
29825 24882 0 5.31468e-07 
29825 17273 0 1.12236e-06 
29825 19397 0 1.01178e-06 
27980 10099 0 8.63625e-07 
39835 17635 0 1.08344e-06 
24882 16621 0 1.69339e-08 
3930 12380 0 8.29458e-07 
3930 4760 0 2.84931e-07 
3930 30941 0 1.23543e-06 
41191 32075 0 7.68056e-07 
41191 14031 0 3.11667e-07 
11506 20704 0 4.61109e-07 
26644 36661 0 9.0597e-08 
37126 19397 0 4.75137e-07 
37642 29596 0 1.12363e-06 
37642 39231 0 9.88696e-07 
18518 15492 0 2.48898e-06 
36114 18052 0 9.8856e-06 
43350 23232 0 4.04762e-07 
32749 5007 0 2.04057e-06 
5007 12548 0 2.2693e-07 
41881 25768 0 2.45551e-06 
41881 39121 0 1.04822e-06 
41881 32990 0 9.06357e-07 
26419 10816 0 9.42177e-07 
19131 10395 0 2.74931e-06 
43286 24265 0 4.17547e-07 
12974 5059 0 7.38315e-09 
25768 39121 0 2.27625e-07 
10816 22772 0 6.55315e-07 
10395 15226 0 1.27604e-06 
22251 33200 0 2.74283e-07 
42998 28635 0 1.38856e-06 
42998 14211 0 1.50975e-06 
28635 27004 0 3.90479e-07 
5429 37502 0 7.89734e-07 
15226 10804 0 1.69147e-06 
15189 37130 0 1.23691e-07 
15189 13055 0 6.73879e-07 
15189 26591 0 1.44084e-06 
37502 28161 0 7.44731e-07 
37502 20094 0 9.03977e-08 
37502 42761 0 8.93383e-07 
43851 16368 0 1.41344e-06 
24494 17273 0 1.49491e-06 
11453 43079 0 1.13029e-06 
41327 20952 0 4.00743e-07 
41327 12933 0 4.64766e-07 
9938 42761 0 9.84822e-07 
9938 28503 0 4.13654e-07 
20113 34650 0 8.55731e-07 
10804 17273 0 9.98534e-07 
10804 7293 0 2.23578e-06 
3153 34889 0 5.09826e-07 
3153 32777 0 1.15808e-07 
42699 12933 0 1.47748e-07 
42699 26582 0 5.4358e-07 
12198 20938 0 1.42176e-06 
42576 20704 0 1.50902e-07 
42576 6224 0 1.76013e-06 
14648 28503 0 3.49677e-07 
14648 21960 0 6.12742e-07 
17273 9318 0 1.12908e-06 
17273 7293 0 1.11296e-06 
9156 26591 0 5.24236e-07 
34889 2825 0 9.59595e-07 
34889 43079 0 1.1375e-07 
42923 2825 0 9.91876e-07 
7226 19691 0 9.26691e-07 
30666 26095 0 2.27814e-06 
41706 38196 0 1.40933e-06 
17635 22932 0 1.00518e-06 
9318 36661 0 2.82484e-07 
9318 16621 0 1.15543e-06 
4760 19397 0 1.15285e-06 
2825 39231 0 6.52992e-07 
23351 39100 0 2.52602e-07 
19691 10099 0 7.52598e-07 
10099 7377 0 8.28303e-07 
10099 18292 0 6.58887e-07 
22932 30843 0 5.20626e-07 
22932 40126 0 4.61751e-08 
19397 3604 0 8.95386e-07 
19397 6712 0 8.426e-07 
12380 30941 0 4.49532e-07 
12380 18813 0 7.21275e-07 
36521 39231 0 2.51022e-07 
39231 7380 0 5.52628e-07 
23721 38196 0 7.52124e-07 
23721 13911 0 2.51529e-07 
30941 12083 0 5.63156e-07 
32075 31714 0 1.19468e-06 
31714 18292 0 4.13359e-07 
7849 11962 0 9.5077e-06 
40059 35396 0 1.39619e-06 
30778 38947 0 3.19384e-06 
11962 36908 0 3.01539e-07 
41497 5205 0 4.23641e-07 
41497 4609 0 1.40972e-06 
41497 19386 0 6.16517e-07 
23268 14211 0 1.641e-08 
29551 18819 0 2.16191e-07 
18260 24265 0 4.5464e-07 
18260 6620 0 2.18613e-08 
24265 43274 0 5.88438e-07 
27004 33525 0 4.33728e-07 
18819 12735 0 8.26167e-07 
32990 42761 0 1.02844e-06 
10533 23528 0 7.38636e-07 
40541 41924 0 1.1116e-06 
13055 25891 0 1.30107e-06 
32643 43079 0 2.02323e-07 
8722 26582 0 1.85651e-07 
12933 9284 0 1.36931e-07 
25891 28459 0 1.35603e-06 
26591 12721 0 1.59523e-06 
43079 43410 0 7.94308e-08 
43079 1912 0 6.87329e-07 
26582 15881 0 9.11322e-07 
28503 8955 0 1.31305e-07 
7293 26667 0 1.39693e-06 
7293 28459 0 1.47787e-06 
32777 12721 0 5.79996e-07 
32777 34855 0 4.93014e-07 
15881 24373 0 9.40108e-07 
7377 4161 0 4.89661e-07 
7377 25390 0 1.08123e-06 
21960 14148 0 1.11719e-06 
21960 33121 0 7.04596e-07 
21960 34315 0 1.03393e-06 
40405 38196 0 1.91302e-06 
40405 30843 0 1.08701e-06 
40405 37890 0 1.61833e-06 
18813 10904 0 4.79211e-07 
10904 30538 0 2.73165e-07 
42786 34315 0 1.03752e-06 
30843 26667 0 5.47433e-07 
30843 32374 0 1.07878e-06 
6712 28459 0 2.56457e-06 
6712 34855 0 5.50691e-07 
6712 26447 0 5.78162e-07 
6712 32037 0 2.01895e-06 
24770 6503 0 5.79983e-08 
2669 12083 0 5.59784e-07 
37616 30538 0 5.21351e-07 
7380 10451 0 2.14073e-07 
18292 35149 0 5.57032e-07 
18292 34675 0 4.65592e-07 
41886 31876 0 3.07687e-07 
32374 29126 0 1.28772e-06 
32374 30493 0 1.85308e-07 
12083 39857 0 4.17727e-07 
35149 4785 0 1.58915e-06 
35149 4480 0 1.87432e-07 
35149 11567 0 1.28485e-06 
6373 37481 0 6.10151e-06 
9522 24623 0 3.13718e-06 
24623 14528 0 1.94236e-06 
18564 15832 0 6.13093e-07 
19386 21136 0 1.61938e-06 
420 25140 0 3.42462e-06 
420 6343 0 1.23065e-06 
21136 15832 0 5.96453e-07 
21136 10298 0 1.10209e-06 
43274 5037 0 8.8157e-08 
18984 22346 0 4.39772e-07 
6620 5054 0 2.22176e-07 
6620 23528 0 2.53631e-07 
5037 23949 0 6.67698e-07 
9284 37545 0 2.25641e-07 
5054 43551 0 2.82606e-07 
28708 19166 0 1.4953e-07 
28708 34621 0 7.3596e-07 
14879 6224 0 1.60241e-06 
14879 25640 0 1.67248e-06 
12510 7856 0 4.85098e-07 
5331 16368 0 7.6776e-07 
23528 12721 0 7.84167e-07 
31643 22561 0 6.5617e-07 
31643 25390 0 9.73242e-07 
31643 26276 0 1.13118e-06 
7856 1142 0 3.72506e-07 
41924 15591 0 1.61423e-06 
16368 17107 0 4.03982e-07 
17107 28459 0 2.12062e-06 
17107 6908 0 4.78675e-07 
12721 24496 0 6.53481e-09 
12721 34564 0 1.40246e-06 
12721 4477 0 9.50337e-07 
19975 1912 0 4.92844e-07 
39751 35435 0 2.91034e-07 
6224 33121 0 1.2968e-06 
29894 34315 0 2.46176e-06 
29894 12182 0 1.56102e-06 
15591 8955 0 1.08309e-06 
28459 23275 0 3.60641e-07 
28459 39011 0 7.37498e-07 
43410 5006 0 5.81717e-07 
43410 4477 0 1.40463e-07 
1912 30538 0 4.85478e-07 
1912 23783 0 4.4879e-07 
25390 9004 0 1.0201e-06 
33121 37033 0 9.67242e-07 
33121 28831 0 1.2141e-06 
34315 33680 0 1.12546e-06 
8955 5863 0 2.01499e-07 
26667 23275 0 1.1791e-06 
5006 9499 0 8.87746e-07 
30538 41731 0 6.14546e-07 
24373 34675 0 9.09737e-07 
21750 9004 0 9.92469e-07 
21750 25464 0 1.15031e-06 
37033 19512 0 1.38803e-06 
37033 11225 0 5.32361e-07 
9499 26447 0 8.94765e-07 
9499 26024 0 5.12354e-07 
34675 29334 0 6.11713e-07 
34675 11567 0 1.19313e-06 
40315 35901 0 1.00286e-06 
40315 33680 0 8.29302e-07 
12904 41993 0 1.48173e-07 
32037 28368 0 1.25772e-06 
32037 18422 0 4.63759e-07 
6503 5944 0 1.38141e-07 
10451 29334 0 2.91043e-07 
5880 6287 0 1.40026e-06 
33052 19180 0 1.534e-06 
9983 14788 0 2.29466e-07 
28172 25140 0 2.08879e-06 
42254 28971 0 1.11892e-06 
14528 4808 0 3.4909e-06 
4808 18056 0 7.31573e-07 
4808 31358 0 4.82027e-06 
18056 22346 0 1.97323e-06 
18056 4559 0 2.80984e-08 
539 13429 0 8.0736e-07 
17709 19183 0 3.08192e-07 
19799 8844 0 4.63141e-06 
10298 25640 0 1.5205e-06 
10298 35454 0 1.28658e-06 
8844 15632 0 4.98446e-07 
2178 13685 0 2.12706e-07 
41070 19239 0 8.67698e-07 
22346 8176 0 1.20923e-06 
22346 15002 0 1.71373e-06 
44070 15281 0 3.16433e-07 
37545 36174 0 1.79055e-06 
25640 8662 0 4.26791e-08 
15632 12182 0 7.52994e-07 
40011 39812 0 6.03301e-07 
40011 27334 0 4.46057e-07 
43551 25648 0 6.30905e-07 
43551 34192 0 1.01901e-06 
23949 34564 0 9.52087e-07 
23949 22530 0 1.03516e-06 
8176 22530 0 1.38471e-06 
8176 31358 0 1.76968e-06 
26276 15281 0 9.17144e-07 
8662 1462 0 1.97782e-07 
34621 4645 0 1.02732e-06 
34564 14581 0 1.27132e-06 
34564 34259 0 2.95099e-07 
42055 15002 0 3.75585e-07 
35435 15002 0 9.95501e-07 
35435 15281 0 7.08473e-07 
13885 4188 0 1.57892e-07 
16623 36980 0 3.23809e-07 
4645 29531 0 8.91484e-07 
41084 34495 0 6.82476e-07 
4477 40259 0 7.56292e-07 
14581 6304 0 1.31444e-06 
23783 21145 0 8.90407e-07 
23783 26717 0 1.26199e-07 
9004 42351 0 4.28924e-07 
23275 15493 0 1.83687e-07 
23275 17075 0 1.62141e-06 
39011 17075 0 8.99076e-07 
30440 29873 0 5.48839e-07 
41731 25464 0 1.07962e-06 
41731 29643 0 9.70578e-07 
33680 37134 0 5.46958e-07 
41993 40899 0 1.08064e-07 
8440 30493 0 4.63441e-07 
26447 42475 0 4.38457e-07 
40633 26024 0 7.54183e-07 
40633 6304 0 1.45146e-06 
40633 1828 0 1.58087e-06 
29334 5279 0 3.56776e-07 
29334 20697 0 4.53433e-07 
11225 11445 0 1.91949e-07 
40899 5447 0 1.4823e-06 
40213 42475 0 7.89257e-07 
26024 18517 0 1.17624e-07 
26024 22413 0 2.04876e-09 
1828 26404 0 7.70356e-07 
11567 2745 0 1.47715e-06 
41261 11423 0 3.3771e-06 
41652 16427 0 1.33633e-06 
42192 7799 0 7.86059e-07 
20148 22326 0 1.94129e-07 
14788 33374 0 1.5975e-06 
15406 12157 0 5.92032e-07 
15406 20990 0 9.61224e-07 
15406 32558 0 1.71973e-06 
15373 30172 0 7.44131e-07 
35454 22047 0 1.8446e-07 
15828 25648 0 1.68806e-07 
13429 4559 0 1.39935e-06 
13429 10209 0 4.39516e-07 
38453 33820 0 2.92163e-07 
38453 3627 0 2.63241e-07 
22047 39871 0 4.832e-07 
23405 6351 0 6.09441e-07 
13482 15281 0 3.82808e-07 
13482 3914 0 6.64868e-07 
39871 39812 0 4.41546e-07 
19239 22607 0 1.42019e-06 
43132 34192 0 1.81883e-06 
43132 495 0 1.71955e-06 
6351 29390 0 1.24291e-06 
33846 22530 0 5.30782e-07 
15002 10209 0 6.31118e-07 
15002 34984 0 1.43526e-06 
15281 32960 0 4.40276e-07 
27334 36980 0 9.66593e-07 
27334 16186 0 1.54527e-07 
34192 12680 0 1.08566e-06 
34192 29531 0 1.11152e-06 
22530 21145 0 1.44442e-06 
22530 7315 0 1.03526e-06 
34984 21145 0 1.06102e-06 
34984 32960 0 5.12262e-08 
34495 26689 0 3.89131e-07 
34495 27130 0 1.55637e-07 
1462 24527 0 4.69163e-07 
1462 38047 0 7.72503e-07 
1462 2370 0 7.45311e-07 
22458 6331 0 1.6566e-06 
22458 20315 0 1.24845e-06 
36980 4188 0 4.9865e-07 
36980 22607 0 7.53018e-07 
12680 39593 0 2.23012e-06 
34259 20586 0 4.94088e-07 
21145 38621 0 1.65676e-06 
29277 22845 0 4.09419e-07 
24527 28831 0 2.72708e-07 
6331 37134 0 1.04066e-06 
6331 5447 0 1.92295e-06 
6331 38235 0 4.70263e-07 
39593 23315 0 4.32962e-07 
39593 40032 0 2.15933e-06 
29531 25135 0 1.46955e-06 
40259 27938 0 6.9723e-07 
40259 25135 0 1.02044e-06 
40259 33995 0 6.93304e-07 
26717 11808 0 8.92319e-08 
37134 12949 0 1.21926e-06 
9734 11992 0 9.71409e-08 
4188 21110 0 5.64944e-07 
4188 40032 0 3.82473e-07 